Control file title. For DL_FIELD 4.10
49896
    1MOL     C1    1   5.004   4.361   5.764 -0.0219 -0.0932  0.1635
    1MOL     C2    2   5.104   4.448   5.691  0.7189 -0.5295 -0.4334
    1MOL     C3    3   5.221   4.376   5.621 -0.1134  0.0973  0.2533
    1MOL     O4    4   5.246   4.393   5.502  0.8566 -0.0326 -0.3758
    1MOL     H5    5   4.989   4.272   5.703  1.8524  2.3358 -4.0227
    1MOL     H6    6   5.031   4.330   5.865  1.3517  1.1493  0.2015
    1MOL     H7    7   5.138   4.522   5.762 -0.2563  0.3587 -0.8798
    1MOL     H8    8   5.053   4.510   5.617 -2.4963 -0.0445  2.0570
    1MOL     H9    9   4.906   4.406   5.754  0.4720  0.9748  0.0722
    1MOL    C10   10   5.319   4.299   5.710 -0.0035  0.3802  0.8456
    1MOL    C11   11   5.410   4.208   5.626  0.4426 -0.3371 -0.1028
    1MOL    C12   12   5.549   4.250   5.603 -0.3999 -0.5415 -0.0728
    1MOL    O13   13   5.613   4.299   5.692 -0.5849 -0.0742  0.4148
    1MOL    H14   14   5.251   4.249   5.779 -0.9585  2.7540  1.6424
    1MOL    H15   15   5.368   4.377   5.767  0.5434  0.7245 -0.0918
    1MOL    H16   16   5.362   4.199   5.528 -1.3070 -0.4730  0.7456
    1MOL    H17   17   5.413   4.105   5.663  0.0457 -0.0650  0.6921
    1MOL    C18   18   5.605   4.233   5.462  0.2817 -0.2350 -0.3173
    1MOL    C19   19   5.564   4.350   5.365  0.3286  0.0933 -0.2793
    1MOL    C20   20   5.474   4.302   5.245 -0.4094 -0.3358  0.6780
    1MOL    O21   21   5.443   4.184   5.236  0.4382 -0.2799  0.4527
    1MOL    H22   22   5.582   4.133   5.426  1.6101  0.1374 -2.2806
    1MOL    H23   23   5.713   4.243   5.473  0.0912  0.7405  0.7802
    1MOL    H24   24   5.645   4.407   5.321  0.9850 -0.4040  0.2586
    1MOL    H25   25   5.517   4.432   5.419 -1.0360  0.5033 -2.0360
    1MOL    C26   26   5.425   4.405   5.140  0.2661 -0.7383 -0.2722
    1MOL    C27   27   5.297   4.355   5.073 -0.2583 -0.0768  0.3499
    1MOL    C28   28   5.315   4.312   4.926 -1.4348  0.1229 -0.3413
    1MOL    O29   29   5.425   4.303   4.873 -0.0835  0.0515  0.1712
    1MOL    H30   30   5.509   4.423   5.073 -1.0214  0.0592 -1.7065
    1MOL    H31   31   5.404   4.500   5.188  0.5449 -0.7271 -0.1707
    1MOL    H32   32   5.221   4.433   5.072 -3.0523 -2.7023 -4.0614
    1MOL    H33   33   5.252   4.281   5.139  0.7382  0.3180  1.4850
    1MOL    C34   34   5.191   4.285   4.852 -0.3317 -0.2637 -0.0600
    1MOL    C35   35   5.172   4.138   4.802  0.1085  0.8202 -0.1116
    1MOL    C36   36   5.095   4.151   4.670 -0.0379  0.0080 -0.1139
    1MOL    O37   37   5.033   4.251   4.637 -0.2966 -0.2802 -0.1527
    1MOL    H38   38   5.202   4.348   4.763 -2.2698 -0.6201 -0.5864
    1MOL    H39   39   5.101   4.328   4.896  0.5834  0.4625  1.1046
    1MOL    H40   40   5.110   4.084   4.873  0.4954  0.7737  0.1916
    1MOL    H41   41   5.263   4.079   4.791 -1.2666 -1.2608 -0.6953
    1MOL    C42   42   5.082   4.024   4.588 -0.3237 -0.2206 -0.0815
    1MOL    C43   43   5.056   4.044   4.442  0.0725  0.5203  0.1826
    1MOL    C44   44   4.921   3.979   4.397 -0.3071  0.1818  0.1230
    1MOL    O45   45   4.819   3.977   4.471  0.4097  0.7772  0.5549
    1MOL    H46   46   5.016   3.951   4.634  1.0028 -1.5210 -0.2053
    1MOL    H47   47   5.171   3.962   4.592  1.1080  1.7708 -0.2742
    1MOL    H48   48   5.135   4.015   4.372 -0.3194  1.9598 -0.8872
    1MOL    H49   49   5.040   4.150   4.425 -0.6310  0.1438 -1.6899
    1MOL    C50   50   4.900   3.943   4.252 -0.2034 -0.1360 -0.6469
    1MOL    C51   51   4.889   3.791   4.235 -0.2549 -0.0484  0.2532
    1MOL    C52   52   5.018   3.721   4.202 -0.1343 -0.0347  0.4011
    1MOL    O53   53   5.102   3.770   4.130 -0.1710  0.3559 -1.2015
    1MOL    H54   54   4.976   3.985   4.187 -1.9577  2.6995 -0.9359
    1MOL    H55   55   4.808   3.987   4.214 -0.2179 -1.0512 -1.7056
    1MOL    H56   56   4.814   3.770   4.158 -1.3578 -0.3860  1.4066
    1MOL    H57   57   4.856   3.750   4.330  1.3818 -1.5205  0.2163
    1MOL    C58   58   5.044   3.582   4.249  0.0553  0.3805 -0.0400
    1MOL    C59   59   5.191   3.563   4.294  0.8621  0.0232  0.2699
    1MOL    C60   60   5.237   3.661   4.402 -0.2287 -0.3000  0.3181
    1MOL    O61   61   5.155   3.728   4.474 -1.0435  0.0110 -0.0514
    1MOL    H62   62   5.022   3.505   4.176 -1.7919  0.9402 -0.0898
    1MOL    H63   63   4.981   3.575   4.338 -1.9827  0.1492 -1.4690
    1MOL    H64   64   5.250   3.561   4.203 -0.3681 -2.9235 -0.5221
    1MOL    H65   65   5.203   3.464   4.338  0.2967  0.2370  0.9110
    1MOL    C66   66   5.386   3.659   4.423  0.1287  0.2317  0.1961
    1MOL    C67   67   5.434   3.792   4.492  0.4445  0.5182  0.5931
    1MOL    C68   68   5.582   3.825   4.466  0.5512  0.3680 -1.0207
    1MOL    O69   69   5.651   3.752   4.397 -0.3840  0.2501  0.3163
    1MOL    H70   70   5.430   3.644   4.324 -1.9907 -0.2488 -0.6845
    1MOL    H71   71   5.407   3.576   4.491  0.7933  0.4047  0.2144
    1MOL    H72   72   5.392   3.800   4.592 -0.1357 -1.8988  0.5676
    1MOL    H73   73   5.396   3.877   4.436 -1.3301 -1.2218 -0.9057
    1MOL    C74   74   5.641   3.947   4.542  0.3680 -0.3618  0.5980
    1MOL    C75   75   5.680   3.914   4.684  0.9235 -1.0237  0.2322
    1MOL    C76   76   5.576   3.926   4.785  0.3134 -0.1071 -0.4255
    1MOL    O77   77   5.464   3.969   4.771  0.3066 -0.1285 -1.1427
    1MOL    H78   78   5.576   4.034   4.533 -0.0220 -0.8595 -1.4812
    1MOL    H79   79   5.723   3.981   4.479 -0.9551 -1.8974 -2.0286
    1MOL    H80   80   5.767   3.977   4.701 -0.1019  0.8022 -1.0768
    1MOL    H81   81   5.709   3.809   4.674 -1.1642 -1.6491  0.3595
    1MOL    C82   82   5.618   3.878   4.927  0.2230 -0.7432  0.1046
    1MOL    C83   83   5.619   3.993   5.035 -0.7300  0.7647  0.3854
    1MOL    C84   84   5.769   4.035   5.052  0.0365 -0.1044  0.2687
    1MOL    O85   85   5.829   4.057   4.948 -0.3584 -0.3960  0.3931
    1MOL    H86   86   5.718   3.835   4.919  0.7835  1.0138 -2.8591
    1MOL    H87   87   5.551   3.800   4.964  0.3438 -0.0010  1.9714
    1MOL    H88   88   5.569   3.961   5.126 -4.0967 -0.9144 -1.9750
    1MOL    H89   89   5.557   4.074   4.996 -0.7873  0.0370 -1.0583
    1MOL    C90   90   5.832   4.072   5.187 -0.7915 -0.1218 -0.7594
    1MOL    C91   91   5.982   4.130   5.175  0.1889  0.3597  0.0623
    1MOL    C92   92   5.975   4.281   5.157  0.5083  0.4089  0.4678
    1MOL    O93   93   5.878   4.344   5.199  0.3108 -0.4004  0.7568
    1MOL    H94   94   5.832   3.981   5.248  0.1075  0.2047 -0.2793
    1MOL    H95   95   5.760   4.130   5.245 -1.1759 -1.2099 -0.1373
    1MOL    H96   96   6.035   4.072   5.100 -0.1957 -0.5698  0.5002
    1MOL    H97   97   6.039   4.111   5.267 -0.7651  1.2619  0.8484
    1MOL    C98   98   6.093   4.358   5.090  0.4920  0.9333 -0.3292
    1MOL    C99   99   6.186   4.418   5.199  0.5510  0.1392  0.6592
    1MOL   C100  100   6.330   4.402   5.172  0.0763  0.0304 -0.6816
    1MOL   O101  101   6.375   4.353   5.071 -0.1912  0.9888 -0.1981
    1MOL   H102  102   6.033   4.434   5.040  0.1944 -0.8035 -2.7180
    1MOL   H103  103   6.142   4.295   5.016 -3.6497 -0.6327 -1.8920
    1MOL   H104  104   6.165   4.363   5.291 -1.6333 -0.5711 -0.2272
    1MOL   H105  105   6.168   4.523   5.218  2.8100  0.5767  0.4756
    1MOL   C106  106   6.412   4.440   5.291 -0.6150 -0.2893 -0.0877
    1MOL   C107  107   6.558   4.469   5.264  0.1233 -0.0124  0.0102
    1MOL   C108  108   6.580   4.592   5.171 -0.3087 -0.0591 -0.4649
    1MOL   O109  109   6.525   4.697   5.203 -0.2960 -0.6009  0.6708
    1MOL   H110  110   6.420   4.350   5.352  0.3836  0.3423  0.7507
    1MOL   H111  111   6.357   4.515   5.348  2.0028  0.4064  1.6346
    1MOL   H112  112   6.609   4.384   5.218  0.2673 -0.5724  1.1949
    1MOL   H113  113   6.602   4.494   5.360 -0.7859  0.7356  0.2431
    1MOL   C114  114   6.676   4.580   5.056 -0.6079 -0.2728 -0.2397
    1MOL   C115  115   6.719   4.725   5.014 -0.2239  0.0202  0.5758
    1MOL   C116  116   6.850   4.728   4.938  0.1470  0.3366 -0.0476
    1MOL   O117  117   6.959   4.710   4.996  0.4485  0.1586  0.0363
    1MOL   H118  118   6.641   4.517   4.974  1.7075 -1.1723 -0.5794
    1MOL   H119  119   6.762   4.529   5.100 -1.4844 -1.8815 -0.3431
    1MOL   H120  120   6.735   4.798   5.094 -0.3380  1.4174 -0.6423
    1MOL   H121  121   6.641   4.773   4.955  0.7784  0.1262 -0.6987
    1MOL   C122  122   6.832   4.729   4.786  0.6054  0.0381  0.9153
    1MOL   C123  123   6.933   4.812   4.701  0.6095 -0.3237 -0.7239
    1MOL   C124  124   6.940   4.762   4.561 -0.6424 -0.5655 -0.6608
    1MOL   O125  125   6.918   4.652   4.521  0.2701  0.1216 -0.2116
    1MOL   H126  126   6.729   4.743   4.755  1.0471 -1.2275 -1.2272
    1MOL   H127  127   6.859   4.628   4.755 -2.5440 -0.6076  0.0796
    1MOL   H128  128   7.033   4.812   4.744  0.5114  0.0602 -0.4989
    1MOL   H129  129   6.910   4.918   4.696  1.3015 -0.0788  1.0117
    1MOL   C130  130   7.017   4.839   4.457  0.2976 -0.2754 -0.1397
    1MOL   C131  131   6.976   4.817   4.302  0.1330 -0.5142  0.0937
    1MOL   C132  132   7.095   4.750   4.234 -0.3779  0.0403  0.1885
    1MOL   O133  133   7.161   4.800   4.144 -0.5147  0.9103 -0.2924
    1MOL   H134  134   7.121   4.813   4.475  0.3117 -0.1896 -0.1034
    1MOL   H135  135   6.996   4.945   4.471 -1.2768 -0.4932 -0.7606
    1MOL   H136  136   6.933   4.905   4.256  0.4075  1.0534  2.7271
    1MOL   H137  137   6.889   4.752   4.298 -0.3374  0.1758 -0.8735
    1MOL   C138  138   7.143   4.609   4.269  0.0963  0.2289 -0.3012
    1MOL   C139  139   7.298   4.584   4.238  0.5854 -0.4065 -0.3938
    1MOL   C140  140   7.387   4.658   4.341  0.2382 -0.4054  0.4431
    1MOL   O141  141   7.343   4.732   4.427  0.5001  0.2765  0.0106
    1MOL   H142  142   7.078   4.550   4.205 -1.4962  1.6711 -0.0765
    1MOL   H143  143   7.124   4.586   4.374 -0.6689  0.1132 -0.4591
    1MOL   H144  144   7.323   4.620   4.138 -1.5907  2.9567  0.1803
    1MOL   H145  145   7.316   4.477   4.239 -1.6165 -0.7993  0.8318
    1MOL   C146  146   7.535   4.644   4.310  0.5264 -0.3755  0.0460
    1MOL   C147  147   7.620   4.665   4.427  0.3934 -0.0525 -0.3106
    1MOL   C148  148   7.697   4.793   4.431 -0.1109  0.2903  0.4768
    1MOL   O149  149   7.647   4.898   4.397  0.1588  0.2237 -0.0239
    1MOL   H150  150   7.573   4.706   4.229  1.4234 -4.2064 -2.5595
    1MOL   H151  151   7.554   4.541   4.281  0.0733 -1.0618  2.0470
    1MOL   H152  152   7.690   4.583   4.439  0.0233 -0.1394  1.3201
    1MOL   H153  153   7.552   4.648   4.511 -0.7920  2.4581 -0.7046
    1MOL   C154  154   7.848   4.774   4.461  0.8844 -0.2842  0.0491
    1MOL   C155  155   0.064   4.897   4.446 -0.1759 -0.0652 -0.6087
    1MOL   C156  156   0.071   4.942   4.303 -0.3035 -0.1914  0.9982
    1MOL   O157  157   0.076   4.863   4.210  0.5018 -0.4822  0.1972
    1MOL   H158  158   0.038   4.705   4.392  3.1673 -0.0576  1.4176
    1MOL   H159  159   0.006   4.722   4.555  2.0353 -0.2802 -0.1535
    1MOL   H160  160   0.163   4.873   4.486 -0.4338 -1.4621 -0.7903
    1MOL   H161  161   0.024   4.979   4.506 -0.7512 -0.3192 -0.6496
    1MOL   H162  162   0.070   5.051   4.298  1.3965 -0.1263  1.5974
    2MOL     C1  163   3.070   5.750   6.377  0.3270 -0.1708  0.5883
    2MOL     C2  164   2.955   5.654   6.353  0.2486 -0.1210 -0.0423
    2MOL     C3  165   2.847   5.709   6.264 -0.0811 -0.0372 -0.0701
    2MOL     O4  166   2.824   5.664   6.149  0.0578  0.1830  0.1646
    2MOL     H5  167   3.148   5.702   6.436  0.5499  0.9821  1.2401
    2MOL     H6  168   3.104   5.800   6.286 -2.5288  0.3995 -0.2126
    2MOL     H7  169   2.895   5.637   6.443  1.9371 -2.5519  0.6870
    2MOL     H8  170   2.989   5.558   6.313 -3.1002 -2.3214  2.1264
    2MOL     H9  171   3.036   5.831   6.440 -0.8717  1.0213 -1.5253
    2MOL    C10  172   2.769   5.832   6.316 -0.4266 -0.2793  0.8832
    2MOL    C11  173   2.670   5.899   6.215 -0.4937 -0.5874  0.3268
    2MOL    C12  174   2.542   5.964   6.271 -0.7260  0.9605  0.0254
    2MOL    O13  175   2.521   5.963   6.393  0.0633  0.1270 -0.0566
    2MOL    H14  176   2.849   5.905   6.331 -1.4321  0.9305  0.4248
    2MOL    H15  177   2.720   5.816   6.412 -0.2505  0.0626  1.0327
    2MOL    H16  178   2.644   5.838   6.129  1.0064 -2.6672  1.2978
    2MOL    H17  179   2.722   5.986   6.176 -0.1311 -0.4316  1.1287
    2MOL    C18  180   2.433   6.002   6.169 -0.5581  0.3523  0.1050
    2MOL    C19  181   2.335   6.103   6.233 -0.0435  0.0917  0.1383
    2MOL    C20  182   2.219   6.039   6.299  0.1171 -0.4287 -0.3000
    2MOL    O21  183   2.130   5.992   6.236  0.5077  0.0046  0.0972
    2MOL    H22  184   2.377   5.910   6.152  1.6210 -1.5599  2.9668
    2MOL    H23  185   2.475   6.042   6.077 -1.2158  0.5248 -0.1255
    2MOL    H24  186   2.290   6.159   6.151 -1.4027 -0.7360  0.3055
    2MOL    H25  187   2.381   6.176   6.300 -2.3971 -1.0470  3.1010
    2MOL    C26  188   2.210   6.031   6.452  0.3672 -0.8443  0.3799
    2MOL    C27  189   2.134   6.150   6.515 -0.7949  0.4562  0.2543
    2MOL    C28  190   2.008   6.193   6.441  0.8019 -0.3480 -0.1754
    2MOL    O29  191   2.014   6.294   6.370 -0.3316 -0.0033  0.5553
    2MOL    H30  192   2.314   6.026   6.486  0.1705 -1.1446  0.9406
    2MOL    H31  193   2.157   5.942   6.486  0.5663 -0.8969  0.5568
    2MOL    H32  194   2.208   6.230   6.519  0.2291 -0.4075 -1.0852
    2MOL    H33  195   2.104   6.136   6.619 -0.8856  0.2831  0.2044
    2MOL    C34  196   1.882   6.106   6.458 -0.6343 -0.5374  0.4794
    2MOL    C35  197   1.788   6.136   6.339  0.3751 -0.3692  0.0799
    2MOL    C36  198   1.691   6.246   6.380 -0.1265  0.5304 -0.2957
    2MOL    O37  199   1.574   6.235   6.344 -0.3346 -0.1697  0.1149
    2MOL    H38  200   1.849   6.138   6.557  1.4416  2.3567  0.3141
    2MOL    H39  201   1.915   6.003   6.465 -0.3671 -0.4429  0.6021
    2MOL    H40  202   1.727   6.049   6.312  0.2450  0.0662 -1.0427
    2MOL    H41  203   1.852   6.162   6.256  1.8266 -0.1682  1.2469
    2MOL    C42  204   1.721   6.363   6.466  0.1954 -0.5216  0.3129
    2MOL    C43  205   1.605   6.445   6.515  0.1493 -0.0832  0.3880
    2MOL    C44  206   1.637   6.597   6.533 -0.0072  0.0865  0.4845
    2MOL    O45  207   1.732   6.650   6.478  0.1861  0.6891 -1.1265
    2MOL    H46  208   1.793   6.416   6.404  0.3255 -2.2679 -1.0618
    2MOL    H47  209   1.777   6.329   6.553  0.4682 -0.9177 -0.0152
    2MOL    H48  210   1.569   6.409   6.611  1.6860 -0.9064  0.6698
    2MOL    H49  211   1.521   6.449   6.445 -0.6493  0.0874  1.3486
    2MOL    C50  212   1.536   6.675   6.619  0.1865  0.9592 -0.4405
    2MOL    C51  213   1.500   6.812   6.557 -0.6875 -0.5807  0.1566
    2MOL    C52  214   1.602   6.923   6.573  0.2339 -0.0269 -1.1171
    2MOL    O53  215   1.677   6.924   6.668  0.4477  0.1679  0.0595
    2MOL    H54  216   1.584   6.695   6.715  2.4819  0.8335 -1.5152
    2MOL    H55  217   1.445   6.621   6.642  0.1580  1.2090  0.0447
    2MOL    H56  218   1.407   6.859   6.590 -1.7134 -2.2443 -0.2913
    2MOL    H57  219   1.498   6.806   6.448 -0.0995 -0.0911  0.1144
    2MOL    C58  220   1.594   7.041   6.480 -0.0022  0.0057  0.4061
    2MOL    C59  221   1.724   7.116   6.462  0.1336  0.7287 -0.2764
    2MOL    C60  222   1.821   7.053   6.363 -0.4129 -0.1985  0.0185
    2MOL    O61  223   1.815   7.076   6.247 -0.0996  0.3155 -0.2114
    2MOL    H62  224   1.514   7.094   6.531  0.2083 -1.1502  1.9610
    2MOL    H63  225   1.555   7.003   6.385  3.2612 -0.4960 -0.7953
    2MOL    H64  226   1.773   7.133   6.558 -0.8395 -1.7182  0.7016
    2MOL    H65  227   1.700   7.214   6.421  1.1309  0.7279 -0.8984
    2MOL    C66  228   1.929   6.965   6.422 -0.7919 -0.3081  1.2146
    2MOL    C67  229   2.010   6.877   6.324  0.0686  0.7865  0.7375
    2MOL    C68  230   2.159   6.920   6.309 -0.2000 -0.0690  0.0701
    2MOL    O69  231   2.207   7.017   6.376 -0.0079  0.2922  0.0347
    2MOL    H70  232   1.890   6.909   6.507 -0.5234 -0.1197  1.4656
    2MOL    H71  233   1.996   7.039   6.466  3.5004 -3.7262  0.8259
    2MOL    H72  234   1.968   6.873   6.223  1.7213 -2.5192  0.0822
    2MOL    H73  235   2.007   6.773   6.358 -3.2866  0.7641  0.5009
    2MOL    C74  236   2.246   6.836   6.216 -0.6801  0.4124  0.3922
    2MOL    C75  237   2.395   6.875   6.217  0.4217 -0.0249 -0.2237
    2MOL    C76  238   2.496   6.762   6.199  0.3488  0.6466 -0.1053
    2MOL    O77  239   2.464   6.645   6.208 -0.1374 -0.1990  0.3184
    2MOL    H78  240   2.225   6.835   6.109  1.1198  2.4015 -0.0191
    2MOL    H79  241   2.230   6.734   6.251  2.1975  0.7675  2.9448
    2MOL    H80  242   2.420   6.906   6.319  0.9360 -1.6688  0.1769
    2MOL    H81  243   2.411   6.955   6.146 -1.5488  1.1343  0.5990
    2MOL    C82  244   2.639   6.809   6.173 -0.6112  0.2466  0.2657
    2MOL    C83  245   2.746   6.699   6.178 -1.0354 -0.5722  0.5157
    2MOL    C84  246   2.883   6.759   6.131 -0.3175 -0.4088 -0.6295
    2MOL    O85  247   2.880   6.820   6.026  0.2548  0.0190 -0.2132
    2MOL    H86  248   2.657   6.874   6.258  0.3736 -0.5478  0.6689
    2MOL    H87  249   2.650   6.869   6.083  0.5679  0.4513  0.5447
    2MOL    H88  250   2.717   6.622   6.107 -0.4033 -0.4057  0.0719
    2MOL    H89  251   2.748   6.660   6.280 -2.1622 -3.0650 -0.3786
    2MOL    C90  252   3.004   6.724   6.212  0.5750  0.4488 -0.2580
    2MOL    C91  253   3.128   6.795   6.165 -0.0084  0.4833 -0.2795
    2MOL    C92  254   3.181   6.902   6.262  0.0371 -0.4552  0.2331
    2MOL    O93  255   3.148   6.894   6.383  0.2683  0.4303  0.0955
    2MOL    H94  256   3.014   6.615   6.210  2.0832  0.5979 -2.9211
    2MOL    H95  257   2.997   6.759   6.315 -0.6786 -0.8066  0.1064
    2MOL    H96  258   3.107   6.850   6.073 -0.3329  1.4242  0.3527
    2MOL    H97  259   3.212   6.734   6.133  0.8293  0.6780  1.5060
    2MOL    C98  260   3.289   6.996   6.202 -0.0946 -0.2064 -0.5320
    2MOL    C99  261   3.398   7.039   6.300  0.0554 -0.3368  0.3754
    2MOL   C100  262   3.521   6.963   6.277  0.2845  0.7425  0.1064
    2MOL   O101  263   3.532   6.876   6.194  0.3184 -0.0847 -0.1022
    2MOL   H102  264   3.238   7.086   6.168 -0.2251  0.5886  1.6931
    2MOL   H103  265   3.324   6.950   6.110 -1.0998 -0.6408 -0.6992
    2MOL   H104  266   3.357   7.038   6.401 -1.1817  0.5061 -0.1034
    2MOL   H105  267   3.418   7.144   6.282 -1.1653  0.0316  1.0766
    2MOL   C106  268   3.638   7.011   6.354 -0.6152 -0.5204 -0.0041
    2MOL   C107  269   3.768   6.919   6.343 -0.0594  0.1157 -0.2247
    2MOL   C108  270   3.764   6.797   6.442 -0.2787  0.3211 -0.0101
    2MOL   O109  271   3.685   6.797   6.536  0.2743 -0.1856 -0.5290
    2MOL   H110  272   3.607   7.025   6.458  1.4296 -1.1155  0.6951
    2MOL   H111  273   3.662   7.113   6.327 -0.8131 -0.5815 -0.4173
    2MOL   H112  274   3.847   6.986   6.377  0.2338 -1.5380  2.4683
    2MOL   H113  275   3.782   6.899   6.237  2.2145 -0.5376  0.1764
    2MOL   C114  276   3.865   6.692   6.423 -0.4645  0.3863 -0.1140
    2MOL   C115  277   3.866   6.589   6.543 -0.0375 -0.1192  1.2067
    2MOL   C116  278   3.884   6.446   6.501 -0.2027  0.1626  0.2734
    2MOL   O117  279   3.795   6.397   6.428 -0.4437 -0.1601 -0.0729
    2MOL   H118  280   3.963   6.737   6.409  0.1069 -0.7233  0.2817
    2MOL   H119  281   3.843   6.653   6.324  1.0631 -2.0093  0.4585
    2MOL   H120  282   3.771   6.590   6.596 -1.1913 -0.5110 -0.7970
    2MOL   H121  283   3.944   6.611   6.616  0.7155 -1.7243  0.9103
    2MOL   C122  284   3.998   6.374   6.557 -0.2838 -0.7665 -0.8248
    2MOL   C123  285   3.976   6.222   6.543 -0.4977  0.1214 -1.3116
    2MOL   C124  286   4.098   6.144   6.583  0.0887 -0.5536  0.1416
    2MOL   O125  287   4.191   6.194   6.641 -0.5180 -0.1127 -0.1722
    2MOL   H126  288   4.001   6.397   6.664  0.5683 -1.9733 -0.5775
    2MOL   H127  289   4.089   6.411   6.510 -0.4204  2.4715  1.3179
    2MOL   H128  290   3.958   6.199   6.438  1.6176 -3.4265 -0.9776
    2MOL   H129  291   3.893   6.190   6.606 -1.3570  0.3103 -2.3323
    2MOL   C130  292   4.104   5.999   6.560  0.4164 -0.7363  0.9778
    2MOL   C131  293   4.104   5.918   6.694  0.4118 -1.0413  0.1881
    2MOL   C132  294   3.985   5.825   6.713  0.0355 -0.6999  0.0006
    2MOL   O133  295   3.899   5.812   6.619 -0.8675  0.0624 -0.3146
    2MOL   H134  296   4.182   5.971   6.489 -0.0485 -2.6137  1.1858
    2MOL   H135  297   4.010   5.989   6.506 -0.0765  0.0764  1.6648
    2MOL   H136  298   4.093   5.997   6.768 -0.3951  0.9335 -1.9579
    2MOL   H137  299   4.198   5.868   6.717  0.4465 -0.5605  1.1290
    2MOL   C138  300   3.973   5.759   6.851  1.0604 -0.1618  0.2157
    2MOL   C139  301   3.943   5.607   6.841  0.1069  0.0165 -0.6679
    2MOL   C140  302   4.003   5.537   6.961 -0.0701 -0.4196  0.0910
    2MOL   O141  303   4.000   5.579   7.076 -0.0201  0.0675 -0.3094
    2MOL   H142  304   3.899   5.813   6.910  0.6643 -1.3915  0.8516
    2MOL   H143  305   4.065   5.789   6.903 -0.0590  0.5459  1.8198
    2MOL   H144  306   3.975   5.560   6.748  1.2151 -0.1202 -0.2284
    2MOL   H145  307   3.835   5.592   6.838 -0.0323  1.2141 -2.1625
    2MOL   C146  308   4.078   5.407   6.932  0.6682  0.5132 -0.6124
    2MOL   C147  309   4.169   5.356   7.049  0.2259  0.0997  0.3317
    2MOL   C148  310   4.303   5.308   7.011  0.7972 -0.0611  1.0122
    2MOL   O149  311   4.316   5.265   6.895  0.2109  0.5630  0.0976
    2MOL   H150  312   4.137   5.409   6.840 -0.3731 -2.6582 -1.4071
    2MOL   H151  313   4.005   5.327   6.917  0.8963  0.1738  0.0667
    2MOL   H152  314   4.107   5.276   7.090 -0.2890  0.2516 -0.1457
    2MOL   H153  315   4.179   5.424   7.134 -0.4393 -1.2462  1.5064
    2MOL   C154  316   4.423   5.325   7.103  0.8512  0.3922  0.1460
    2MOL   C155  317   4.557   5.317   7.028  0.2242 -0.4633  0.3280
    2MOL   C156  318   4.610   5.175   7.021 -0.3349 -0.2270  0.7596
    2MOL   O157  319   4.646   5.116   7.125 -0.3688 -0.8554 -0.0522
    2MOL   H158  320   4.394   5.248   7.175  0.3635  0.3342 -0.1065
    2MOL   H159  321   4.417   5.418   7.159 -0.5750  0.7912 -0.6444
    2MOL   H160  322   4.631   5.380   7.076 -0.2169  0.9880 -0.8780
    2MOL   H161  323   4.545   5.345   6.924  2.6924  0.0400  0.1531
    2MOL   H162  324   4.606   5.148   6.916 -2.2947  0.1501  0.7153
    3MOL     C1  325   2.781   0.386   6.094 -0.1160 -0.7682 -0.7684
    3MOL     C2  326   2.759   0.471   5.971  0.2697 -0.0079  0.2189
    3MOL     C3  327   2.824   0.610   5.995 -0.7610  0.3237  0.5262
    3MOL     O4  328   2.913   0.626   6.079 -0.7341 -0.4289  0.5575
    3MOL     H5  329   2.885   0.352   6.096 -0.0900 -0.6448  0.1314
    3MOL     H6  330   2.767   0.450   6.180 -0.3778  2.3809 -3.0846
    3MOL     H7  331   2.651   0.465   5.957  0.3699  0.3646 -0.7051
    3MOL     H8  332   2.809   0.432   5.882  1.2037  1.1985  0.1970
    3MOL     H9  333   2.713   0.300   6.093 -3.5301  1.8319 -0.8061
    3MOL    C10  334   2.782   0.727   5.902 -0.4599  0.8973  0.1455
    3MOL    C11  335   2.840   0.865   5.935 -0.1026  0.1797 -0.1513
    3MOL    C12  336   2.917   0.928   5.815 -0.8167 -0.3053  0.8117
    3MOL    O13  337   2.931   0.874   5.701 -0.3057 -0.1181  0.0410
    3MOL    H14  338   2.674   0.732   5.916 -0.7873  4.0775 -2.8176
    3MOL    H15  339   2.796   0.695   5.799  0.0307 -1.6216  0.9513
    3MOL    H16  340   2.906   0.859   6.021  0.5596  1.4522 -0.5643
    3MOL    H17  341   2.755   0.928   5.963 -0.4763 -0.3747 -0.0200
    3MOL    C18  342   2.966   1.071   5.832  0.0573 -0.4042 -0.3680
    3MOL    C19  343   3.059   1.129   5.718 -0.4864 -0.3057  0.2599
    3MOL    C20  344   3.189   1.178   5.776  0.5884  0.1346  0.0842
    3MOL    O21  345   3.206   1.292   5.813 -0.7846  0.5335 -0.0194
    3MOL    H22  346   2.999   1.098   5.933 -0.3682  1.0092 -0.6022
    3MOL    H23  347   2.873   1.126   5.818 -0.7491 -1.1931  1.6447
    3MOL    H24  348   3.027   1.211   5.654  0.7557 -2.4258 -3.2556
    3MOL    H25  349   3.072   1.047   5.647 -0.7587 -2.6406  2.8032
    3MOL    C26  350   3.302   1.072   5.787 -0.2640  0.8105 -0.2182
    3MOL    C27  351   3.436   1.131   5.818  0.0585 -0.1623 -0.6207
    3MOL    C28  352   3.496   1.198   5.705  0.4802 -0.0641  0.3715
    3MOL    O29  353   3.505   1.325   5.692 -0.0886 -0.3633  1.0242
    3MOL    H30  354   3.310   1.018   5.692  0.0280  0.6320 -0.0915
    3MOL    H31  355   3.270   0.997   5.858  1.4393  0.3229  0.0532
    3MOL    H32  356   3.500   1.049   5.851  0.6128  0.3609 -0.4052
    3MOL    H33  357   3.426   1.214   5.887  0.4982 -0.1181 -0.6137
    3MOL    C34  358   3.541   1.111   5.584 -0.4515 -0.2901  0.2132
    3MOL    C35  359   3.570   1.189   5.459 -0.6073 -0.5663 -0.1143
    3MOL    C36  360   3.669   1.128   5.372 -0.1534 -0.3494 -0.6722
    3MOL    O37  361   3.739   1.027   5.410  0.8044 -0.5809 -0.6390
    3MOL    H38  362   3.470   1.031   5.562  1.3783 -1.8129 -0.2411
    3MOL    H39  363   3.636   1.070   5.617  0.2564  0.0225 -1.4050
    3MOL    H40  364   3.600   1.292   5.482  0.1935 -0.8911  0.2928
    3MOL    H41  365   3.476   1.198   5.404 -0.2072  0.2141 -0.6869
    3MOL    C42  366   3.699   1.190   5.233 -0.0136  0.0519  0.5327
    3MOL    C43  367   3.749   1.081   5.131  0.1032 -0.7114 -0.3888
    3MOL    C44  368   3.882   1.096   5.070  0.1793  0.1582  0.4684
    3MOL    O45  369   3.972   1.154   5.128 -0.7758  0.4547  0.2050
    3MOL    H46  370   3.767   1.275   5.234 -0.6893  0.5943  1.8948
    3MOL    H47  371   3.601   1.224   5.200  0.6924  1.6055  0.0114
    3MOL    H48  372   3.666   1.081   5.060 -0.2486 -1.4604  0.0153
    3MOL    H49  373   3.753   0.981   5.175  1.9311 -0.8731 -0.9018
    3MOL    C50  374   3.898   1.036   4.927  0.3904  0.4627 -0.7448
    3MOL    C51  375   3.892   1.142   4.811  0.0106  0.3348 -0.9250
    3MOL    C52  376   3.769   1.233   4.816  0.2248 -1.1046 -0.0191
    3MOL    O53  377   3.654   1.185   4.845  0.3384  0.2340  0.0288
    3MOL    H54  378   3.827   0.953   4.925  0.8676  0.0494 -0.6055
    3MOL    H55  379   3.992   0.982   4.919 -0.2103 -0.8139  0.5803
    3MOL    H56  380   3.889   1.094   4.713  0.2523 -3.2842  0.7690
    3MOL    H57  381   3.989   1.192   4.804  1.7010 -2.9555 -1.7851
    3MOL    C58  382   3.792   1.378   4.778 -0.0945  0.0848  0.3068
    3MOL    C59  383   3.663   1.453   4.755  0.0618  0.0259  1.1780
    3MOL    C60  384   3.628   1.548   4.868  0.3890 -0.7690 -0.2179
    3MOL    O61  385   3.698   1.561   4.965 -0.0554  0.1846 -0.5216
    3MOL    H62  386   3.861   1.380   4.695 -1.2081 -0.1502 -0.6378
    3MOL    H63  387   3.835   1.421   4.868 -2.2408 -0.1465  1.4943
    3MOL    H64  388   3.577   1.389   4.736  0.9025  0.1319 -3.7596
    3MOL    H65  389   3.675   1.506   4.660 -0.9835 -0.5808  0.7070
    3MOL    C66  390   3.497   1.628   4.847  0.6881 -0.6489  0.7332
    3MOL    C67  391   3.499   1.766   4.918  0.0892  0.2341  0.0777
    3MOL    C68  392   3.443   1.874   4.826  0.8323 -0.7247 -1.4828
    3MOL    O69  393   3.504   1.923   4.725  0.1758  0.3991 -0.7623
    3MOL    H70  394   3.412   1.565   4.873 -1.6169  1.3610 -1.5918
    3MOL    H71  395   3.482   1.632   4.739  2.9664 -0.5541  0.4047
    3MOL    H72  396   3.604   1.793   4.928  0.1093  0.7366 -1.4931
    3MOL    H73  397   3.453   1.765   5.017 -0.1189  0.5991 -0.0141
    3MOL    C74  398   3.310   1.930   4.872  0.0129 -0.7131  0.3451
    3MOL    C75  399   3.226   1.989   4.748 -0.2482 -0.1520 -0.9219
    3MOL    C76  400   3.111   1.889   4.723 -1.0137  0.5350  0.0740
    3MOL    O77  401   3.145   1.778   4.688 -0.2804 -0.6884 -0.1458
    3MOL    H78  402   3.329   2.004   4.950  3.1762 -1.8871  0.7775
    3MOL    H79  403   3.257   1.854   4.929  1.1608 -0.7387  1.4310
    3MOL    H80  404   3.288   1.997   4.659  0.4305  1.6860 -0.3071
    3MOL    H81  405   3.193   2.092   4.763  3.4537  0.7714  1.5019
    3MOL    C82  406   2.966   1.935   4.720 -0.6241 -0.9997 -0.4410
    3MOL    C83  407   2.860   1.826   4.750  0.0550  0.0187 -0.4910
    3MOL    C84  408   2.734   1.877   4.677 -0.5419 -1.0360  0.4595
    3MOL    O85  409   2.726   1.872   4.556 -0.2979  0.1487 -0.0553
    3MOL    H86  410   2.945   1.988   4.627 -2.2622  1.1740  1.1291
    3MOL    H87  411   2.955   2.001   4.805 -0.6142 -0.3730 -0.9199
    3MOL    H88  412   2.861   1.810   4.858  1.0239 -0.7708 -0.6156
    3MOL    H89  413   2.887   1.728   4.712  1.1917  0.1019  0.0726
    3MOL    C90  414   2.628   1.940   4.763 -0.0970  0.0157  0.6080
    3MOL    C91  415   2.522   1.832   4.803  0.2189 -0.1939 -0.1016
    3MOL    C92  416   2.420   1.892   4.902  0.5848 -0.0148 -0.2668
    3MOL    O93  417   2.429   2.005   4.943  0.2850  0.1034 -0.5185
    3MOL    H94  418   2.588   2.021   4.702  1.5150 -0.6900 -1.4753
    3MOL    H95  419   2.666   2.000   4.845 -2.4458 -1.4223  2.7951
    3MOL    H96  420   2.568   1.743   4.846 -1.2748 -0.8214  0.2477
    3MOL    H97  421   2.456   1.805   4.720 -0.4297  1.6536 -0.1996
    3MOL    C98  422   2.301   1.805   4.943  0.3401 -0.3333  0.6514
    3MOL    C99  423   2.352   1.688   5.035  0.1391  0.6601  0.7309
    3MOL   C100  424   2.323   1.551   4.976 -0.1089 -0.0187 -0.5876
    3MOL   O101  425   2.305   1.548   4.854 -0.3605  0.1264  0.2359
    3MOL   H102  426   2.251   1.777   4.850 -0.6465  0.9726  0.7735
    3MOL   H103  427   2.225   1.862   4.998  0.0065 -0.4541  0.3182
    3MOL   H104  428   2.297   1.690   5.130  1.5688  0.8204  1.5729
    3MOL   H105  429   2.458   1.684   5.061  0.2671  1.8632  0.4231
    3MOL   C106  430   2.331   1.418   5.053 -0.5286  0.6286  0.2784
    3MOL   C107  431   2.204   1.336   5.059 -0.1035  0.1895  0.2688
    3MOL   C108  432   2.123   1.358   5.186  0.7196  0.3141  0.6103
    3MOL   O109  433   2.085   1.468   5.217  0.0461 -0.5719 -0.0232
    3MOL   H110  434   2.369   1.430   5.155  2.1277  1.1587 -0.7271
    3MOL   H111  435   2.415   1.360   5.014 -0.2349 -0.2994  2.1928
    3MOL   H112  436   2.215   1.229   5.042 -3.1581  0.2534 -2.5756
    3MOL   H113  437   2.140   1.379   4.982  0.3209 -0.4672 -0.4660
    3MOL   C114  438   2.084   1.233   5.270  0.3680  0.0563  0.2276
    3MOL   C115  439   1.991   1.271   5.384 -0.0489  0.1406  0.6531
    3MOL   C116  440   1.963   1.156   5.485  0.1510 -0.2556  0.4017
    3MOL   O117  441   2.025   1.052   5.471 -0.5712 -0.6550 -0.5377
    3MOL   H118  442   2.175   1.182   5.302  1.1925  3.0730  2.9419
    3MOL   H119  443   2.029   1.173   5.198  1.0732 -0.3650  0.0361
    3MOL   H120  444   1.894   1.306   5.349  0.0245  2.8423  2.9064
    3MOL   H121  445   2.029   1.359   5.435  0.3765  0.6720 -0.5665
    3MOL   C122  446   1.888   1.187   5.612  0.2777 -0.1075  0.7527
    3MOL   C123  447   1.882   1.061   5.697  0.4632 -0.3312 -1.1137
    3MOL   C124  448   1.771   1.071   5.805 -0.0282 -0.2240 -0.8265
    3MOL   O125  449   1.699   1.171   5.827 -0.1555  0.3052  0.1525
    3MOL   H126  450   1.790   1.220   5.578  0.5355 -0.7342 -0.6909
    3MOL   H127  451   1.946   1.265   5.660 -1.6229  0.4891  2.1384
    3MOL   H128  452   1.977   1.042   5.747 -0.2992  1.4025  1.1045
    3MOL   H129  453   1.865   0.970   5.640  2.5177 -1.0467 -0.6222
    3MOL   C130  454   1.749   0.935   5.875 -0.0483  0.2156 -0.8863
    3MOL   C131  455   1.697   0.942   6.021 -0.1899  0.0067 -0.7644
    3MOL   C132  456   1.804   0.967   6.120 -0.4597 -0.3859  0.5650
    3MOL   O133  457   1.923   0.997   6.089  0.0084  0.3954  0.1185
    3MOL   H134  458   1.844   0.881   5.881  0.0996  0.5245 -0.4518
    3MOL   H135  459   1.674   0.886   5.814  1.8178  1.9068 -4.7175
    3MOL   H136  460   1.665   0.841   6.045 -0.6340  0.0948 -0.9682
    3MOL   H137  461   1.616   1.015   6.029  0.7178  0.7991  1.9608
    3MOL   C138  462   1.761   0.978   6.264  0.4571  0.2936 -0.3059
    3MOL   C139  463   1.866   0.935   6.366  0.3304  0.4270 -0.6002
    3MOL   C140  464   1.808   0.867   6.496 -0.0378 -0.2829 -0.5033
    3MOL   O141  465   1.685   0.864   6.516 -0.4034 -0.1428 -0.3335
    3MOL   H142  466   1.675   0.910   6.271  0.4416  0.5177  2.0278
    3MOL   H143  467   1.726   1.080   6.279 -0.1637  0.1403 -0.6648
    3MOL   H144  468   1.927   1.021   6.393 -1.8925  1.8459  0.0740
    3MOL   H145  469   1.937   0.867   6.318  0.4096  0.1391 -0.0738
    3MOL   C146  470   1.903   0.815   6.599  0.1645  0.2760 -0.1488
    3MOL   C147  471   1.819   0.760   6.724  0.2458 -0.6305 -0.0951
    3MOL   C148  472   1.911   0.745   6.843 -0.1375  0.7729 -0.3074
    3MOL   O149  473   2.020   0.803   6.851 -0.2019  0.1150  0.1196
    3MOL   H150  474   1.961   0.896   6.643 -0.4873  1.3381 -1.2037
    3MOL   H151  475   1.961   0.732   6.558 -0.1109 -0.0527  0.1211
    3MOL   H152  476   1.780   0.660   6.702 -1.3239 -0.1583  0.4795
    3MOL   H153  477   1.739   0.827   6.755 -0.3280 -0.2968 -2.2156
    3MOL   C154  478   1.849   0.677   6.968 -0.9919  0.5360  1.2342
    3MOL   C155  479   1.921   0.566   7.036  0.1038  0.4802 -1.2404
    3MOL   C156  480   1.917   0.437   6.964 -0.5424 -0.2829  0.6843
    3MOL   O157  481   1.913   0.430   6.841 -0.5785  0.2176  0.3053
    3MOL   H158  482   1.750   0.641   6.940  0.2859 -2.5795  0.4635
    3MOL   H159  483   1.834   0.762   7.035  0.7361 -0.0237  2.3656
    3MOL   H160  484   1.878   0.555   7.136  1.3109  1.4349 -0.6047
    3MOL   H161  485   2.018   0.613   7.051  0.4527 -0.7779  0.6302
    3MOL   H162  486   1.919   0.353   7.034 -1.2583  0.0910  1.1591
    4MOL     C1  487   6.688   0.063   4.445 -0.4095 -0.1833  0.8350
    4MOL     C2  488   6.566   7.852   4.394 -0.5472  0.1047 -0.7760
    4MOL     C3  489   6.537   0.018   4.252  0.1015  0.0874  0.1978
    4MOL     O4  490   6.630   0.042   4.176 -0.0624  0.0153 -0.4173
    4MOL     H5  491   6.691   0.050   4.553  2.7658 -0.8012  0.7193
    4MOL     H6  492   6.778   0.014   4.408 -0.9222  0.0005 -0.6976
    4MOL     H7  493   6.478   0.032   4.445  1.5335  1.9559  1.5728
    4MOL     H8  494   6.576   7.748   4.425 -3.5358 -0.0240 -0.0548
    4MOL     H9  495   6.687   0.170   4.427 -3.4999 -0.1728  0.7596
    4MOL    C10  496   6.398   7.854   4.200 -0.0936 -0.0855 -0.5618
    4MOL    C11  497   6.391   7.744   4.095  0.4050 -0.2917 -0.1341
    4MOL    C12  498   6.397   7.606   4.157  0.4332  0.5098  0.2825
    4MOL    O13  499   6.396   7.590   4.280 -0.2792 -0.1527 -0.1779
    4MOL    H14  500   6.374   0.091   4.154  3.4357  0.9339 -0.4391
    4MOL    H15  501   6.332   7.823   4.281 -0.6672  0.0228 -0.9841
    4MOL    H16  502   6.461   7.751   4.013 -0.5918  1.2252 -0.8829
    4MOL    H17  503   6.291   7.746   4.051 -0.6394  0.7045  2.1793
    4MOL    C18  504   6.370   7.481   4.068  0.2143 -0.2582 -0.4300
    4MOL    C19  505   6.428   7.352   4.124  0.1974 -0.2007  0.3698
    4MOL    C20  506   6.330   7.242   4.156 -0.4228 -0.6497  0.0263
    4MOL    O21  507   6.209   7.265   4.155 -0.3021 -0.5716  0.2269
    4MOL    H22  508   6.421   7.491   3.971  1.4785 -2.0679  0.0095
    4MOL    H23  509   6.264   7.482   4.044  0.6946 -0.9135 -2.7940
    4MOL    H24  510   6.474   7.361   4.223  0.2852  1.4068  0.1889
    4MOL    H25  511   6.503   7.312   4.056  0.8898  0.0991  0.9566
    4MOL    C26  512   6.389   7.101   4.194 -0.0769  0.3016 -0.5709
    4MOL    C27  513   6.285   6.997   4.251 -0.0710  0.1613  0.0596
    4MOL    C28  514   6.358   6.877   4.310 -0.0410  0.1538 -0.6197
    4MOL    O29  515   6.417   6.877   4.422 -0.1535  0.3217  0.6079
    4MOL    H30  516   6.462   7.111   4.274 -1.0719 -2.2896  0.6870
    4MOL    H31  517   6.445   7.056   4.112 -0.3235  0.9944 -1.1279
    4MOL    H32  518   6.232   6.943   4.172  2.2656  0.8708 -2.0695
    4MOL    H33  519   6.220   7.038   4.328 -0.3618  0.0319 -0.1186
    4MOL    C34  520   6.361   6.748   4.225  0.3119 -0.4743  0.7139
    4MOL    C35  521   6.470   6.737   4.120  0.7170  0.2031  0.2819
    4MOL    C36  522   6.414   6.654   3.999  0.1416  0.9461 -0.3512
    4MOL    O37  523   6.319   6.583   4.019  0.5292 -0.2167  0.6545
    4MOL    H38  524   6.260   6.731   4.187  0.1904  0.6411  0.5330
    4MOL    H39  525   6.382   6.676   4.305  0.2848 -1.3270 -0.0387
    4MOL    H40  526   6.562   6.696   4.163  1.5479 -0.1140 -1.7282
    4MOL    H41  527   6.494   6.837   4.083  2.7894 -0.0240  0.9254
    4MOL    C42  528   6.487   6.663   3.864 -0.1632  0.2908 -0.0425
    4MOL    C43  529   6.444   6.539   3.783 -0.3652 -0.1608 -0.1781
    4MOL    C44  530   6.333   6.561   3.691 -0.3232 -0.6698  0.6885
    4MOL    O45  531   6.296   6.671   3.654 -0.3108  0.1461  0.1829
    4MOL    H46  532   6.593   6.645   3.887 -1.1138 -1.4775  3.3403
    4MOL    H47  533   6.465   6.758   3.816 -0.1538 -0.1629 -0.9474
    4MOL    H48  534   6.418   6.457   3.850 -0.6708  0.1937  0.1383
    4MOL    H49  535   6.528   6.506   3.721  0.2642  0.2513  0.4452
    4MOL    C50  536   6.259   6.438   3.624  0.8851 -0.3625 -0.2388
    4MOL    C51  537   6.190   6.468   3.489  0.6005  0.0563  0.3688
    4MOL    C52  538   6.051   6.521   3.513  0.0405 -0.8098 -0.3072
    4MOL    O53  539   5.965   6.447   3.559 -0.3492 -0.3625  0.2351
    4MOL    H54  540   6.179   6.393   3.683 -0.0059  1.9445  0.3496
    4MOL    H55  541   6.335   6.362   3.606 -0.7519 -1.8630 -0.9244
    4MOL    H56  542   6.192   6.387   3.416 -2.8458  0.8675 -0.7215
    4MOL    H57  543   6.248   6.545   3.438  0.2821 -1.1068 -1.8132
    4MOL    C58  544   6.035   6.666   3.471 -0.4330  0.9047 -0.8015
    4MOL    C59  545   5.904   6.734   3.503 -0.3277  0.3352  0.0669
    4MOL    C60  546   5.902   6.883   3.521  0.8115  0.4201 -0.9073
    4MOL    O61  547   6.004   6.952   3.533  0.4847  0.5825 -0.0505
    4MOL    H62  548   6.054   6.678   3.364  1.7235  0.3274 -0.5087
    4MOL    H63  549   6.111   6.728   3.519  0.5296 -1.1864  0.4360
    4MOL    H64  550   5.874   6.698   3.601 -0.4685  0.9610  0.2519
    4MOL    H65  551   5.824   6.703   3.436  0.2203  0.3656 -0.6067
    4MOL    C66  552   5.770   6.944   3.538  0.4006 -0.1420  0.9167
    4MOL    C67  553   5.767   7.094   3.578  0.4738 -0.0887  0.1477
    4MOL    C68  554   5.765   7.197   3.470  0.1603  0.1586 -0.1835
    4MOL    O69  555   5.762   7.172   3.351 -0.4268 -0.4485  0.3153
    4MOL    H70  556   5.700   6.890   3.601  1.1636  0.1008  1.9780
    4MOL    H71  557   5.726   6.933   3.438  0.2061  1.2332  0.8472
    4MOL    H72  558   5.848   7.119   3.646  0.6237 -1.6360  0.5691
    4MOL    H73  559   5.675   7.102   3.636  0.2050 -1.2858 -0.1023
    4MOL    C74  560   5.768   7.342   3.511 -0.0044  0.3984 -0.2157
    4MOL    C75  561   5.801   7.446   3.408  0.2440 -0.2701  0.0623
    4MOL    C76  562   5.950   7.447   3.384 -0.2383  0.7481 -0.2972
    4MOL    O77  563   6.022   7.367   3.443 -0.0121  0.0615  0.3454
    4MOL    H78  564   5.846   7.349   3.587  1.2137 -1.2999 -1.2692
    4MOL    H79  565   5.671   7.374   3.549  0.7991  0.2914  2.0394
    4MOL    H80  566   5.776   7.548   3.437 -0.0659 -0.0096 -1.0849
    4MOL    H81  567   5.742   7.418   3.321 -0.0795  0.9858 -0.1301
    4MOL    C82  568   6.001   7.562   3.291 -0.1046 -0.5506  0.7080
    4MOL    C83  569   6.013   7.513   3.152  0.9452  0.6313 -0.0810
    4MOL    C84  570   5.912   7.566   3.049  0.2448 -0.3979 -0.5096
    4MOL    O85  571   5.795   7.582   3.086 -0.0590  0.2774 -0.0756
    4MOL    H86  572   6.102   7.590   3.320 -0.0968  0.0964  0.0390
    4MOL    H87  573   5.935   7.648   3.299  0.0746 -0.2010 -1.3358
    4MOL    H88  574   6.016   7.405   3.144  3.2202  0.7098 -0.6450
    4MOL    H89  575   6.115   7.534   3.118  0.6463 -0.2116 -1.5267
    4MOL    C90  576   5.957   7.583   2.904  0.0801  0.5288  0.1561
    4MOL    C91  577   5.845   7.628   2.807  0.3488 -0.3719  0.5054
    4MOL    C92  578   5.850   7.569   2.660  0.1108  0.4567  0.6591
    4MOL    O93  579   5.950   7.509   2.625  0.0985 -0.2706 -0.7924
    4MOL    H94  580   5.993   7.489   2.864  0.0195 -0.7748  3.0337
    4MOL    H95  581   6.039   7.655   2.904  1.6921 -1.3015 -0.0300
    4MOL    H96  582   5.853   7.735   2.786  0.7026  0.0077  2.4430
    4MOL    H97  583   5.741   7.617   2.837  0.3966  0.7774  1.1192
    4MOL    C98  584   5.755   7.630   2.553  0.5190  0.8154 -0.3275
    4MOL    C99  585   5.843   7.698   2.445  0.5784  0.0222 -0.8571
    4MOL   C100  586   5.769   7.792   2.347 -0.3787 -0.4342  0.6766
    4MOL   O101  587   5.648   7.797   2.337  0.2299  0.3794 -0.2781
    4MOL   H102  588   5.681   7.693   2.603 -0.0504  0.2268 -0.4083
    4MOL   H103  589   5.687   7.548   2.526 -0.0954  0.7864  1.2597
    4MOL   H104  590   5.893   7.635   2.372  0.5320 -2.2432  1.0089
    4MOL   H105  591   5.919   7.757   2.496  2.6777 -1.7538 -1.8470
    4MOL   C106  592   5.859   7.852   2.237  0.2394  0.2593 -0.2233
    4MOL   C107  593   5.891   7.735   2.142  0.1009 -0.5480  0.1118
    4MOL   C108  594   5.938   7.782   2.002  0.1912  0.4412  0.6274
    4MOL   O109  595   5.919   0.036   1.969  0.2202 -0.4139 -0.4313
    4MOL   H110  596   5.951   0.034   2.281  1.1088 -0.1474 -1.6337
    4MOL   H111  597   5.813   0.072   2.178  2.2240  2.2080  0.7098
    4MOL   H112  598   5.800   7.677   2.126 -1.1344  1.8634 -2.0077
    4MOL   H113  599   5.970   7.668   2.176  0.6491  1.4013  2.7929
    4MOL   C114  600   6.023   7.687   1.919  0.2727 -0.0932  0.2279
    4MOL   C115  601   6.172   7.723   1.920 -0.3434 -0.1697 -0.6985
    4MOL   C116  602   6.264   7.619   1.863 -0.0371 -0.1178 -0.2609
    4MOL   O117  603   6.220   7.504   1.864 -0.3069  1.1593 -0.9803
    4MOL   H118  604   5.985   7.662   1.820 -1.7052 -0.2666  1.0199
    4MOL   H119  605   6.013   7.588   1.963  3.0322 -1.1566 -1.3945
    4MOL   H120  606   6.210   7.731   2.021  0.7500 -2.9339 -0.8743
    4MOL   H121  607   6.172   7.820   1.870  1.5706  0.3617  0.2951
    4MOL   C122  608   6.406   7.663   1.810  0.2709  0.6023 -0.6637
    4MOL   C123  609   6.461   7.577   1.694  0.1118 -0.3224 -0.5211
    4MOL   C124  610   6.598   7.517   1.729 -0.1686  0.0975 -0.1065
    4MOL   O125  611   6.628   7.492   1.845  0.0723  0.2638  0.6631
    4MOL   H126  612   6.476   7.660   1.893  2.0584 -1.6809 -2.2213
    4MOL   H127  613   6.402   7.762   1.764 -1.1827 -0.0120 -1.9250
    4MOL   H128  614   6.464   7.643   1.607  0.3774 -3.0806 -2.6807
    4MOL   H129  615   6.390   7.500   1.665  0.2191 -0.5066 -0.2969
    4MOL   C130  616   6.687   7.477   1.613 -0.4174  0.0947  0.0043
    4MOL   C131  617   6.833   7.478   1.669 -0.0017 -0.2358  0.8195
    4MOL   C132  618   6.909   7.346   1.653 -0.1526  0.0321  0.2096
    4MOL   O133  619   6.853   7.243   1.662 -0.7181  0.2629  0.4405
    4MOL   H134  620   6.674   7.551   1.535 -2.5717  0.7457  0.9508
    4MOL   H135  621   6.643   7.380   1.587  0.4044 -0.3269  0.1647
    4MOL   H136  622   6.839   7.485   1.778 -0.1363  0.5974  0.7764
    4MOL   H137  623   6.890   7.553   1.616 -1.9544  0.9965  0.4157
    4MOL   C138  624   7.060   7.335   1.642  0.6647 -0.1131 -0.2449
    4MOL   C139  625   7.117   7.193   1.627 -0.1556 -0.2281 -0.7848
    4MOL   C140  626   7.088   7.127   1.496 -0.3764  0.0086  0.6570
    4MOL   O141  627   7.102   7.187   1.392  0.2235 -0.5316  0.2917
    4MOL   H142  628   7.110   7.383   1.727  0.5806 -0.8341  0.2168
    4MOL   H143  629   7.081   7.394   1.553  0.1054 -3.0119 -2.3759
    4MOL   H144  630   7.096   7.120   1.705  1.5821  0.1037 -0.0025
    4MOL   H145  631   7.225   7.198   1.622 -0.1270 -1.1716 -1.2623
    4MOL   C146  632   7.043   6.979   1.495 -0.3356  0.2884  0.4617
    4MOL   C147  633   7.063   6.908   1.365 -0.1566 -0.4529 -0.0845
    4MOL   C148  634   7.085   6.754   1.365  0.5293 -0.0693 -0.2790
    4MOL   O149  635   7.041   6.684   1.458  0.5874 -0.0138  0.6401
    4MOL   H150  636   6.936   6.971   1.516 -0.4395  1.7051  0.5241
    4MOL   H151  637   7.105   6.921   1.564 -0.0360  0.9975  0.7899
    4MOL   H152  638   7.154   6.939   1.315 -0.0593  0.1144  0.4421
    4MOL   H153  639   6.973   6.924   1.305  1.2239  1.8243 -1.5872
    4MOL   C154  640   7.158   6.705   1.239  0.7634  0.0104  0.4279
    4MOL   C155  641   7.204   6.556   1.245 -0.3686  0.2427 -0.2268
    4MOL   C156  642   7.338   6.535   1.175  0.2849  0.4685 -0.2355
    4MOL   O157  643   7.352   6.565   1.056 -0.8093 -0.6791  0.8296
    4MOL   H158  644   7.242   6.769   1.213 -1.1775  2.6809  0.5397
    4MOL   H159  645   7.084   6.706   1.159  1.2388 -1.8800 -0.0668
    4MOL   H160  646   7.135   6.485   1.199 -1.5661  0.9751  0.3829
    4MOL   H161  647   7.209   6.525   1.349  2.4887 -0.2098 -0.4683
    4MOL   H162  648   7.424   6.495   1.230  0.0876 -1.5673 -1.3675
    5MOL     C1  649   0.180   1.856   2.211  0.9528  0.6023 -0.0457
    5MOL     C2  650   0.156   1.924   2.343  0.1009  0.2082  0.4006
    5MOL     C3  651   0.040   1.874   2.424  0.3278 -0.0340  0.2110
    5MOL     O4  652   7.845   1.768   2.392 -0.4736 -0.5938 -0.0038
    5MOL     H5  653   0.279   1.880   2.172  0.7823  2.7742  0.7687
    5MOL     H6  654   0.166   1.749   2.220 -1.6227  0.7277 -1.9166
    5MOL     H7  655   0.137   2.029   2.319  1.0603  0.8764  2.4385
    5MOL     H8  656   0.240   1.907   2.410  0.0949 -0.4945  0.2390
    5MOL     H9  657   0.105   1.889   2.139 -0.0150  0.7555  1.0137
    5MOL    C10  658   7.853   1.955   2.548  0.3917  0.4771 -0.3798
    5MOL    C11  659   7.764   1.864   2.636 -0.1167  0.4160 -0.2534
    5MOL    C12  660   7.793   1.892   2.780  0.0866  0.2646  0.1219
    5MOL    O13  661   0.035   1.848   2.831 -0.2894  0.1729  0.1551
    5MOL    H14  662   7.794   2.037   2.507 -2.4150 -0.8805  0.7792
    5MOL    H15  663   0.080   1.986   2.607  1.2205 -1.3380 -0.5838
    5MOL    H16  664   7.791   1.759   2.622 -2.2642  0.0172 -1.7642
    5MOL    H17  665   7.658   1.878   2.611  0.5064  1.0899 -2.6318
    5MOL    C18  666   7.689   1.972   2.860  0.2952 -0.2339  0.6554
    5MOL    C19  667   7.756   2.070   2.957  0.6424  0.4382  0.1227
    5MOL    C20  668   7.819   2.191   2.893 -0.4061 -0.4495  0.2837
    5MOL    O21  669   7.797   2.226   2.776  0.7322 -0.0511 -0.3189
    5MOL    H22  670   7.625   1.904   2.916  0.4616 -1.0753 -0.1643
    5MOL    H23  671   7.628   2.028   2.789  0.6748 -1.7884 -0.9308
    5MOL    H24  672   7.833   2.016   3.013  2.4941 -0.2115 -2.8676
    5MOL    H25  673   7.684   2.111   3.027 -1.5450 -3.6071  0.3843
    5MOL    C26  674   0.063   2.264   2.984  0.5447  0.1034 -0.5176
    5MOL    C27  675   0.011   2.403   3.024 -0.1829  0.0888 -0.2327
    5MOL    C28  676   7.843   2.419   3.173 -0.6881 -0.7303  0.3595
    5MOL    O29  677   7.752   2.355   3.224  0.5294 -0.1376 -0.1333
    5MOL    H30  678   0.157   2.282   2.933 -0.8365 -1.8548 -3.8867
    5MOL    H31  679   0.080   2.190   3.063 -2.3361 -1.2478 -1.0676
    5MOL    H32  680   7.776   2.430   2.975 -0.0884  0.4862 -0.1979
    5MOL    H33  681   0.078   2.479   2.986  2.2630 -2.8776 -2.0845
    5MOL    C34  682   0.082   2.498   3.260 -0.6332  0.7150 -0.2414
    5MOL    C35  683   0.019   2.621   3.320 -0.4171  0.2099 -0.4471
    5MOL    C36  684   7.774   2.582   3.421 -0.4790  0.5269 -0.3229
    5MOL    O37  685   7.799   2.499   3.516  0.0505  0.8576 -0.6415
    5MOL    H38  686   0.185   2.515   3.231  0.1665 -0.3281  1.9022
    5MOL    H39  687   0.104   2.433   3.344  3.2837  0.3067 -1.5131
    5MOL    H40  688   7.842   2.701   3.255  1.2052  1.2978 -0.0472
    5MOL    H41  689   0.099   2.679   3.368  0.8906 -1.0539 -1.0471
    5MOL    C42  690   7.634   2.651   3.399 -0.5732 -0.3622  0.6612
    5MOL    C43  691   7.531   2.539   3.396 -0.1816  0.2085  0.0165
    5MOL    C44  692   7.474   2.524   3.539 -0.1975 -0.1606  0.1501
    5MOL    O45  693   7.455   2.622   3.616 -0.4179  0.0782  0.1819
    5MOL    H46  694   7.623   2.703   3.304 -0.5452 -1.2760  0.1521
    5MOL    H47  695   7.610   2.718   3.481 -2.0421  0.3672 -0.3483
    5MOL    H48  696   7.557   2.454   3.333  0.6238  1.0300 -0.7847
    5MOL    H49  697   7.458   2.582   3.327  0.5301 -0.8272 -1.4214
    5MOL    C50  698   7.443   2.378   3.589  0.4520 -1.3478 -0.2308
    5MOL    C51  699   7.440   2.367   3.744  0.3767  0.2606 -0.5316
    5MOL    C52  700   7.306   2.405   3.803 -0.6485  0.2976 -0.2586
    5MOL    O53  701   7.214   2.328   3.791  0.0133  0.4419  0.8600
    5MOL    H54  702   7.526   2.321   3.546  1.4634  0.0298 -0.1334
    5MOL    H55  703   7.354   2.342   3.539 -0.0185 -0.7590  0.1784
    5MOL    H56  704   7.510   2.439   3.787  0.2107  0.2331 -0.2174
    5MOL    H57  705   7.486   2.272   3.770  0.2659  0.0600 -1.0762
    5MOL    C58  706   7.295   2.537   3.876 -0.3104 -0.0345  0.0142
    5MOL    C59  707   7.171   2.548   3.959  0.4349 -0.2755 -0.1936
    5MOL    C60  708   7.097   2.681   3.953  0.5152 -0.2309  0.3049
    5MOL    O61  709   7.150   2.795   3.955  0.3034  0.3767  0.2031
    5MOL    H62  710   7.309   2.620   3.807 -0.9450  1.8690  2.1144
    5MOL    H63  711   7.376   2.538   3.948  0.5717 -2.5235 -0.8758
    5MOL    H64  712   7.183   2.537   4.066 -0.7331  2.3817  0.2372
    5MOL    H65  713   7.100   2.473   3.925 -0.3412  1.1695 -1.8979
    5MOL    C66  714   6.944   2.678   3.954  0.2793  0.2763  0.0964
    5MOL    C67  715   6.879   2.803   4.008  0.4976  0.4062 -0.4837
    5MOL    C68  716   6.849   2.907   3.897 -0.2582  0.1761  0.7146
    5MOL    O69  717   6.812   2.865   3.784  0.1099  0.2153  0.2930
    5MOL    H70  718   6.910   2.595   4.016 -1.4957  0.3153 -0.8135
    5MOL    H71  719   6.921   2.655   3.850  1.6110  0.7983 -0.3225
    5MOL    H72  720   6.931   2.836   4.098  1.5624  1.0158 -1.3184
    5MOL    H73  721   6.777   2.778   4.037  0.7444  0.7415  0.6929
    5MOL    C74  722   6.888   3.043   3.930  0.7175 -0.6502 -0.8456
    5MOL    C75  723   6.895   3.145   3.822 -0.1596  0.1867  0.2913
    5MOL    C76  724   7.032   3.199   3.803 -0.0601  0.5070  0.2738
    5MOL    O77  725   7.106   3.212   3.902 -0.7770 -0.9738 -0.2192
    5MOL    H78  726   6.981   3.033   3.986  0.5643  2.5847  0.1356
    5MOL    H79  727   6.824   3.080   4.010  0.9799 -3.1444  0.5595
    5MOL    H80  728   6.826   3.228   3.838  0.9368  1.9226 -3.1720
    5MOL    H81  729   6.861   3.106   3.726  1.1707  3.4595 -1.6157
    5MOL    C82  730   7.068   3.252   3.664  0.1049 -0.1087  0.2466
    5MOL    C83  731   7.177   3.358   3.658 -1.1046 -0.2099  0.1457
    5MOL    C84  732   7.128   3.495   3.700  0.1989  0.3173 -0.3870
    5MOL    O85  733   7.161   3.540   3.809 -0.0107  0.0907  0.0825
    5MOL    H86  734   6.977   3.292   3.618  0.9617  1.4787 -0.1136
    5MOL    H87  735   7.093   3.164   3.605 -2.8076 -0.5601 -0.3580
    5MOL    H88  736   7.225   3.352   3.560 -1.3388 -2.7436  0.1523
    5MOL    H89  737   7.259   3.331   3.724 -0.2728 -0.7242 -1.0781
    5MOL    C90  738   7.022   3.567   3.617 -0.3481  0.7341 -0.4686
    5MOL    C91  739   6.877   3.560   3.662  0.0102  0.0309  0.3032
    5MOL    C92  740   6.844   3.691   3.739  0.0341  0.1628 -0.2346
    5MOL    O93  741   6.775   3.787   3.697 -0.6252 -0.0458  0.5070
    5MOL    H94  742   7.027   3.525   3.516  2.8620 -0.3398  0.0936
    5MOL    H95  743   7.060   3.667   3.602  0.4577  0.4423 -0.3984
    5MOL    H96  744   6.853   3.470   3.719  0.7534 -0.6419 -0.4372
    5MOL    H97  745   6.815   3.540   3.574 -0.5893  0.0480  0.7151
    5MOL    C98  746   6.887   3.698   3.884  0.9460 -0.3457  0.3719
    5MOL    C99  747   6.965   3.828   3.920 -0.2044 -0.2312 -0.1603
    5MOL   C100  748   6.924   3.881   4.062 -0.2763  0.3349 -0.1087
    5MOL   O101  749   6.841   3.820   4.131 -0.1555 -0.2326 -0.1679
    5MOL   H102  750   6.935   3.604   3.910  1.4101 -0.0433  0.6231
    5MOL   H103  751   6.785   3.698   3.922  0.4106 -0.0116 -1.0064
    5MOL   H104  752   6.952   3.893   3.834 -0.5693 -0.7808 -0.5231
    5MOL   H105  753   7.072   3.805   3.918  0.4318  2.3149  1.0621
    5MOL   C106  754   6.976   4.018   4.100  0.1693  0.5781 -0.7536
    5MOL   C107  755   6.957   4.052   4.252 -0.4505  0.1305 -0.2377
    5MOL   C108  756   7.087   4.015   4.328 -0.0333  0.5816  1.1319
    5MOL   O109  757   7.144   3.907   4.311  0.0277  0.1045  0.9266
    5MOL   H110  758   6.922   4.094   4.044 -0.2740  0.8314 -0.0003
    5MOL   H111  759   7.077   4.019   4.060  0.5411 -4.2505 -0.2672
    5MOL   H112  760   6.871   4.004   4.297  0.3616  0.3878  1.6454
    5MOL   H113  761   6.937   4.158   4.266 -1.5562 -0.0330 -0.5668
    5MOL   C114  762   7.144   4.105   4.434  0.2562 -0.7228  0.1799
    5MOL   C115  763   7.294   4.076   4.476 -0.5191 -0.3156 -0.6710
    5MOL   C116  764   7.379   4.207   4.467 -0.2963  0.3433 -0.2299
    5MOL   O117  765   7.343   4.313   4.424 -0.2269  0.3044  0.0450
    5MOL   H118  766   7.078   4.087   4.519  3.5284 -2.3340  2.4517
    5MOL   H119  767   7.139   4.208   4.400 -0.9079 -1.3905 -1.7831
    5MOL   H120  768   7.330   4.008   4.398  0.5916  0.5483 -0.9315
    5MOL   H121  769   7.290   4.023   4.571  0.5659  0.2022 -0.3325
    5MOL   C122  770   7.517   4.185   4.527  0.0081  0.4465  0.2485
    5MOL   C123  771   7.592   4.319   4.572  0.0877 -0.0330 -0.0845
    5MOL   C124  772   7.725   4.299   4.645  0.2376  0.1176 -1.1191
    5MOL   O125  773   7.773   4.183   4.654  0.2441  0.2492  0.3091
    5MOL   H126  774   7.580   4.135   4.453  1.3960  1.8164  0.4970
    5MOL   H127  775   7.519   4.120   4.615 -3.4860 -1.5768 -1.0805
    5MOL   H128  776   7.531   4.391   4.625 -1.8824  0.3640 -2.7916
    5MOL   H129  777   7.627   4.373   4.484 -0.3456  1.1493  0.4627
    5MOL   C130  778   7.809   4.417   4.689  0.5267  0.1576  0.3917
    5MOL   C131  779   0.033   4.407   4.824  1.1603 -0.1185  0.7759
    5MOL   C132  780   7.832   4.518   4.913  0.2596 -0.6674 -0.0751
    5MOL   O133  781   7.854   4.632   4.878  0.0115 -0.3240  0.1523
    5MOL   H134  782   7.755   4.508   4.664 -1.5527 -0.9655  0.6610
    5MOL   H135  783   0.036   4.419   4.621 -0.1887  2.9449 -0.4752
    5MOL   H136  784   0.140   4.422   4.815  1.3391 -0.1542  2.7075
    5MOL   H137  785   0.019   4.308   4.867 -2.0993 -0.2685 -0.4960
    5MOL   C138  786   7.756   4.480   5.041 -0.3358  0.4432  0.4486
    5MOL   C139  787   7.606   4.500   5.025  0.2378  0.2684 -0.1202
    5MOL   C140  788   7.528   4.411   5.122 -0.4878  0.3945 -0.0419
    5MOL   O141  789   7.575   4.314   5.190  0.1257  0.0599  0.6892
    5MOL   H142  790   7.800   4.533   5.125  1.2246  0.8700 -0.6033
    5MOL   H143  791   7.776   4.372   5.044 -0.0761  0.5057  0.9813
    5MOL   H144  792   7.581   4.464   4.925 -0.3681  0.1194  0.0878
    5MOL   H145  793   7.583   4.606   5.033  2.2287  0.6504  1.0667
    5MOL   C146  794   7.373   4.449   5.135 -0.1503 -0.5304 -0.0752
    5MOL   C147  795   7.303   4.379   5.249  0.3026  0.7100 -0.2559
    5MOL   C148  796   7.167   4.436   5.274 -0.7557  0.2160  0.1298
    5MOL   O149  797   7.141   4.494   5.375 -0.2245  0.0578  0.1489
    5MOL   H150  798   7.322   4.426   5.042  2.4360  0.5284 -1.8132
    5MOL   H151  799   7.369   4.557   5.149  0.4264 -0.3994 -0.9453
    5MOL   H152  800   7.356   4.403   5.341 -0.5935 -1.5909  0.8852
    5MOL   H153  801   7.308   4.271   5.237 -0.7951  0.5827  0.3301
    5MOL   C154  802   7.054   4.394   5.183  0.3063 -0.2777  0.3181
    5MOL   C155  803   6.921   4.354   5.260 -1.0290  0.0575  0.7296
    5MOL   C156  804   6.914   4.215   5.322 -0.1049  0.3814 -0.2239
    5MOL   O157  805   6.919   4.111   5.258 -0.2381  0.3795 -0.2060
    5MOL   H158  806   7.079   4.322   5.105  0.5790  1.1836 -0.9677
    5MOL   H159  807   7.024   4.480   5.123  0.6674 -0.5135 -0.2059
    5MOL   H160  808   6.836   4.369   5.193  1.4884 -2.3178 -3.2018
    5MOL   H161  809   6.903   4.430   5.335 -2.3163  1.0656 -0.5673
    5MOL   H162  810   6.896   4.218   5.430 -1.2810 -1.1285 -0.3614
    6MOL     C1  811   2.723   4.240   5.036 -0.4967  0.0012  0.2962
    6MOL     C2  812   2.822   4.176   5.134  0.1627 -0.1404  0.2876
    6MOL     C3  813   2.864   4.266   5.252  0.2548  0.0020  0.1341
    6MOL     O4  814   2.807   4.373   5.277  0.1505 -0.3754  0.5452
    6MOL     H5  815   2.623   4.244   5.081  0.1180  0.2089  1.6515
    6MOL     H6  816   2.756   4.342   5.018  1.4588 -0.7676 -0.5659
    6MOL     H7  817   2.910   4.148   5.076 -1.3143 -1.3976 -1.3991
    6MOL     H8  818   2.769   4.092   5.179  3.8106 -3.4029 -1.1792
    6MOL     H9  819   2.720   4.193   4.938  1.2604  1.6622 -0.5834
    6MOL    C10  820   2.970   4.207   5.340  0.5776  0.2281 -0.0099
    6MOL    C11  821   2.979   4.280   5.469  0.1428 -0.0723 -0.1569
    6MOL    C12  822   3.123   4.337   5.485  0.4918  0.1126  0.1932
    6MOL    O13  823   3.174   4.411   5.398  0.1335 -0.1435 -0.3891
    6MOL    H14  824   3.063   4.223   5.286 -0.0773  2.4097 -0.5097
    6MOL    H15  825   2.962   4.101   5.364 -0.9632  0.5421  0.9309
    6MOL    H16  826   2.952   4.211   5.549  2.5803 -0.7896  0.0656
    6MOL    H17  827   2.918   4.371   5.468 -0.6355 -0.5897 -1.4329
    6MOL    C18  828   3.192   4.305   5.620  0.3885 -0.5021 -0.0811
    6MOL    C19  829   3.315   4.387   5.642  0.0302 -0.3583 -0.4192
    6MOL    C20  830   3.426   4.298   5.707 -0.6358  0.1167  0.5786
    6MOL    O21  831   3.438   4.176   5.695  0.0277  0.1720  0.5596
    6MOL    H22  832   3.200   4.197   5.612 -1.3280 -0.6250 -0.3842
    6MOL    H23  833   3.122   4.314   5.703  0.0343  0.0957 -0.4370
    6MOL    H24  834   3.291   4.474   5.703 -2.0212 -2.3937  1.7378
    6MOL    H25  835   3.368   4.419   5.552  2.0728  0.6249  1.0914
    6MOL    C26  836   3.526   4.381   5.782  0.3479 -0.0312  0.1864
    6MOL    C27  837   3.654   4.293   5.826 -0.3829 -0.6790  0.4244
    6MOL    C28  838   3.656   4.255   5.977  0.2633 -0.1075  0.1381
    6MOL    O29  839   3.560   4.280   6.049 -0.0003  0.3685 -0.1749
    6MOL    H30  840   3.486   4.442   5.864  0.1395  2.0120 -1.3782
    6MOL    H31  841   3.564   4.466   5.726 -0.6418 -1.3672 -2.5762
    6MOL    H32  842   3.744   4.349   5.801 -0.7834 -0.5500 -0.7286
    6MOL    H33  843   3.663   4.204   5.764  0.6704  0.5704 -1.2476
    6MOL    C34  844   3.783   4.198   6.023 -0.2906 -0.4584 -0.6250
    6MOL    C35  845   3.767   4.093   6.141 -0.1590 -0.5391  0.4184
    6MOL    C36  846   3.805   4.152   6.275  0.3022  0.2042 -0.5521
    6MOL    O37  847   3.923   4.144   6.312 -0.1913  0.5234 -0.7561
    6MOL    H38  848   3.837   4.282   6.065 -0.6065 -0.3902 -0.3473
    6MOL    H39  849   3.842   4.156   5.942  0.0279  2.1638 -1.7779
    6MOL    H40  850   3.846   4.021   6.121  2.4695  2.8848 -2.1367
    6MOL    H41  851   3.664   4.056   6.144  0.0043 -0.9923  0.5370
    6MOL    C42  852   3.697   4.236   6.344  0.0353 -0.1279  0.3482
    6MOL    C43  853   3.732   4.285   6.485  0.1702 -0.3791 -0.0819
    6MOL    C44  854   3.818   4.414   6.484  0.8400  0.5329  0.3747
    6MOL    O45  855   3.800   4.506   6.401  0.4319  0.1039 -0.2129
    6MOL    H46  856   3.605   4.181   6.365  0.6688 -1.3791 -0.1834
    6MOL    H47  857   3.663   4.321   6.285  0.2613 -0.4323 -0.2170
    6MOL    H48  858   3.775   4.204   6.544  1.8767  0.7257  0.2215
    6MOL    H49  859   3.635   4.316   6.525 -0.6632 -2.7941 -0.1273
    6MOL    C50  860   3.921   4.423   6.598 -0.7734 -0.4373  0.7924
    6MOL    C51  861   3.966   4.565   6.621  0.7102 -0.1349  0.1077
    6MOL    C52  862   3.888   4.639   6.731 -0.0219  0.0924 -0.1405
    6MOL    O53  863   3.860   4.590   6.840 -0.0761  0.7731  1.0991
    6MOL    H54  864   3.999   4.350   6.577 -0.5496  0.0519 -0.0648
    6MOL    H55  865   3.883   4.375   6.689  0.1189 -0.1845  1.3070
    6MOL    H56  866   3.960   4.624   6.530  0.7607 -0.8238 -0.3490
    6MOL    H57  867   4.070   4.572   6.654  0.2303 -0.4414  1.7249
    6MOL    C58  868   3.839   4.777   6.697  0.7651  0.3970  0.6319
    6MOL    C59  869   3.688   4.764   6.667 -0.3932  0.1170 -0.1262
    6MOL    C60  870   3.638   4.879   6.581 -0.2272  0.3623 -0.3886
    6MOL    O61  871   3.718   4.956   6.528  0.6288 -0.3687  0.1916
    6MOL    H62  872   3.894   4.813   6.610  1.2523 -2.3812 -0.2702
    6MOL    H63  873   3.845   4.854   6.774  0.4007  0.0958  0.9669
    6MOL    H64  874   3.652   4.778   6.769 -0.2715 -3.0481  0.4143
    6MOL    H65  875   3.662   4.664   6.631 -2.2896  0.7123 -0.4596
    6MOL    C66  876   3.488   4.876   6.533  0.0441 -0.3978  0.3034
    6MOL    C67  877   3.442   4.975   6.423 -0.1239  0.0448  0.2008
    6MOL    C68  878   3.393   5.103   6.496  0.4373 -0.3763  0.9747
    6MOL    O69  879   3.409   5.127   6.613  0.4854  0.2807  0.5079
    6MOL    H70  880   3.428   4.887   6.623 -2.0651  0.8904 -1.2271
    6MOL    H71  881   3.462   4.774   6.503  1.5830 -0.7522  0.0963
    6MOL    H72  882   3.359   4.921   6.377  1.0380 -1.2189 -0.4658
    6MOL    H73  883   3.526   4.993   6.357 -0.0870 -0.7047  0.0361
    6MOL    C74  884   3.317   5.199   6.406 -0.2610 -0.1832  0.9013
    6MOL    C75  885   3.226   5.303   6.482  0.4108 -0.1160  0.4101
    6MOL    C76  886   3.074   5.273   6.463  0.1143  0.0199 -0.2414
    6MOL    O77  887   3.030   5.195   6.378 -0.3879  0.1926 -0.3245
    6MOL    H78  888   3.257   5.144   6.334 -0.3149  1.7016 -0.5271
    6MOL    H79  889   3.391   5.241   6.338  0.8101 -4.1615 -0.5510
    6MOL    H80  890   3.248   5.402   6.442  0.5489 -0.2162  0.2372
    6MOL    H81  891   3.251   5.308   6.588  0.3792 -0.0870  0.4162
    6MOL    C82  892   2.983   5.341   6.556  0.0601 -0.1915 -0.1414
    6MOL    C83  893   2.842   5.337   6.509 -0.1961  0.1424 -0.8957
    6MOL    C84  894   2.734   5.345   6.615  0.6807 -0.3289 -0.2454
    6MOL    O85  895   2.753   5.421   6.711 -0.5807  0.7244  0.4424
    6MOL    H86  896   3.012   5.446   6.558 -1.3408  0.2502 -1.7216
    6MOL    H87  897   2.993   5.319   6.662 -0.4088  1.5254  0.2702
    6MOL    H88  898   2.822   5.240   6.463  1.0381 -0.2142 -0.6873
    6MOL    H89  899   2.834   5.412   6.430 -0.2441  0.6893 -0.3745
    6MOL    C90  900   2.605   5.273   6.587 -0.5561  0.5954  0.2873
    6MOL    C91  901   2.516   5.255   6.716  0.5614  0.2514 -0.5081
    6MOL    C92  902   2.365   5.261   6.699 -0.0378  0.0804 -0.1660
    6MOL    O93  903   2.307   5.278   6.593  0.1326  0.6532 -0.3284
    6MOL    H94  904   2.646   5.177   6.558  1.4521  1.0759  1.4708
    6MOL    H95  905   2.549   5.330   6.513 -1.4570 -1.4983 -0.6831
    6MOL    H96  906   2.540   5.336   6.785 -0.5332 -0.0112  0.1905
    6MOL    H97  907   2.535   5.165   6.774 -0.2938 -1.0795 -2.2362
    6MOL    C98  908   2.283   5.248   6.832 -0.0697  0.5369  0.3641
    6MOL    C99  909   2.227   5.386   6.881 -0.5160  0.7191 -0.2895
    6MOL   C100  910   2.130   5.375   6.994 -1.1985  1.1306  0.0217
    6MOL   O101  911   2.024   5.434   6.986 -1.0452 -0.0434 -0.4639
    6MOL   H102  912   2.341   5.197   6.909 -0.3161 -0.9919 -0.4477
    6MOL   H103  913   2.192   5.192   6.810  0.5699 -0.4507  0.1951
    6MOL   H104  914   2.187   5.431   6.790 -1.3604 -1.2066 -0.9030
    6MOL   H105  915   2.308   5.448   6.920  0.8086 -0.4933 -1.0497
    6MOL   C106  916   2.167   5.293   7.115  0.1807  1.0597  0.0520
    6MOL   C107  917   2.058   5.292   7.231 -0.3393  0.0531  0.2797
    6MOL   C108  918   1.960   5.174   7.210 -0.3094  0.2267 -0.6191
    6MOL   O109  919   1.999   5.066   7.168  0.1678  0.4436  0.7888
    6MOL   H110  920   2.260   5.340   7.147  0.2207  1.7248 -1.0326
    6MOL   H111  921   2.178   5.189   7.084 -1.7243  0.0291  2.6566
    6MOL   H112  922   2.001   5.384   7.221 -0.0855  0.1410 -0.4385
    6MOL   H113  923   2.095   5.293   7.333 -0.4289  1.3268  0.3118
    6MOL   C114  924   1.820   5.198   7.272  0.8082 -0.0758  0.1486
    6MOL   C115  925   1.708   5.098   7.221 -0.1684 -0.0133 -0.3841
    6MOL   C116  926   1.675   4.984   7.321 -0.5682  0.3267  0.0295
    6MOL   O117  927   1.724   4.974   7.434 -0.1131 -0.0918  0.0964
    6MOL   H118  928   1.791   5.298   7.241 -0.8261 -0.5148  0.2389
    6MOL   H119  929   1.818   5.192   7.381  0.1593 -0.6999  0.1095
    6MOL   H120  930   1.744   5.042   7.134  0.8736 -0.5120  0.3482
    6MOL   H121  931   1.612   5.146   7.205 -0.6677 -0.9480 -0.2518
    6MOL   C122  932   1.584   4.871   7.263 -0.4440  1.0622  0.0657
    6MOL   C123  933   1.597   4.732   7.332  0.1305  0.6357 -0.6066
    6MOL   C124  934   1.462   4.683   7.384  0.3262 -0.0745  0.2689
    6MOL   O125  935   1.448   4.657   7.506  0.0694 -0.0732 -0.0548
    6MOL   H126  936   1.595   4.851   7.157  1.7835  2.9216 -0.0913
    6MOL   H127  937   1.483   4.904   7.290 -1.4147  0.4877 -2.7308
    6MOL   H128  938   1.664   4.741   7.417 -0.4831  0.4393 -0.0981
    6MOL   H129  939   1.630   4.646   7.274 -1.5740 -1.2095  1.0905
    6MOL   C130  940   1.350   4.690   7.283  0.3469  0.0180 -0.1024
    6MOL   C131  941   1.219   4.620   7.349  1.6634  0.0655  0.1272
    6MOL   C132  942   1.091   4.703   7.319  0.8008  0.5342  0.0834
    6MOL   O133  943   1.079   4.786   7.224 -0.7976  0.2479 -0.9165
    6MOL   H134  944   1.374   4.647   7.186  0.1328  2.4692 -1.2639
    6MOL   H135  945   1.318   4.792   7.267 -1.4136 -0.6549 -0.9284
    6MOL   H136  946   1.209   4.628   7.457  0.5087  0.2859  0.0045
    6MOL   H137  947   1.196   4.518   7.319 -0.6005  0.1907  1.3227
    6MOL   C138  948   0.990   4.675   7.430  0.7812  0.1865  0.0101
    6MOL   C139  949   0.853   4.743   7.408 -0.3042  0.0972 -0.0149
    6MOL   C140  950   0.764   4.664   7.312 -0.8478  0.0955 -0.4789
    6MOL   O141  951   0.788   4.551   7.282 -0.2973  0.0991 -0.5006
    6MOL   H142  952   1.011   4.712   7.530 -0.9334  0.0724  0.4398
    6MOL   H143  953   0.986   4.568   7.449  0.5267  0.2345  0.2272
    6MOL   H144  954   0.862   4.843   7.364 -0.5714 -0.0723 -0.4544
    6MOL   H145  955   0.805   4.743   7.505 -0.6478  2.6567 -0.1327
    6MOL   C146  956   0.650   4.745   7.253  0.0436  0.1257  0.2431
    6MOL   C147  957   0.573   4.681   7.134  0.0720  0.0395 -0.7205
    6MOL   C148  958   0.640   4.702   6.996  0.0483  0.0273 -0.1386
    6MOL   O149  959   0.574   4.745   6.898  0.0569  0.4438 -0.4729
    6MOL   H150  960   0.691   4.844   7.232 -1.6058  1.0363  1.2068
    6MOL   H151  961   0.577   4.771   7.329  0.1311 -1.8329  1.0376
    6MOL   H152  962   0.470   4.715   7.137  0.0574 -0.1638  1.2529
    6MOL   H153  963   0.563   4.573   7.144 -1.1459  0.1018 -1.2203
    6MOL   C154  964   0.796   4.677   6.980  0.6660  0.9201  0.4111
    6MOL   C155  965   0.841   4.736   6.843  0.3325 -0.0938 -0.0582
    6MOL   C156  966   0.892   4.877   6.848  0.4477 -0.4295  0.3373
    6MOL   O157  967   0.853   4.945   6.943 -0.4439 -0.4454  0.0921
    6MOL   H158  968   0.808   4.570   6.993 -1.2295  0.3656 -1.9982
    6MOL   H159  969   0.840   4.717   7.071  0.9211  3.3993 -0.7571
    6MOL   H160  970   0.766   4.733   6.764  2.4319  0.8558 -2.1405
    6MOL   H161  971   0.915   4.674   6.794  1.6440  1.2304  0.2006
    6MOL   H162  972   0.953   4.902   6.761  1.9158 -1.9242  0.9081
    7MOL     C1  973   7.295   3.546   7.331 -0.7710 -0.0506  0.1976
    7MOL     C2  974   7.337   3.678   7.261  0.0443  0.3280 -0.0464
    7MOL     C3  975   7.236   3.790   7.286  0.1679  0.1683  0.0576
    7MOL     O4  976   7.191   3.806   7.401 -0.0925  0.3907 -0.2277
    7MOL     H5  977   7.346   3.458   7.291 -0.1590  1.4334 -2.4517
    7MOL     H6  978   7.316   3.544   7.438  1.3162 -0.4885 -0.1908
    7MOL     H7  979   7.357   3.671   7.154 -0.2313  1.8703 -0.2062
    7MOL     H8  980   7.425   3.721   7.309  0.1325  0.5683 -0.4210
    7MOL     H9  981   7.190   3.519   7.321 -1.1262  0.9763  1.0514
    7MOL    C10  982   7.215   3.889   7.173  0.7896 -0.2869 -0.4014
    7MOL    C11  983   7.131   4.020   7.211 -0.0894  0.5167 -0.3036
    7MOL    C12  984   7.210   4.151   7.184 -0.3769 -0.3223  0.3389
    7MOL    O13  985   7.274   4.203   7.274  0.0920  0.5486 -0.1559
    7MOL    H14  986   7.163   3.827   7.100 -1.7005  1.1903  0.0703
    7MOL    H15  987   7.318   3.916   7.150  1.0707 -0.1709  0.9632
    7MOL    H16  988   7.102   4.021   7.316  1.5167 -0.8999  0.1845
    7MOL    H17  989   7.036   4.016   7.158 -1.2768  1.1124  1.7415
    7MOL    C18  990   7.204   4.213   7.044  0.0487 -0.2332  0.6515
    7MOL    C19  991   7.320   4.316   7.028  0.8115 -0.8442  0.2793
    7MOL    C20  992   7.458   4.264   6.986  0.5335 -0.5296  0.7915
    7MOL    O21  993   7.472   4.150   6.935  0.3835 -0.9307  0.5445
    7MOL    H22  994   7.102   4.249   7.026 -0.2094 -0.7398  1.0894
    7MOL    H23  995   7.211   4.128   6.977 -1.6977  0.1430 -0.0404
    7MOL    H24  996   7.320   4.378   7.118 -0.6439  0.9393 -0.8807
    7MOL    H25  997   7.294   4.390   6.952  1.6560 -0.0942  0.7120
    7MOL    C26  998   7.572   4.367   7.009  0.7488  0.2426  0.6385
    7MOL    C27  999   7.652   4.393   6.879  0.0589 -0.1216  0.3918
    7MOL    C28 1000   7.797   4.400   6.918 -0.0466  0.1475 -0.5424
    7MOL    O29 1001   0.004   4.504   6.917 -0.3322  0.3942 -0.4093
    7MOL    H30 1002   7.631   4.350   7.099 -1.0373 -1.5380  1.5014
    7MOL    H31 1003   7.519   4.459   7.032 -0.1067 -0.7049  2.6248
    7MOL    H32 1004   7.631   4.485   6.826  0.2809  0.1127  0.7104
    7MOL    H33 1005   7.628   4.319   6.802 -0.9550  0.5089  0.1105
    7MOL    C34 1006   0.004   4.261   6.941  0.7789 -0.6563  0.0977
    7MOL    C35 1007   0.143   4.276   7.011 -0.3630 -0.7292  0.5144
    7MOL    C36 1008   0.260   4.211   6.938 -0.8005 -0.2754 -0.2719
    7MOL    O37 1009   0.263   4.177   6.821  0.1634  0.1537 -0.4549
    7MOL    H38 1010   0.010   4.203   6.849 -0.4708  1.0813 -1.1038
    7MOL    H39 1011   7.796   4.206   7.007  1.4466  0.2473  1.5588
    7MOL    H40 1012   0.141   4.219   7.103 -0.9291 -0.7512  0.4913
    7MOL    H41 1013   0.166   4.378   7.042 -1.4031 -0.2294 -0.3336
    7MOL    C42 1014   0.383   4.188   7.031 -0.0765  0.5146  0.0904
    7MOL    C43 1015   0.518   4.173   6.954 -0.0503  0.2929 -0.6626
    7MOL    C44 1016   0.588   4.296   6.897  0.4695  0.4124 -0.1554
    7MOL    O45 1017   0.681   4.358   6.956 -0.4483  0.3437  0.4593
    7MOL    H46 1018   0.355   4.098   7.085 -1.5963 -0.4231 -2.1466
    7MOL    H47 1019   0.397   4.272   7.099 -0.2775  0.8806 -0.3172
    7MOL    H48 1020   0.505   4.092   6.883  0.6173 -0.3398 -0.0693
    7MOL    H49 1021   0.584   4.138   7.033 -0.5639 -0.1542 -0.4235
    7MOL    C50 1022   0.543   4.338   6.758 -0.3270 -0.4198  0.4258
    7MOL    C51 1023   0.606   4.461   6.698 -0.0460 -0.1521  0.3057
    7MOL    C52 1024   0.741   4.443   6.638  0.4971  0.9353 -0.0600
    7MOL    O53 1025   0.841   4.423   6.709  0.1562  0.4319  0.3147
    7MOL    H54 1026   0.437   4.362   6.756 -0.1783  0.1977 -2.0630
    7MOL    H55 1027   0.555   4.255   6.689  2.5845  0.6101 -0.3789
    7MOL    H56 1028   0.605   4.542   6.770 -2.0738 -0.0685  0.2325
    7MOL    H57 1029   0.537   4.483   6.616  2.2392  2.1530 -1.0810
    7MOL    C58 1030   0.753   4.415   6.488 -0.7994 -0.2870  0.0466
    7MOL    C59 1031   0.880   4.475   6.435  0.0760 -0.1627 -0.6342
    7MOL    C60 1032   0.854   4.609   6.374  0.7241 -0.2727 -0.0410
    7MOL    O61 1033   0.853   4.715   6.439 -0.3931  0.0198  1.1073
    7MOL    H62 1034   0.653   4.443   6.453 -0.8076  0.5550  0.6990
    7MOL    H63 1035   0.762   4.307   6.482  2.6439 -0.1478  1.4460
    7MOL    H64 1036   0.925   4.416   6.355 -0.7670 -0.9098 -0.5618
    7MOL    H65 1037   0.960   4.485   6.508 -0.3208 -2.0445  0.1006
    7MOL    C66 1038   0.816   4.614   6.225 -0.4725  0.8103 -0.3732
    7MOL    C67 1039   0.797   4.765   6.172  0.1674 -0.0741  0.7257
    7MOL    C68 1040   0.681   4.783   6.070 -0.2392  0.5120  0.3813
    7MOL    O69 1041   0.671   4.702   5.979  0.2226  0.4148 -0.3971
    7MOL    H70 1042   0.728   4.551   6.219  0.0439 -0.0946  1.3036
    7MOL    H71 1043   0.886   4.548   6.175 -1.9101 -1.4081  0.4743
    7MOL    H72 1044   0.886   4.800   6.120 -0.8828  1.1839 -0.2508
    7MOL    H73 1045   0.787   4.835   6.255 -0.4438 -0.1407  0.7102
    7MOL    C74 1046   0.605   4.911   6.071  0.0100 -0.3993 -1.0735
    7MOL    C75 1047   0.559   4.960   5.938 -0.0766  0.2852 -0.6746
    7MOL    C76 1048   0.568   5.111   5.908  0.1800 -0.3986  0.3421
    7MOL    O77 1049   0.601   5.185   5.996  0.3497 -0.1077 -0.4695
    7MOL    H78 1050   0.659   4.986   6.129  0.1558 -1.4097  0.0999
    7MOL    H79 1051   0.510   4.888   6.118  0.4716 -1.5156 -0.6726
    7MOL    H80 1052   0.456   4.927   5.925  0.3133 -0.3268 -2.3583
    7MOL    H81 1053   0.609   4.914   5.852  0.3671 -0.2296 -0.1451
    7MOL    C82 1054   0.548   5.144   5.758 -0.8987 -0.0032  0.3396
    7MOL    C83 1055   0.616   5.273   5.722  0.0047  0.1109  0.7021
    7MOL    C84 1056   0.590   5.303   5.573  0.0455  0.2954 -0.5343
    7MOL    O85 1057   0.480   5.318   5.533 -0.0758  0.4390  0.4911
    7MOL    H86 1058   0.443   5.148   5.728 -0.4092 -1.8205 -1.7900
    7MOL    H87 1059   0.586   5.062   5.696 -1.3003  1.1397 -1.4511
    7MOL    H88 1060   0.723   5.252   5.722 -0.1892 -0.9183  0.7120
    7MOL    H89 1061   0.593   5.355   5.790  1.0823 -0.1352  1.3897
    7MOL    C90 1062   0.715   5.299   5.483  0.7577 -0.0762  0.1472
    7MOL    C91 1063   0.692   5.349   5.336 -0.7737 -0.0606 -0.0245
    7MOL    C92 1064   0.647   5.496   5.310  0.2029  0.0634  0.5381
    7MOL    O93 1065   0.691   5.581   5.385  0.2957 -0.0810  0.4295
    7MOL    H94 1066   0.751   5.196   5.476  0.7584 -0.2305  2.0228
    7MOL    H95 1067   0.800   5.348   5.532  1.4370 -1.4744  0.3835
    7MOL    H96 1068   0.619   5.291   5.279  0.0684 -2.0975  0.9034
    7MOL    H97 1069   0.789   5.348   5.286  0.0757  0.8512  1.5654
    7MOL    C98 1070   0.540   5.524   5.208 -0.6735  0.2439 -0.3473
    7MOL    C99 1071   0.478   5.666   5.213 -0.0149 -0.1095 -0.0208
    7MOL   C100 1072   0.352   5.670   5.299  0.5013  0.2586  0.1000
    7MOL   O101 1073   0.351   5.606   5.399  0.1210 -0.1391 -0.2085
    7MOL   H102 1074   0.468   5.445   5.232  0.8957 -0.6688  1.4901
    7MOL   H103 1075   0.586   5.498   5.112 -0.5182  1.7103 -0.6793
    7MOL   H104 1076   0.450   5.712   5.119 -1.7168  0.0454  0.5417
    7MOL   H105 1077   0.552   5.724   5.267  0.6714 -1.3670  0.4267
    7MOL   C106 1078   0.229   5.753   5.247 -0.4831 -0.9415  0.3357
    7MOL   C107 1079   0.104   5.660   5.241 -0.3330 -0.4597  0.4204
    7MOL   C108 1080   0.007   5.698   5.352  0.2786  0.2154 -0.1367
    7MOL   O109 1081   7.755   5.758   5.327  0.3396 -0.2621  0.0032
    7MOL   H110 1082   0.256   5.806   5.156 -1.4315  1.0832  1.1825
    7MOL   H111 1083   0.218   5.839   5.314  0.9096 -0.0385 -0.5697
    7MOL   H112 1084   0.144   5.559   5.233 -0.4023 -0.4991  0.5824
    7MOL   H113 1085   0.053   5.668   5.145  2.6239 -0.5513 -1.2184
    7MOL   C114 1086   0.048   5.657   5.490  0.5471 -0.1064 -0.1482
    7MOL   C115 1087   0.037   5.508   5.512  0.3081  0.1678 -0.0462
    7MOL   C116 1088   0.056   5.465   5.653  0.8288 -0.4248 -0.1854
    7MOL   O117 1089   0.051   5.544   5.746 -0.4970 -0.8213 -0.0206
    7MOL   H118 1090   7.835   5.703   5.557 -3.0954 -1.9524 -2.5982
    7MOL   H119 1091   0.146   5.700   5.509  1.3139 -1.8492 -0.0373
    7MOL   H120 1092   0.113   5.459   5.452  1.1717 -1.5757  2.3885
    7MOL   H121 1093   7.794   5.481   5.483 -0.0311 -2.3808  3.2928
    7MOL   C122 1094   0.091   5.316   5.677 -0.8907 -1.0861 -0.4035
    7MOL   C123 1095   0.048   5.264   5.819 -0.3694  0.3643  0.1219
    7MOL   C124 1096   0.162   5.232   5.917 -0.6389  0.1612 -0.7132
    7MOL   O125 1097   0.237   5.139   5.891 -0.0975  0.1606 -0.1949
    7MOL   H126 1098   0.199   5.298   5.675 -0.9934 -1.6625 -0.6462
    7MOL   H127 1099   0.047   5.260   5.594  2.5442 -2.2047 -1.5706
    7MOL   H128 1100   7.844   5.175   5.813  1.4929 -1.0234  0.9141
    7MOL   H129 1101   7.824   5.322   5.862  2.2232  3.3303  1.3401
    7MOL   C130 1102   0.189   5.332   6.037  0.0907  0.1831  0.1923
    7MOL   C131 1103   0.326   5.333   6.095 -0.4000  0.1342  0.3604
    7MOL   C132 1104   0.336   5.291   6.241 -0.3727 -0.5490  0.0587
    7MOL   O133 1105   0.241   5.227   6.304 -0.5504 -0.7124 -0.1389
    7MOL   H134 1106   0.105   5.322   6.106 -1.2158  0.0624 -1.3664
    7MOL   H135 1107   0.170   5.432   5.998 -0.9308 -0.2285 -0.3973
    7MOL   H136 1108   0.368   5.434   6.093  0.8216 -0.3840 -1.7467
    7MOL   H137 1109   0.384   5.266   6.031  0.1866 -0.0319  1.0718
    7MOL   C138 1110   0.460   5.325   6.314  0.2955 -0.1201 -0.2033
    7MOL   C139 1111   0.439   5.316   6.469 -0.1067  0.2605 -0.5002
    7MOL   C140 1112   0.395   5.444   6.538  0.0171  1.4538  0.7274
    7MOL   O141 1113   0.356   5.540   6.479  0.1743  0.2492 -0.1132
    7MOL   H142 1114   0.516   5.417   6.295  0.4185  0.0971  1.1717
    7MOL   H143 1115   0.534   5.249   6.287 -0.8769 -2.6240  3.2978
    7MOL   H144 1116   0.539   5.293   6.504  0.2092  1.1931 -0.7752
    7MOL   H145 1117   0.375   5.235   6.506  0.7929  0.3582  1.3539
    7MOL   C146 1118   0.403   5.445   6.687  0.1933  0.2209  0.2244
    7MOL   C147 1119   0.452   5.584   6.743  0.1764 -0.3652  0.6832
    7MOL   C148 1120   0.542   5.593   6.868  0.1117 -0.5068 -0.0278
    7MOL   O149 1121   0.531   5.515   6.965 -0.6664  0.6380 -0.3283
    7MOL   H150 1122   0.474   5.375   6.731 -0.7249  0.7126  2.5017
    7MOL   H151 1123   0.310   5.419   6.735  0.0691  0.0033 -0.1328
    7MOL   H152 1124   0.369   5.654   6.752 -1.2521 -2.1629  1.8351
    7MOL   H153 1125   0.509   5.623   6.658  0.7608 -0.5581  0.9832
    7MOL   C154 1126   0.636   5.716   6.879  0.4331  0.1649  0.4473
    7MOL   C155 1127   0.735   5.721   7.005  0.6500  0.1927 -0.5853
    7MOL   C156 1128   0.875   5.766   6.984 -0.0485  0.1811  0.1366
    7MOL   O157 1129   0.908   5.827   6.884 -0.0009  0.0919 -0.0970
    7MOL   H158 1130   0.555   5.786   6.898  0.7130  0.2532  1.3556
    7MOL   H159 1131   0.681   5.746   6.785  1.4408  2.3402  1.5711
    7MOL   H160 1132   0.746   5.630   7.063  1.9220  1.2358  0.8423
    7MOL   H161 1133   0.692   5.784   7.083 -0.5930 -0.0111 -1.0873
    7MOL   H162 1134   0.943   5.749   7.068 -0.1999  0.6279  0.3525
    8MOL     C1 1135   1.638   1.288   4.182  0.3919  0.3789  0.2136
    8MOL     C2 1136   1.581   1.149   4.135  0.1021 -0.1644  0.1885
    8MOL     C3 1137   1.673   1.070   4.041 -0.2353  0.3815  0.6322
    8MOL     O4 1138   1.792   1.079   4.049 -0.3045 -0.0025 -0.0056
    8MOL     H5 1139   1.561   1.365   4.180  0.7441  0.7425  0.4489
    8MOL     H6 1140   1.686   1.288   4.280  0.7621  1.0025  0.0369
    8MOL     H7 1141   1.493   1.164   4.073 -0.0364 -0.6669  0.2594
    8MOL     H8 1142   1.562   1.073   4.212 -0.9886 -0.6911 -0.5884
    8MOL     H9 1143   1.711   1.327   4.111 -2.9966  3.2364 -1.8729
    8MOL    C10 1144   1.606   0.982   3.939 -0.9619  0.5907  0.2758
    8MOL    C11 1145   1.711   0.920   3.840 -0.4902 -0.0436 -0.7392
    8MOL    C12 1146   1.670   0.870   3.700  0.6818  0.4004 -0.0684
    8MOL    O13 1147   1.569   0.801   3.680  0.2144 -0.4201  0.2067
    8MOL    H14 1148   1.521   1.029   3.889 -0.6492 -0.2309 -1.0544
    8MOL    H15 1149   1.568   0.895   3.992 -0.8266  0.1997 -0.2669
    8MOL    H16 1150   1.759   0.832   3.883 -0.1582  0.6413  0.3035
    8MOL    H17 1151   1.787   0.997   3.831 -0.7949  0.2542 -0.7581
    8MOL    C18 1152   1.783   0.879   3.592 -0.4630  0.6734 -0.4033
    8MOL    C19 1153   1.728   0.938   3.462  0.9033 -0.2755 -0.6058
    8MOL    C20 1154   1.709   0.835   3.348  0.2115 -0.0195  0.1431
    8MOL    O21 1155   1.771   0.729   3.343 -0.2445 -0.6026 -0.2532
    8MOL    H22 1156   1.820   0.776   3.596 -1.5496  0.3177  0.7503
    8MOL    H23 1157   1.868   0.936   3.630 -2.9515  3.3287  1.4224
    8MOL    H24 1158   1.798   1.014   3.427 -0.0928  0.2630 -1.4538
    8MOL    H25 1159   1.632   0.989   3.467  2.1116  1.9731 -0.0971
    8MOL    C26 1160   1.623   0.878   3.229  0.3243  0.5746 -0.2328
    8MOL    C27 1161   1.716   0.932   3.111 -0.8199  0.3786 -0.0494
    8MOL    C28 1162   1.724   1.085   3.113 -0.0372  0.1290  1.0714
    8MOL    O29 1163   1.696   1.147   3.219  0.2255 -0.3629 -0.2891
    8MOL    H30 1164   1.562   0.959   3.269  0.6159  0.8825 -0.4127
    8MOL    H31 1165   1.557   0.797   3.197 -2.8407  2.8934  0.1019
    8MOL    H32 1166   1.680   0.903   3.012  1.1624  0.8519 -0.9368
    8MOL    H33 1167   1.823   0.913   3.121 -0.7845  0.6974  0.1679
    8MOL    C34 1168   1.767   1.166   2.983 -0.1637 -0.3087 -0.3430
    8MOL    C35 1169   1.809   1.312   3.020 -0.0318 -0.6416  0.3678
    8MOL    C36 1170   1.688   1.400   3.012  0.2189 -0.1463 -0.0065
    8MOL    O37 1171   1.630   1.416   2.897 -0.0859 -0.1866  0.1442
    8MOL    H38 1172   1.684   1.158   2.913 -0.6845  2.2582 -0.0772
    8MOL    H39 1173   1.859   1.131   2.936  0.7042 -0.0375  1.1163
    8MOL    H40 1174   1.896   1.349   2.966  1.6061 -2.8340  1.3924
    8MOL    H41 1175   1.841   1.323   3.124 -2.2883  1.9429  0.8469
    8MOL    C42 1176   1.634   1.468   3.141 -0.2757 -0.0041  0.5082
    8MOL    C43 1177   1.503   1.537   3.120 -0.4896 -0.2342 -0.5940
    8MOL    C44 1178   1.511   1.695   3.122 -0.1552  0.8225 -0.3295
    8MOL    O45 1179   1.615   1.757   3.125 -0.3070 -0.4782  0.4299
    8MOL    H46 1180   1.707   1.510   3.210 -1.5200  0.3657  1.6207
    8MOL    H47 1181   1.616   1.388   3.213 -2.3278  1.7696  2.0420
    8MOL    H48 1182   1.432   1.522   3.202  0.2686 -0.2597  0.0649
    8MOL    H49 1183   1.458   1.512   3.024 -1.8289 -1.7566  0.3930
    8MOL    C50 1184   1.384   1.772   3.094 -1.1718  0.7739  0.2207
    8MOL    C51 1185   1.407   1.891   3.004 -0.1856  0.0979  0.0364
    8MOL    C52 1186   1.300   1.899   2.896 -0.1354 -0.4805 -0.7057
    8MOL    O53 1187   1.214   1.812   2.885 -0.2562  0.1856  1.0231
    8MOL    H54 1188   1.343   1.796   3.192 -1.0969 -0.4519  0.5639
    8MOL    H55 1189   1.328   1.694   3.042 -0.9119  0.9419 -0.3089
    8MOL    H56 1190   1.495   1.886   2.940  0.0516 -1.0330  0.4305
    8MOL    H57 1191   1.415   1.989   3.051  1.5180  0.4119 -0.8474
    8MOL    C58 1192   1.318   2.011   2.793 -0.1735 -0.0277  0.5752
    8MOL    C59 1193   1.262   1.975   2.656 -0.8454 -0.4697 -0.5402
    8MOL    C60 1194   1.125   2.031   2.629  0.2448 -0.3869  0.4233
    8MOL    O61 1195   1.068   2.098   2.711 -0.2785  0.0650  0.3694
    8MOL    H62 1196   1.427   2.012   2.785 -0.2678  1.0330 -0.8804
    8MOL    H63 1197   1.289   2.110   2.829 -1.0194 -1.1284  3.0149
    8MOL    H64 1198   1.248   1.867   2.651 -0.5701 -0.5334 -0.0088
    8MOL    H65 1199   1.322   2.017   2.575 -0.5164 -2.3380 -1.2814
    8MOL    C66 1200   1.056   1.991   2.507 -0.9933 -0.1358  0.4430
    8MOL    C67 1201   0.975   1.867   2.517 -0.1798 -0.4371 -0.7335
    8MOL    C68 1202   0.965   1.797   2.380 -0.3298  0.0382 -0.5712
    8MOL    O69 1203   1.065   1.744   2.329 -0.0977 -0.1085 -0.0859
    8MOL    H70 1204   1.132   1.982   2.431 -0.8974  0.4534  0.4668
    8MOL    H71 1205   0.990   2.062   2.457 -1.0143 -0.9442 -0.7037
    8MOL    H72 1206   0.874   1.890   2.551  0.6433  0.1842  1.4169
    8MOL    H73 1207   1.011   1.785   2.580 -1.4264 -0.1519  0.3643
    8MOL    C74 1208   0.824   1.784   2.325  0.3168 -0.5010  0.0625
    8MOL    C75 1209   0.789   1.645   2.280  0.7530 -0.2376 -0.3970
    8MOL    C76 1210   0.650   1.621   2.243 -0.3476  0.1602  0.3611
    8MOL    O77 1211   0.554   1.688   2.285  0.1905  0.8551  0.0708
    8MOL    H78 1212   0.813   1.866   2.254 -0.6606 -2.2082 -1.8173
    8MOL    H79 1213   0.762   1.808   2.411  0.9681  0.5652  0.2408
    8MOL    H80 1214   0.829   1.568   2.347 -1.2696 -2.3897 -1.5802
    8MOL    H81 1215   0.850   1.651   2.189  2.4281  1.1541  0.7944
    8MOL    C82 1216   0.623   1.502   2.148  0.4566 -0.0948 -0.3272
    8MOL    C83 1217   0.477   1.487   2.100  0.0428  0.3753 -0.7492
    8MOL    C84 1218   0.401   1.413   2.213  0.1996  0.6513  0.5683
    8MOL    O85 1219   0.459   1.372   2.310  0.4457 -0.5227  0.3918
    8MOL    H86 1220   0.665   1.407   2.183  0.6376 -0.2991 -1.0785
    8MOL    H87 1221   0.694   1.525   2.068 -0.1502  1.2797 -0.4685
    8MOL    H88 1222   0.486   1.433   2.006  0.8437 -0.2048 -0.3458
    8MOL    H89 1223   0.427   1.583   2.086 -0.2875  0.5329  1.2872
    8MOL    C90 1224   0.251   1.393   2.193 -0.4938  0.4096  0.1549
    8MOL    C91 1225   0.204   1.244   2.191  0.6993  0.4308  0.0332
    8MOL    C92 1226   0.140   1.194   2.321 -0.1280  0.5935  0.1210
    8MOL    O93 1227   0.137   1.259   2.427 -0.1460  0.4802  0.0186
    8MOL    H94 1228   0.216   1.444   2.103  0.7597  1.5142  0.2885
    8MOL    H95 1229   0.203   1.445   2.275  2.1671  2.2010  0.6520
    8MOL    H96 1230   0.281   1.169   2.173 -0.5238 -0.6287 -0.9002
    8MOL    H97 1231   0.136   1.226   2.108  2.1890  0.2730 -1.1604
    8MOL    C98 1232   0.091   1.045   2.315 -0.2617 -0.2423  0.2182
    8MOL    C99 1233   7.815   1.007   2.368  0.3481  0.7771  0.3541
    8MOL   C100 1234   7.710   0.991   2.257 -0.0726  0.4538  0.3358
    8MOL   O101 1235   7.713   0.905   2.171 -0.2251 -0.0175 -0.5146
    8MOL   H102 1236   0.168   0.993   2.372  1.6072  1.4295 -0.7230
    8MOL   H103 1237   0.098   1.010   2.212 -0.0008  1.0956 -0.2288
    8MOL   H104 1238   7.780   1.079   2.441 -0.6102 -0.7264  1.4056
    8MOL   H105 1239   7.824   0.910   2.417  0.1317 -0.3221 -1.7360
    8MOL   C106 1240   7.595   1.090   2.250  0.3201  0.5423 -0.0264
    8MOL   C107 1241   7.525   1.100   2.109 -0.1506  0.2382 -0.7652
    8MOL   C108 1242   7.390   1.167   2.129  0.0794 -0.1090  0.1015
    8MOL   O109 1243   7.354   1.224   2.233 -0.2984  0.1731 -0.4410
    8MOL   H110 1244   7.615   1.192   2.282 -0.9542  0.8400 -0.1492
    8MOL   H111 1245   7.529   1.051   2.328 -0.3458  1.6089 -0.0438
    8MOL   H112 1246   7.490   1.009   2.061 -0.4704 -0.7237  1.2622
    8MOL   H113 1247   7.585   1.170   2.051  1.7661 -0.5021  0.2845
    8MOL   C114 1248   7.288   1.159   2.020  0.3120  0.0673  0.1625
    8MOL   C115 1249   7.202   1.033   2.016  0.1703  0.8316  0.2006
    8MOL   C116 1250   7.053   1.058   2.048  0.0900  0.4545 -0.1074
    8MOL   O117 1251   7.011   1.175   2.042  0.9925 -0.1317 -0.4977
    8MOL   H118 1252   7.354   1.150   1.933  0.1812  0.2963  0.0381
    8MOL   H119 1253   7.228   1.250   2.013  0.1603 -0.1563 -1.8431
    8MOL   H120 1254   7.236   0.949   2.077  0.2329 -0.6647 -1.8350
    8MOL   H121 1255   7.205   1.003   1.911  3.3707 -1.6079  0.9042
    8MOL   C122 1256   6.966   0.943   2.086 -0.3109 -0.7104  0.3410
    8MOL   C123 1257   6.913   0.954   2.231 -0.8221 -0.8143 -0.0893
    8MOL   C124 1258   6.761   0.946   2.249  0.8393 -0.0366 -0.1980
    8MOL   O125 1259   6.685   0.896   2.165 -0.7663  0.2892 -0.4489
    8MOL   H126 1260   7.029   0.855   2.071  0.5906 -0.3392  1.8823
    8MOL   H127 1261   6.896   0.944   2.003 -0.6036 -0.0844  0.5916
    8MOL   H128 1262   6.940   1.053   2.268 -0.7645 -0.7207 -0.3800
    8MOL   H129 1263   6.973   0.894   2.299 -0.5918 -0.7575 -0.2415
    8MOL   C130 1264   6.707   0.991   2.389  0.2395  0.2880  0.0745
    8MOL   C131 1265   6.558   1.036   2.371 -0.6713 -0.1337  0.2183
    8MOL   C132 1266   6.556   1.188   2.356  0.4444 -0.3776  0.5772
    8MOL   O133 1267   6.530   1.251   2.251 -0.0306  0.0742 -0.2176
    8MOL   H134 1268   6.777   1.062   2.434  0.7254  1.1865 -2.0119
    8MOL   H135 1269   6.718   0.905   2.455 -0.7884  0.1024  0.0156
    8MOL   H136 1270   6.491   1.011   2.454  0.6075 -1.9752  0.7099
    8MOL   H137 1271   6.506   0.996   2.284 -2.3644  2.3043  0.0344
    8MOL   C138 1272   6.587   1.265   2.478 -0.5461 -0.4683 -0.4530
    8MOL   C139 1273   6.675   1.392   2.461 -0.5470 -1.0751  0.1940
    8MOL   C140 1274   6.815   1.357   2.442 -0.9092  0.1383  0.1936
    8MOL   O141 1275   6.876   1.311   2.535 -0.6638 -0.2454 -0.2452
    8MOL   H142 1276   6.625   1.192   2.550 -1.9597 -0.5094  0.2714
    8MOL   H143 1277   6.491   1.296   2.519  1.0738  0.6696  2.6302
    8MOL   H144 1278   6.676   1.477   2.530  1.6385  0.3623 -1.5176
    8MOL   H145 1279   6.642   1.441   2.369 -1.0764 -1.4427  0.1848
    8MOL   C146 1280   6.877   1.358   2.300 -0.2536  0.0265 -0.6257
    8MOL   C147 1281   7.024   1.387   2.294 -0.0095 -0.1726  0.3761
    8MOL   C148 1282   7.046   1.541   2.294 -0.4040  0.1064  0.1695
    8MOL   O149 1283   6.951   1.614   2.311 -0.7056  0.1204 -0.3873
    8MOL   H150 1284   6.832   1.432   2.235 -0.0868  0.3514 -0.3725
    8MOL   H151 1285   6.850   1.260   2.260 -0.3197  0.9343 -2.8435
    8MOL   H152 1286   7.066   1.348   2.201 -0.8044  0.8696 -0.4308
    8MOL   H153 1287   7.086   1.346   2.373 -1.9545 -0.2935  1.8752
    8MOL   C154 1288   7.182   1.598   2.272 -0.5671 -0.3054  0.6062
    8MOL   C155 1289   7.194   1.662   2.136  0.2958  0.0177  0.8690
    8MOL   C156 1290   7.306   1.762   2.122 -1.0106  0.4176  0.4831
    8MOL   O157 1291   7.403   1.756   2.194  0.5554 -0.6001  0.1008
    8MOL   H158 1292   7.253   1.515   2.269  0.2771  0.3247  2.3649
    8MOL   H159 1293   7.214   1.658   2.357  0.6579 -0.4270  0.2291
    8MOL   H160 1294   7.106   1.720   2.108  0.3968 -1.2859 -2.2878
    8MOL   H161 1295   7.201   1.579   2.066  4.8223 -0.4072  1.6960
    8MOL   H162 1296   7.286   1.833   2.042  2.1294 -0.5054 -1.2161
    9MOL     C1 1297   1.228   5.082   5.047 -0.1764 -0.4277  0.0504
    9MOL     C2 1298   1.261   5.152   4.916  0.1072 -0.3263 -0.1065
    9MOL     C3 1299   1.291   5.062   4.796 -0.4560  0.3091  0.1366
    9MOL     O4 1300   1.348   4.952   4.817 -0.0087  0.0371  0.2162
    9MOL     H5 1301   1.167   4.994   5.023  0.4340 -0.6856 -0.5614
    9MOL     H6 1302   1.313   5.043   5.104 -1.1926 -1.8714  0.6329
    9MOL     H7 1303   1.340   5.226   4.932 -1.2229  1.0823  0.0123
    9MOL     H8 1304   1.177   5.212   4.882  0.6025  0.9131  0.8162
    9MOL     H9 1305   1.168   5.142   5.115  0.4377 -1.5597  1.6223
    9MOL    C10 1306   1.264   5.119   4.657  0.3425 -0.9028 -0.5657
    9MOL    C11 1307   1.312   5.014   4.551 -0.2331 -0.3728  0.5326
    9MOL    C12 1308   1.211   4.995   4.438  0.0330 -0.1353  0.2333
    9MOL    O13 1309   1.098   5.052   4.445  0.1193 -0.2381  0.5037
    9MOL    H14 1310   1.317   5.214   4.666  0.9329 -1.2627 -0.1721
    9MOL    H15 1311   1.159   5.149   4.651  0.6541  0.1846 -0.7963
    9MOL    H16 1312   1.313   4.915   4.597 -2.3772 -0.7137 -0.0655
    9MOL    H17 1313   1.410   5.033   4.509 -0.1356 -0.5678  0.6690
    9MOL    C18 1314   1.244   4.897   4.328 -0.0902 -0.2583 -0.1710
    9MOL    C19 1315   1.132   4.863   4.226 -0.0977  0.3893 -0.8693
    9MOL    C20 1316   1.112   4.986   4.134 -0.6299  0.1212  0.4911
    9MOL    O21 1317   1.180   5.088   4.145 -0.5379  0.2354 -0.1160
    9MOL    H22 1318   1.269   4.804   4.381 -2.5184 -0.1116  1.2669
    9MOL    H23 1319   1.337   4.940   4.290 -1.1044  1.0455 -1.1914
    9MOL    H24 1320   1.040   4.855   4.284  0.5232  1.9440  0.3716
    9MOL    H25 1321   1.150   4.775   4.164  1.3655 -1.2393  1.7728
    9MOL    C26 1322   1.000   4.974   4.022  0.2916  0.0774 -0.0413
    9MOL    C27 1323   0.881   5.061   4.057 -0.4269  0.2467 -0.0171
    9MOL    C28 1324   0.800   5.099   3.938  0.7863 -0.0149 -0.0016
    9MOL    O29 1325   0.751   5.015   3.870 -0.4915 -0.1645  0.4460
    9MOL    H30 1326   0.962   4.872   4.014 -0.3718  0.4347 -1.5392
    9MOL    H31 1327   1.050   4.999   3.929  2.5446 -2.9407  0.3012
    9MOL    H32 1328   0.914   5.153   4.106 -1.6182  0.9681 -0.5409
    9MOL    H33 1329   0.816   4.997   4.117 -0.8272  1.4227  0.8227
    9MOL    C34 1330   0.783   5.251   3.905  0.5645 -0.5886 -0.1761
    9MOL    C35 1331   0.804   5.282   3.751  0.2200 -0.4098 -0.0299
    9MOL    C36 1332   0.903   5.398   3.744 -0.0702  0.1123  0.1770
    9MOL    O37 1333   0.872   5.505   3.789 -0.0561 -0.1606  0.0399
    9MOL    H38 1334   0.858   5.302   3.965 -0.5986 -1.4578  2.0658
    9MOL    H39 1335   0.686   5.291   3.935 -1.3082 -3.3609 -2.3179
    9MOL    H40 1336   0.710   5.305   3.702  0.6096 -0.4757 -0.8101
    9MOL    H41 1337   0.837   5.189   3.705  1.8013  0.1344 -0.0289
    9MOL    C42 1338   1.044   5.370   3.676 -0.1081  0.3814  0.0490
    9MOL    C43 1339   1.131   5.311   3.783 -0.2270  0.2652  0.5481
    9MOL    C44 1340   1.240   5.210   3.730 -0.3884  0.0566  0.3302
    9MOL    O45 1341   1.250   5.171   3.615  0.1367  0.0978 -1.0048
    9MOL    H46 1342   1.086   5.464   3.641  1.2359  0.5136  1.8946
    9MOL    H47 1343   1.026   5.299   3.595 -0.5321  0.1493  0.3445
    9MOL    H48 1344   1.076   5.254   3.859  1.6842  1.3421  2.8147
    9MOL    H49 1345   1.175   5.389   3.846  0.6483  0.0591  0.1975
    9MOL    C50 1346   1.344   5.175   3.834 -0.4732 -0.1872 -0.4036
    9MOL    C51 1347   1.485   5.137   3.782 -0.1070  0.9551 -0.0094
    9MOL    C52 1348   1.585   5.253   3.767  0.1392 -0.7638 -0.0538
    9MOL    O53 1349   1.552   5.367   3.787  0.1615 -0.1392  0.2958
    9MOL    H54 1350   1.299   5.093   3.890 -0.5007 -0.3701 -0.6948
    9MOL    H55 1351   1.350   5.250   3.912 -2.6466 -0.6101  0.2160
    9MOL    H56 1352   1.476   5.097   3.681  1.9630  1.3572 -0.3665
    9MOL    H57 1353   1.518   5.060   3.852 -0.0382  1.5615  0.6378
    9MOL    C58 1354   1.736   5.225   3.741  0.3361 -0.6181 -0.5200
    9MOL    C59 1355   1.830   5.353   3.758  0.3058 -0.1472  0.2715
    9MOL    C60 1356   1.927   5.355   3.645 -0.1257  0.0325 -0.5322
    9MOL    O61 1357   1.992   5.257   3.617 -0.4396  0.2683 -0.0995
    9MOL    H62 1358   1.737   5.203   3.634 -1.3116 -0.9567 -0.4702
    9MOL    H63 1359   1.766   5.134   3.792 -2.3607 -0.2165  1.8811
    9MOL    H64 1360   1.881   5.345   3.854 -1.6999  2.1670  1.5847
    9MOL    H65 1361   1.781   5.450   3.760  0.7372  0.0625  0.5279
    9MOL    C66 1362   1.972   5.487   3.585  0.2815  0.0827 -0.1518
    9MOL    C67 1363   1.982   5.489   3.435 -0.4351  0.4516 -0.0242
    9MOL    C68 1364   1.846   5.473   3.357 -0.4081  0.2105  0.0897
    9MOL    O69 1365   1.738   5.471   3.416 -0.6597 -0.1183 -0.0223
    9MOL    H70 1366   2.072   5.510   3.622  1.3489 -0.5760 -2.5143
    9MOL    H71 1367   1.914   5.570   3.624  0.5581 -0.9452  2.5329
    9MOL    H72 1368   2.041   5.402   3.407  0.8420  0.9092  1.2072
    9MOL    H73 1369   2.029   5.582   3.402  1.7250 -0.8328 -0.5851
    9MOL    C74 1370   1.856   5.475   3.207  0.3319  0.6510 -0.3482
    9MOL    C75 1371   1.728   5.459   3.128 -0.7770  0.5366 -0.3222
    9MOL    C76 1372   1.677   5.590   3.065  0.2987  0.1557 -0.2430
    9MOL    O77 1373   1.695   5.698   3.114  0.1702  0.6561 -1.2014
    9MOL    H78 1374   1.910   5.386   3.173 -0.0662  0.2310  0.1117
    9MOL    H79 1375   1.919   5.554   3.166  0.5078  0.3135 -0.7461
    9MOL    H80 1376   1.651   5.403   3.180 -0.6380  0.1045 -0.5787
    9MOL    H81 1377   1.758   5.403   3.039 -0.6109  1.6152 -0.9579
    9MOL    C82 1378   1.600   5.574   2.935  0.8947 -0.1805  0.0795
    9MOL    C83 1379   1.507   5.691   2.899 -0.7138  0.1085 -0.3100
    9MOL    C84 1380   1.527   5.729   2.754 -0.2241 -0.4360 -0.2307
    9MOL    O85 1381   1.484   5.657   2.660 -0.4912  0.1019 -0.4365
    9MOL    H86 1382   1.540   5.483   2.938 -1.8078  1.5623  0.8286
    9MOL    H87 1383   1.663   5.565   2.846 -0.9743  1.5701 -1.4929
    9MOL    H88 1384   1.522   5.775   2.966  1.8450 -0.0456 -0.6423
    9MOL    H89 1385   1.401   5.670   2.907 -0.7571  0.9055  1.4218
    9MOL    C90 1386   1.586   5.869   2.718 -0.4612 -1.1610 -0.1642
    9MOL    C91 1387   1.682   5.856   2.598 -0.2600 -0.2336  0.0612
    9MOL    C92 1388   1.826   5.837   2.629 -0.0769 -0.3187 -0.2816
    9MOL    O93 1389   1.862   5.797   2.745 -0.0110 -0.2326 -0.3707
    9MOL    H94 1390   1.637   5.905   2.807 -2.8136  1.5181  0.1702
    9MOL    H95 1391   1.505   5.938   2.695 -0.5298 -1.7301 -1.7619
    9MOL    H96 1392   1.688   5.950   2.542 -1.8738  0.3335  0.8004
    9MOL    H97 1393   1.647   5.775   2.535 -0.3532 -1.1486  1.2785
    9MOL    C98 1394   1.926   5.846   2.509 -0.5175  0.5351  0.6410
    9MOL    C99 1395   2.071   5.846   2.553 -0.3964  0.0343 -0.2154
    9MOL   C100 1396   2.147   5.716   2.526 -0.2150 -0.0962 -0.1778
    9MOL   O101 1397   2.091   5.611   2.504  0.0425 -0.1176  0.3245
    9MOL   H102 1398   1.902   5.936   2.454  0.0687  0.5467  0.4082
    9MOL   H103 1399   1.896   5.762   2.446 -2.2494  1.9803 -0.5053
    9MOL   H104 1400   2.083   5.885   2.655  1.1266 -0.8742 -0.0271
    9MOL   H105 1401   2.114   5.927   2.495  2.9407 -1.2049  0.3801
    9MOL   C106 1402   2.294   5.729   2.548  0.3910 -0.1074  0.0584
    9MOL   C107 1403   2.363   5.599   2.502  0.2504  0.5683  0.0309
    9MOL   C108 1404   2.467   5.534   2.599  0.0249 -0.0778 -0.1239
    9MOL   O109 1405   2.531   5.599   2.678  0.8019 -0.7240 -0.4280
    9MOL   H110 1406   2.305   5.740   2.656 -0.0349 -0.3581  0.1295
    9MOL   H111 1407   2.332   5.820   2.501  3.1534 -1.9528 -1.4314
    9MOL   H112 1408   2.421   5.632   2.416  0.5017  1.1741  0.4297
    9MOL   H113 1409   2.296   5.520   2.466 -1.8284  2.4290 -0.3335
    9MOL   C114 1410   2.460   5.382   2.605 -0.8561 -0.1686  0.0210
    9MOL   C115 1411   2.542   5.316   2.714 -0.3526  0.1036 -0.1907
    9MOL   C116 1412   2.486   5.173   2.759 -0.4297 -0.5183 -0.2791
    9MOL   O117 1413   2.383   5.125   2.709  0.2704 -0.5238  0.0572
    9MOL   H118 1414   2.482   5.338   2.507  0.0339  0.9178 -0.2708
    9MOL   H119 1415   2.355   5.358   2.622 -0.6772 -1.3384 -0.4661
    9MOL   H120 1416   2.547   5.382   2.801  0.2524  0.7232 -0.6837
    9MOL   H121 1417   2.644   5.301   2.677 -0.8877 -0.9474 -1.2542
    9MOL   C122 1418   2.563   5.102   2.866 -0.7051 -0.8486 -0.1978
    9MOL   C123 1419   2.482   5.010   2.953  0.2026  0.3845 -0.6351
    9MOL   C124 1420   2.533   4.865   2.942  0.3961  0.2013 -0.2997
    9MOL   O125 1421   2.565   4.824   2.833 -0.0919  0.4957 -0.3032
    9MOL   H126 1422   2.609   5.178   2.928 -0.5740 -0.2603 -1.0157
    9MOL   H127 1423   2.646   5.051   2.817  1.0134  0.6206  1.1397
    9MOL   H128 1424   2.375   5.011   2.930 -0.8501 -0.4761  3.7111
    9MOL   H129 1425   2.488   5.037   3.058 -2.5291  0.5821 -0.5004
    9MOL   C130 1426   2.510   4.769   3.066 -0.5314  0.6212 -0.0974
    9MOL   C131 1427   2.505   4.620   3.024  0.0866  0.2942 -0.6240
    9MOL   C132 1428   2.630   4.542   3.061 -0.0937  0.7838  0.8110
    9MOL   O133 1429   2.741   4.573   3.020 -0.0039  0.1370  0.4272
    9MOL   H134 1430   2.414   4.790   3.113 -1.6892 -1.7633 -1.2873
    9MOL   H135 1431   2.589   4.791   3.137 -1.5231 -1.0312  1.5587
    9MOL   H136 1432   2.492   4.615   2.916  0.4393  3.5720 -0.8731
    9MOL   H137 1433   2.419   4.575   3.073  0.5150  1.4343  1.2772
    9MOL   C138 1434   2.603   4.426   3.144 -0.1468  0.1626 -0.6863
    9MOL   C139 1435   2.728   4.354   3.198 -0.1236 -0.1531 -0.3115
    9MOL   C140 1436   2.761   4.220   3.132 -0.0655  0.1225 -0.0965
    9MOL   O141 1437   2.704   4.176   3.032 -0.0961  0.0071  0.0753
    9MOL   H142 1438   2.537   4.358   3.090 -1.0452  0.4039  0.1137
    9MOL   H143 1439   2.546   4.460   3.230  1.9562  0.0291  0.8044
    9MOL   H144 1440   2.718   4.324   3.303  1.0323  0.3976 -0.0292
    9MOL   H145 1441   2.818   4.415   3.183 -0.0629 -0.6412 -2.0653
    9MOL   C146 1442   2.868   4.139   3.202  0.1958  0.3758 -0.2699
    9MOL   C147 1443   2.857   3.993   3.177 -0.2503  0.3079 -0.1624
    9MOL   C148 1444   2.929   3.960   3.054  0.3844  0.0778  0.2835
    9MOL   O149 1445   3.051   3.957   3.043  0.3967  0.0389 -0.4472
    9MOL   H150 1446   2.884   4.151   3.309  1.2084  2.0292 -0.5787
    9MOL   H151 1447   2.956   4.182   3.154 -0.1355 -0.6632 -1.8451
    9MOL   H152 1448   2.751   3.966   3.179 -0.3924  0.8047 -0.6425
    9MOL   H153 1449   2.906   3.942   3.259 -0.6544  0.9749  0.4987
    9MOL   C154 1450   2.841   3.928   2.937  0.0807  0.2265  0.1518
    9MOL   C155 1451   2.919   3.967   2.806 -0.9009  0.0967 -0.6520
    9MOL   C156 1452   2.824   4.017   2.695  0.0307  0.6490  0.3074
    9MOL   O157 1453   2.772   4.130   2.700 -0.1571 -0.2614 -0.0138
    9MOL   H158 1454   2.746   3.980   2.931 -0.4058 -0.7616 -0.8718
    9MOL   H159 1455   2.820   3.822   2.946  0.3563  0.2294  0.8541
    9MOL   H160 1456   2.970   3.876   2.774 -1.1986 -0.6806  1.0304
    9MOL   H161 1457   2.993   4.046   2.809  0.1065 -0.8949  1.6236
    9MOL   H162 1458   2.805   3.948   2.612  1.2356 -0.4714  0.9546
   10MOL     C1 1459   2.258   1.320   1.494 -0.3277  0.2024  0.4769
   10MOL     C2 1460   2.179   1.282   1.624 -0.2996  0.1901  0.6478
   10MOL     C3 1461   2.041   1.347   1.620 -0.0604  0.0569  0.0300
   10MOL     O4 1462   2.034   1.469   1.627 -0.1443  0.0579 -0.1578
   10MOL     H5 1463   2.209   1.298   1.399 -0.0966  2.3995 -0.1849
   10MOL     H6 1464   2.285   1.425   1.480 -1.8887  0.6667  0.8801
   10MOL     H7 1465   2.240   1.321   1.705 -0.4683  1.6561  0.0745
   10MOL     H8 1466   2.160   1.176   1.642  1.1359 -0.1898 -0.0375
   10MOL     H9 1467   2.356   1.271   1.493 -0.6233 -0.4212  1.0545
   10MOL    C10 1468   1.915   1.263   1.623 -0.6073 -0.4906 -0.2807
   10MOL    C11 1469   1.782   1.345   1.600  0.4774 -0.0536 -0.3857
   10MOL    C12 1470   1.695   1.278   1.488 -0.4801  0.2726  0.6072
   10MOL    O13 1471   1.744   1.199   1.413 -0.4751 -0.4137 -0.0281
   10MOL    H14 1472   1.925   1.220   1.722 -1.7624  1.6254  0.7874
   10MOL    H15 1473   1.914   1.170   1.566  1.3181  1.6171 -3.9533
   10MOL    H16 1474   1.790   1.450   1.572  0.4529  0.1848  0.4667
   10MOL    H17 1475   1.714   1.346   1.686  2.2719  0.7304  1.0500
   10MOL    C18 1476   1.546   1.307   1.477 -0.7180  0.3761 -0.3174
   10MOL    C19 1477   1.489   1.329   1.334  0.0480  0.0116 -0.1088
   10MOL    C20 1478   1.339   1.305   1.325  0.0239 -0.1555  0.5381
   10MOL    O21 1479   1.262   1.398   1.349  0.1030 -0.2280  0.3406
   10MOL    H22 1480   1.510   1.398   1.525 -1.0093  0.7152 -1.1683
   10MOL    H23 1481   1.502   1.226   1.536  1.8761  0.1489  1.3832
   10MOL    H24 1482   1.540   1.260   1.267  1.0700  0.7833 -0.1432
   10MOL    H25 1483   1.514   1.425   1.290 -0.1531 -0.6022 -1.5672
   10MOL    C26 1484   1.296   1.164   1.279  0.5925 -0.3509 -0.2702
   10MOL    C27 1485   1.154   1.126   1.324 -0.2268 -0.4741  0.5291
   10MOL    C28 1486   1.058   1.119   1.207  0.3115 -0.3404  0.1510
   10MOL    O29 1487   1.069   1.178   1.103 -0.3385  0.3432 -0.0810
   10MOL    H30 1488   1.364   1.094   1.326  1.3014  0.4357 -0.1073
   10MOL    H31 1489   1.312   1.149   1.172 -0.7893 -2.0807 -0.2666
   10MOL    H32 1490   1.119   1.186   1.407 -0.5768  2.8149 -1.8939
   10MOL    H33 1491   1.166   1.026   1.367  2.3835 -0.5873 -0.3945
   10MOL    C34 1492   0.937   1.030   1.222  0.4048 -0.2643 -0.0596
   10MOL    C35 1493   0.851   1.032   1.091  0.3865 -0.8479  0.1670
   10MOL    C36 1494   0.781   0.897   1.070 -0.8450  0.0704  0.7406
   10MOL    O37 1495   0.758   0.826   1.168  0.1287  0.1711 -0.2439
   10MOL    H38 1496   0.858   1.050   1.294 -0.4972 -1.0536 -0.8062
   10MOL    H39 1497   0.972   0.929   1.243 -0.1250 -0.7606 -1.5042
   10MOL    H40 1498   0.904   1.054   0.998 -1.2033  0.3184 -0.4854
   10MOL    H41 1499   0.777   1.109   1.112  0.8776 -0.6493  1.1826
   10MOL    C42 1500   0.737   0.851   0.929  0.2927  0.2570  0.6785
   10MOL    C43 1501   0.756   0.696   0.908 -0.0109  0.2913 -0.7077
   10MOL    C44 1502   0.829   0.648   0.781 -0.2482  0.0864 -0.6814
   10MOL    O45 1503   0.798   0.693   0.671 -0.3351  0.0472  0.7382
   10MOL    H46 1504   0.798   0.915   0.866  1.4961 -0.3575  1.2065
   10MOL    H47 1505   0.636   0.881   0.903  0.6654 -0.2712 -1.5267
   10MOL    H48 1506   0.663   0.643   0.928 -0.5807  1.2215 -0.8269
   10MOL    H49 1507   0.819   0.657   0.987  1.0698  2.6711 -0.3329
   10MOL    C50 1508   0.946   0.544   0.801 -0.8090 -0.6854 -0.2320
   10MOL    C51 1509   1.024   0.493   0.676  0.0428 -0.0947  0.7923
   10MOL    C52 1510   1.139   0.585   0.634  0.3350 -0.4331 -0.1963
   10MOL    O53 1511   1.177   0.671   0.708 -0.0814 -0.5310  0.1519
   10MOL    H54 1512   0.895   0.456   0.840  1.3602 -2.6138 -1.6122
   10MOL    H55 1513   1.016   0.584   0.874  0.9675 -0.5854 -1.9352
   10MOL    H56 1514   0.968   0.469   0.585 -0.4225 -2.8555  1.7858
   10MOL    H57 1515   1.074   0.397   0.685  0.1288  0.0043  1.3692
   10MOL    C58 1516   1.194   0.573   0.495 -0.4038 -0.0884  1.1455
   10MOL    C59 1517   1.096   0.646   0.393  0.4907 -0.3790  0.9743
   10MOL    C60 1518   1.144   0.781   0.359 -0.0446  0.9912  0.0294
   10MOL    O61 1519   1.252   0.796   0.300 -0.2613 -0.3417  0.1555
   10MOL    H62 1520   1.201   0.467   0.469  1.2986  0.5178 -1.0760
   10MOL    H63 1521   1.299   0.604   0.488 -0.8050  1.1983  0.6168
   10MOL    H64 1522   0.999   0.645   0.443  0.2153 -2.8209  0.4679
   10MOL    H65 1523   1.085   0.582   0.305 -1.9224 -0.6893  1.4640
   10MOL    C66 1524   1.056   0.897   0.401  0.5802  0.7696  0.4916
   10MOL    C67 1525   1.056   0.921   0.552  0.2148 -1.1207 -0.2396
   10MOL    C68 1526   1.057   1.075   0.586  0.0813  0.8990  0.0408
   10MOL    O69 1527   1.160   1.136   0.551  0.4342  0.5172  0.7597
   10MOL    H70 1528   0.955   0.892   0.361  0.5120  0.8343  0.6561
   10MOL    H71 1529   1.112   0.970   0.343  2.6423 -0.4397  0.8998
   10MOL    H72 1530   1.147   0.877   0.593 -1.3880 -0.8535  3.7514
   10MOL    H73 1531   0.970   0.885   0.608 -0.9415 -1.0710 -1.9354
   10MOL    C74 1532   0.932   1.144   0.640  0.0255 -0.0731 -0.6334
   10MOL    C75 1533   0.953   1.297   0.656  0.7177 -0.4390  0.5379
   10MOL    C76 1534   0.825   1.366   0.675 -0.1984  0.1934 -1.1194
   10MOL    O77 1535   0.722   1.320   0.618  0.5649  0.3241 -0.3590
   10MOL    H78 1536   0.895   1.111   0.737 -0.0754  1.8834  0.0164
   10MOL    H79 1537   0.855   1.111   0.571 -1.1054  2.0856 -0.4346
   10MOL    H80 1538   1.008   1.331   0.569 -1.1273  1.2301 -0.0235
   10MOL    H81 1539   1.011   1.315   0.746  0.6286  0.6065  0.3917
   10MOL    C82 1540   0.820   1.485   0.770 -0.1553 -0.2383 -0.0687
   10MOL    C83 1541   0.757   1.471   0.909  0.4232  0.1130  0.4576
   10MOL    C84 1542   0.847   1.522   1.024  0.2557 -0.2312 -0.2439
   10MOL    O85 1543   0.924   1.613   0.998 -0.1574 -0.4141  0.1216
   10MOL    H86 1544   0.780   1.572   0.718 -1.8508 -1.3976 -0.7885
   10MOL    H87 1545   0.925   1.502   0.791  0.0256 -0.9322 -0.3815
   10MOL    H88 1546   0.737   1.368   0.941 -0.0441 -0.0327 -0.2804
   10MOL    H89 1547   0.657   1.514   0.905  1.0882  1.6145 -0.4522
   10MOL    C90 1548   0.840   1.447   1.162  0.0798  0.0099  0.2460
   10MOL    C91 1549   0.963   1.466   1.257  0.1535  0.4783  0.1809
   10MOL    C92 1550   0.941   1.577   1.352  0.3823 -0.0711 -0.3206
   10MOL    O93 1551   0.823   1.615   1.379 -0.3541 -0.3722 -0.3279
   10MOL    H94 1552   0.815   1.341   1.154 -3.4984  0.7578  0.6534
   10MOL    H95 1553   0.754   1.467   1.226  0.8852 -2.2373  2.1246
   10MOL    H96 1554   1.061   1.465   1.210  0.1725  0.1364  0.2279
   10MOL    H97 1555   0.956   1.370   1.308  1.4390  0.6893  0.7811
   10MOL    C98 1556   1.068   1.648   1.401  0.1497 -0.4047 -0.2872
   10MOL    C99 1557   1.037   1.794   1.434 -0.7209 -0.2694  0.3865
   10MOL   C100 1558   1.071   1.877   1.311  0.6593 -0.2361 -0.3970
   10MOL   O101 1559   1.186   1.884   1.263  0.0965 -0.7002  0.3641
   10MOL   H102 1560   1.127   1.631   1.311  0.6694  0.6109 -0.1466
   10MOL   H103 1561   1.106   1.598   1.490  1.5476  1.5171  0.2198
   10MOL   H104 1562   1.099   1.824   1.519 -0.9203 -0.6598  0.6675
   10MOL   H105 1563   0.934   1.800   1.468 -0.8272 -0.4288  0.0968
   10MOL   C106 1564   0.956   1.952   1.246 -0.4437  0.8991 -0.1940
   10MOL   C107 1565   0.983   1.984   1.101 -0.1090 -0.5721 -0.2123
   10MOL   C108 1566   0.854   2.028   1.029 -0.5091 -1.0425  0.4951
   10MOL   O109 1567   0.753   2.062   1.085  0.2435 -0.0741 -0.2256
   10MOL   H110 1568   0.930   2.038   1.309 -1.5263 -0.4790  1.2641
   10MOL   H111 1569   0.873   1.882   1.253  1.0180 -1.0373 -1.7838
   10MOL   H112 1570   1.018   1.892   1.054 -3.7371 -0.6676 -2.8981
   10MOL   H113 1571   1.053   2.067   1.084  0.2054 -1.3729 -3.2804
   10MOL   C114 1572   0.859   2.053   0.877  0.5074  0.1653 -0.0303
   10MOL   C115 1573   0.846   1.922   0.803  0.2715  0.2926  0.0993
   10MOL   C116 1574   0.975   1.884   0.722  0.1770 -0.1636  0.3123
   10MOL   O117 1575   1.082   1.919   0.765  0.0388 -0.5117 -0.8141
   10MOL   H118 1576   0.947   2.107   0.845 -1.5335  2.5979 -1.7001
   10MOL   H119 1577   0.784   2.126   0.846  1.2326  0.2983 -1.4909
   10MOL   H120 1578   0.773   1.936   0.724  0.3852 -0.4228 -0.1343
   10MOL   H121 1579   0.817   1.837   0.865 -0.2493  1.6327  1.7346
   10MOL   C122 1580   0.949   1.811   0.585  0.0859 -0.4666  0.1057
   10MOL   C123 1581   1.067   1.785   0.499  0.8718  0.4478  0.2033
   10MOL   C124 1582   1.149   1.667   0.548  0.2845  0.0292  0.3382
   10MOL   O125 1583   1.108   1.598   0.641  0.3912  0.4114  0.6187
   10MOL   H126 1584   0.877   1.882   0.542 -1.2386 -1.4338  0.6744
   10MOL   H127 1585   0.886   1.723   0.594  0.4400 -0.5345  2.0766
   10MOL   H128 1586   1.130   1.874   0.504  2.3437 -0.2411 -3.9397
   10MOL   H129 1587   1.033   1.778   0.395 -0.8471  2.4761  0.5897
   10MOL   C130 1588   1.289   1.650   0.490  0.3267 -0.6027 -0.2236
   10MOL   C131 1589   1.340   1.510   0.521 -0.6186 -0.1398 -0.1386
   10MOL   C132 1590   1.405   1.492   0.665 -0.0956  0.2684  0.1669
   10MOL   O133 1591   1.485   1.572   0.718 -0.5182  0.2316  0.8741
   10MOL   H134 1592   1.361   1.724   0.523  2.3052 -2.7735  0.4779
   10MOL   H135 1593   1.281   1.667   0.382  0.5223  0.6729 -0.0430
   10MOL   H136 1594   1.427   1.487   0.459  1.8169  2.3404  2.2397
   10MOL   H137 1595   1.261   1.438   0.499  0.5506 -0.6776 -2.8777
   10MOL   C138 1596   1.361   1.366   0.743  0.0184  0.3399  0.0994
   10MOL   C139 1597   1.260   1.404   0.855  0.2935 -0.7603  0.0671
   10MOL   C140 1598   1.334   1.452   0.981  0.2115 -0.6201  0.2041
   10MOL   O141 1599   1.433   1.393   1.024 -0.5214 -0.0220  0.1252
   10MOL   H142 1600   1.437   1.297   0.781 -0.4664 -0.3566 -0.1892
   10MOL   H143 1601   1.304   1.306   0.672 -2.8401 -0.8174  3.2566
   10MOL   H144 1602   1.194   1.323   0.887 -0.0043 -0.0539  1.3149
   10MOL   H145 1603   1.191   1.485   0.829  2.0219  0.8268  0.3119
   10MOL   C146 1604   1.292   1.586   1.038  0.5593  0.0137 -0.2878
   10MOL   C147 1605   1.406   1.670   1.104 -0.1678  0.5582 -0.1142
   10MOL   C148 1606   1.443   1.810   1.060  0.1103 -0.4079  0.0500
   10MOL   O149 1607   1.540   1.875   1.110  0.3785  0.5066  0.0476
   10MOL   H150 1608   1.210   1.571   1.108 -0.9300  1.1947 -1.7243
   10MOL   H151 1609   1.255   1.653   0.960 -2.0412 -0.3005  0.6223
   10MOL   H152 1610   1.493   1.609   1.076 -2.9067 -3.3637 -0.4120
   10MOL   H153 1611   1.390   1.664   1.211 -0.8544  0.2275 -0.2367
   10MOL   C154 1612   1.388   1.857   0.928 -0.2155 -0.3990 -0.1089
   10MOL   C155 1613   1.468   1.972   0.860 -0.1095 -0.3066  0.6431
   10MOL   C156 1614   1.525   1.912   0.731 -0.2328  0.0973  0.1631
   10MOL   O157 1615   1.501   1.956   0.621 -0.2444 -0.5523  0.6938
   10MOL   H158 1616   1.292   1.901   0.952  1.2149  1.1964  3.0652
   10MOL   H159 1617   1.372   1.774   0.860  0.7760 -0.5295 -0.1949
   10MOL   H160 1618   1.553   2.022   0.906 -0.3553 -0.3605  1.1624
   10MOL   H161 1619   1.401   2.054   0.835  2.9493  1.1924 -3.0698
   10MOL   H162 1620   1.589   1.828   0.757 -0.5866  0.2543  1.6270
   11MOL     C1 1621   7.378   0.318   4.287 -0.2666 -0.1609 -0.2441
   11MOL     C2 1622   7.385   0.173   4.236 -0.5334 -0.0756 -0.4642
   11MOL     C3 1623   7.258   0.087   4.256  0.2097 -0.5639  0.1234
   11MOL     O4 1624   7.169   0.125   4.329  0.2935 -0.0361  0.2082
   11MOL     H5 1625   7.324   0.375   4.212  1.3819  2.3855  0.4667
   11MOL     H6 1626   7.327   0.330   4.383  1.0619 -0.7426  0.5522
   11MOL     H7 1627   7.470   0.118   4.277  0.7306  0.2779 -2.5361
   11MOL     H8 1628   7.398   0.174   4.128 -0.5597 -0.0176 -0.4671
   11MOL     H9 1629   7.479   0.357   4.295 -0.5787  0.2922  1.7467
   11MOL    C10 1630   7.272   7.804   4.196 -0.1317  0.3072 -0.6472
   11MOL    C11 1631   7.179   7.714   4.266  0.0420 -0.3005  1.0690
   11MOL    C12 1632   7.047   7.693   4.187 -0.0166  0.2523  0.0383
   11MOL    O13 1633   7.042   7.701   4.062 -0.1348  0.3090 -0.1464
   11MOL    H14 1634   7.373   7.764   4.210 -0.1947  0.0756 -0.8673
   11MOL    H15 1635   7.258   7.816   4.089 -0.5556 -0.4777 -0.6825
   11MOL    H16 1636   7.157   7.733   4.371  0.3061 -0.9168  1.2343
   11MOL    H17 1637   7.210   7.610   4.265 -1.1552 -0.6862 -2.5612
   11MOL    C18 1638   6.925   7.647   4.261  0.1100  0.1552  0.2638
   11MOL    C19 1639   6.922   7.490   4.288 -0.0329 -0.8048  0.5937
   11MOL    C20 1640   6.795   7.428   4.231  0.1359  0.1812 -0.4481
   11MOL    O21 1641   6.720   7.494   4.158  0.0472 -0.0172 -0.1379
   11MOL    H22 1642   6.835   7.690   4.218 -0.8892 -0.5271  1.6428
   11MOL    H23 1643   6.931   7.700   4.356 -0.0296  1.7661 -0.6069
   11MOL    H24 1644   6.926   7.467   4.394  0.5596  1.3067  1.0517
   11MOL    H25 1645   7.015   7.450   4.247  0.9866  2.0052  0.0427
   11MOL    C26 1646   6.757   7.285   4.251 -0.3128 -0.7433  0.2600
   11MOL    C27 1647   6.832   7.192   4.161 -0.1507 -0.0700 -0.2264
   11MOL    C28 1648   6.797   7.044   4.193  0.3083 -0.2466  0.3717
   11MOL    O29 1649   6.737   6.974   4.105  0.3457 -0.8343  0.2767
   11MOL    H30 1650   6.650   7.267   4.242 -0.1819 -0.7789 -1.4111
   11MOL    H31 1651   6.786   7.259   4.353 -1.4990 -1.0447  0.5351
   11MOL    H32 1652   6.938   7.188   4.186 -0.5032 -0.5806  1.2504
   11MOL    H33 1653   6.822   7.226   4.058 -0.3861  2.5862  0.6336
   11MOL    C34 1654   6.835   6.987   4.331  0.6854 -0.2535  0.9218
   11MOL    C35 1655   6.767   6.855   4.368 -0.2873 -0.2773  0.8131
   11MOL    C36 1656   6.829   6.726   4.316  0.1719 -0.3359 -0.5151
   11MOL    O37 1657   6.923   6.726   4.242 -0.7192  0.8255  0.2283
   11MOL    H38 1658   6.824   7.061   4.410 -2.3058  0.1587  0.1765
   11MOL    H39 1659   6.942   6.962   4.327  1.1744  1.7991  0.9016
   11MOL    H40 1660   6.668   6.856   4.322  0.1656  2.0448 -0.1771
   11MOL    H41 1661   6.759   6.845   4.476  1.0440 -2.3604  0.7572
   11MOL    C42 1662   6.775   6.593   4.368  0.4040 -0.5742  0.4031
   11MOL    C43 1663   6.832   6.463   4.306 -0.2960 -0.1300  0.4425
   11MOL    C44 1664   6.951   6.390   4.372 -0.2861  0.3303 -0.0195
   11MOL    O45 1665   6.995   6.424   4.485  0.1997 -0.5645 -0.2247
   11MOL    H46 1666   6.671   6.591   4.336  0.6424  0.8056 -0.5456
   11MOL    H47 1667   6.768   6.589   4.477 -0.6533  1.1485  0.4185
   11MOL    H48 1668   6.855   6.488   4.202  0.3221  1.3937  0.9362
   11MOL    H49 1669   6.753   6.389   4.314 -0.3769 -0.0410  0.4546
   11MOL    C50 1670   7.011   6.276   4.293  0.3143  0.0966  0.4820
   11MOL    C51 1671   7.155   6.268   4.339 -0.4837 -0.4709  0.2301
   11MOL    C52 1672   7.244   6.207   4.232  0.3035  0.5946 -0.1493
   11MOL    O53 1673   7.201   6.145   4.129  0.2054 -0.0659  0.2801
   11MOL    H54 1674   7.001   6.269   4.184  2.5809 -0.7993  0.3183
   11MOL    H55 1675   6.962   6.184   4.323  2.2473 -1.4097 -0.8789
   11MOL    H56 1676   7.163   6.203   4.426 -0.4557 -0.1563  0.4634
   11MOL    H57 1677   7.185   6.371   4.359  0.6831 -0.8614  0.4836
   11MOL    C58 1678   7.394   6.216   4.250 -0.0863 -0.5988  0.1408
   11MOL    C59 1679   7.480   6.098   4.201  0.0131  0.1353  1.0214
   11MOL    C60 1680   7.553   6.020   4.311 -0.2764  0.3202  0.5647
   11MOL    O61 1681   7.512   6.017   4.428 -0.0236  0.3107  0.7148
   11MOL    H62 1682   7.408   6.232   4.356  0.9409 -0.4314 -0.0174
   11MOL    H63 1683   7.422   6.309   4.201  1.1281 -0.8102  0.4325
   11MOL    H64 1684   7.557   6.132   4.132 -4.1313  2.5305 -2.6497
   11MOL    H65 1685   7.435   6.026   4.133  2.9600  0.6576 -1.6152
   11MOL    C66 1686   7.686   5.960   4.280 -0.1113 -0.2488 -0.2880
   11MOL    C67 1687   7.751   5.881   4.398  0.6087  1.0411 -1.0527
   11MOL    C68 1688   0.040   5.852   4.384 -0.5743 -0.5110 -0.4934
   11MOL    O69 1689   0.121   5.929   4.322  0.7798  0.3191 -0.1327
   11MOL    H70 1690   7.759   6.038   4.255  0.6482 -1.4357 -1.8886
   11MOL    H71 1691   7.677   5.895   4.193  0.6241 -1.4877  0.5507
   11MOL    H72 1692   7.692   5.790   4.408 -0.6851  1.9309 -0.4085
   11MOL    H73 1693   7.734   5.921   4.498 -0.2765 -0.4861 -0.5729
   11MOL    C74 1694   0.080   5.710   4.440  0.3005 -0.0911  0.2838
   11MOL    C75 1695   0.173   5.632   4.345 -0.1761 -0.4754  0.8111
   11MOL    C76 1696   0.309   5.620   4.414  0.1643 -1.0559  0.6551
   11MOL    O77 1697   0.316   5.529   4.500  0.4145  0.3821 -0.2909
   11MOL    H78 1698   7.848   5.654   4.461 -0.9421  1.8897  0.3309
   11MOL    H79 1699   0.127   5.729   4.537  2.8176 -0.3631 -0.8532
   11MOL    H80 1700   0.188   5.696   4.258  2.4978 -1.5542  0.4277
   11MOL    H81 1701   0.129   5.537   4.317  0.1595 -0.6630  0.9186
   11MOL    C82 1702   0.412   5.725   4.397 -0.5682  0.3617 -0.1356
   11MOL    C83 1703   0.556   5.672   4.423 -0.6086 -0.1772  0.2973
   11MOL    C84 1704   0.628   5.758   4.524  0.1339  0.1985  0.3862
   11MOL    O85 1705   0.564   5.838   4.598  0.1739 -0.1761 -0.0741
   11MOL    H86 1706   0.382   5.812   4.456 -2.8062 -0.6258  0.2199
   11MOL    H87 1707   0.406   5.755   4.293  0.4383 -3.2854 -1.3157
   11MOL    H88 1708   0.616   5.688   4.333  1.5011  0.0032  1.7043
   11MOL    H89 1709   0.559   5.568   4.454  1.7418  0.0633  0.9534
   11MOL    C90 1710   0.776   5.726   4.543 -0.4925 -0.1895  0.5066
   11MOL    C91 1711   0.821   5.735   4.690 -0.7733 -0.0069 -0.4157
   11MOL    C92 1712   0.789   5.607   4.761  0.6881 -0.9475  0.2189
   11MOL    O93 1713   0.676   5.587   4.810  0.2406 -0.0910 -0.0448
   11MOL    H94 1714   0.834   5.788   4.475 -1.3110 -1.4094 -1.3351
   11MOL    H95 1715   0.798   5.626   4.505  1.9050  0.1731  0.8344
   11MOL    H96 1716   0.778   5.825   4.733  0.7027  0.2977  0.4575
   11MOL    H97 1717   0.929   5.755   4.686 -0.9311  0.7300 -1.4308
   11MOL    C98 1718   0.899   5.505   4.779 -0.1856  0.5623 -0.6603
   11MOL    C99 1719   0.888   5.410   4.904 -0.0978 -0.0512  0.8709
   11MOL   C100 1720   0.948   5.484   5.026 -0.2322 -0.6880  0.4333
   11MOL   O101 1721   0.914   5.603   5.055 -0.8158 -0.0818 -0.2258
   11MOL   H102 1722   0.994   5.556   4.793  0.2815 -0.7208  0.9901
   11MOL   H103 1723   0.907   5.439   4.692 -0.8047  0.5386 -0.7050
   11MOL   H104 1724   0.934   5.314   4.882  0.6933  0.2537  1.1921
   11MOL   H105 1725   0.780   5.409   4.924 -0.1640  0.5824  0.5499
   11MOL   C106 1726   1.044   5.399   5.112  0.6163 -0.1867  0.1053
   11MOL   C107 1727   1.098   5.473   5.230 -0.1443  0.5407  0.6296
   11MOL   C108 1728   1.083   5.400   5.364 -0.1837 -0.2198  0.5350
   11MOL   O109 1729   1.014   5.297   5.380 -0.4540 -0.2517  0.1562
   11MOL   H110 1730   1.127   5.365   5.050  0.2597 -0.3775 -0.2768
   11MOL   H111 1731   0.995   5.303   5.130  1.6105 -0.6231  0.5305
   11MOL   H112 1732   1.076   5.580   5.225  1.5122  0.8447 -0.2772
   11MOL   H113 1733   1.205   5.471   5.214  0.2296 -2.4024  2.9100
   11MOL   C114 1734   1.157   5.464   5.479  0.2831  0.4192  0.2645
   11MOL   C115 1735   1.064   5.556   5.554  0.2389  0.0033  0.4808
   11MOL   C116 1736   1.022   5.496   5.690  0.0624 -0.4256  0.5395
   11MOL   O117 1737   1.025   5.374   5.714 -0.3309  0.3145  0.6512
   11MOL   H118 1738   1.239   5.508   5.421  0.4001 -1.6369 -1.1856
   11MOL   H119 1739   1.196   5.387   5.545 -2.4847  0.0974  1.5651
   11MOL   H120 1740   0.987   5.594   5.486  0.7459 -1.5142 -0.9958
   11MOL   H121 1741   1.120   5.645   5.583  2.2902 -1.3542  0.7893
   11MOL   C122 1742   0.995   5.585   5.811 -0.9170 -0.0722  0.5282
   11MOL   C123 1743   0.899   5.510   5.906  0.3573 -0.0260  0.4099
   11MOL   C124 1744   0.822   5.603   5.995  0.4799  0.1325  0.5559
   11MOL   O125 1745   0.872   5.715   6.034 -0.2229  0.5436 -0.0472
   11MOL   H126 1746   0.952   5.676   5.769  0.0692  0.8551  1.4945
   11MOL   H127 1747   1.086   5.618   5.862 -1.5341  0.9004  1.0202
   11MOL   H128 1748   0.942   5.441   5.977 -0.8200 -2.7645 -1.4519
   11MOL   H129 1749   0.824   5.447   5.857  1.5795 -2.1522  1.2137
   11MOL   C130 1750   0.695   5.545   6.055 -0.0866  0.5291  0.4120
   11MOL   C131 1751   0.602   5.655   6.113  0.2681  0.1325 -0.2063
   11MOL   C132 1752   0.616   5.671   6.264  0.6316  0.1655  0.4051
   11MOL   O133 1753   0.685   5.603   6.338 -0.5106 -0.3444  0.0337
   11MOL   H134 1754   0.730   5.463   6.118  0.2436  1.1514  1.0396
   11MOL   H135 1755   0.640   5.499   5.972  0.1217 -2.1976  1.7320
   11MOL   H136 1756   0.498   5.624   6.117  0.3091 -0.0546 -0.5573
   11MOL   H137 1757   0.601   5.752   6.063  1.0655 -0.1319 -0.7536
   11MOL   C138 1758   0.528   5.794   6.323  0.1658  0.0301 -0.4396
   11MOL   C139 1759   0.596   5.875   6.439  0.1287 -0.1484 -0.3845
   11MOL   C140 1760   0.739   5.930   6.400  0.7054  0.0839  0.0312
   11MOL   O141 1761   0.763   5.943   6.281 -0.8325 -0.7977  0.0756
   11MOL   H142 1762   0.434   5.752   6.359 -1.6937  1.7506 -3.0442
   11MOL   H143 1763   0.494   5.860   6.243 -1.2996 -0.9945 -0.6763
   11MOL   H144 1764   0.594   5.804   6.521  0.2110 -0.1103 -0.3501
   11MOL   H145 1765   0.533   5.958   6.470 -0.1837 -0.3790 -0.4002
   11MOL   C146 1766   0.842   5.947   6.504  0.7162 -0.5334 -0.0735
   11MOL   C147 1767   0.907   5.813   6.524  0.1396 -0.0235 -0.2131
   11MOL   C148 1768   1.031   5.796   6.446  0.0872  0.1321  0.4827
   11MOL   O149 1769   1.144   5.843   6.477  0.0518  0.5010 -0.5704
   11MOL   H150 1770   0.795   5.978   6.597 -2.1090 -0.0779 -1.5743
   11MOL   H151 1771   0.907   6.029   6.477  0.0667  0.3550  1.0273
   11MOL   H152 1772   0.843   5.731   6.491 -1.2257  0.2323  1.7076
   11MOL   H153 1773   0.924   5.804   6.632 -1.1364  2.4731  0.2132
   11MOL   C154 1774   1.020   5.726   6.321  0.2654  0.6983 -0.4483
   11MOL   C155 1775   1.148   5.665   6.270  0.3692  0.1214  0.2437
   11MOL   C156 1776   1.176   5.523   6.322 -0.1783  0.2274  0.4602
   11MOL   O157 1777   1.159   5.497   6.440 -0.0784  0.3503 -0.4353
   11MOL   H158 1778   0.979   5.800   6.252  0.1649  1.0992  0.0440
   11MOL   H159 1779   0.950   5.644   6.334 -0.9099  1.7582 -0.0193
   11MOL   H160 1780   1.237   5.717   6.306 -1.3158  2.8626  0.6150
   11MOL   H161 1781   1.158   5.657   6.162  0.2752 -2.9752  0.4335
   11MOL   H162 1782   1.221   5.461   6.245  1.1397  2.6248 -0.7420
   12MOL     C1 1783   4.310   4.163   0.308  0.0555 -0.0698  1.1257
   12MOL     C2 1784   4.410   4.254   0.379 -0.5690 -0.3187 -0.4525
   12MOL     C3 1785   4.539   4.276   0.299  0.3909  0.5106  0.4848
   12MOL     O4 1786   4.551   4.247   0.180  0.1972 -0.3099 -0.4553
   12MOL     H5 1787   4.221   4.149   0.368 -0.9264  0.5927 -0.1590
   12MOL     H6 1788   4.272   4.205   0.215  2.1702 -0.7221 -0.0683
   12MOL     H7 1789   4.429   4.224   0.482  0.8205  0.6434 -0.4175
   12MOL     H8 1790   4.367   4.354   0.371 -0.7842 -0.2913  0.9017
   12MOL     H9 1791   4.357   4.066   0.289  1.6681  0.8327  0.3182
   12MOL    C10 1792   4.646   4.344   0.380  0.2502 -0.1988  0.7174
   12MOL    C11 1793   4.685   4.489   0.344  0.0774 -0.6235  0.0938
   12MOL    C12 1794   4.623   4.600   0.430 -0.5327  0.3452  0.3420
   12MOL    O13 1795   4.558   4.568   0.530  0.4071  0.6764  0.5856
   12MOL    H14 1796   4.728   4.272   0.379 -1.2927 -1.9751 -0.1378
   12MOL    H15 1797   4.624   4.336   0.486  2.4285 -0.3714  1.1685
   12MOL    H16 1798   4.676   4.509   0.237  0.0582 -0.9081  0.0407
   12MOL    H17 1799   4.786   4.492   0.385  0.0794  0.2300  0.0238
   12MOL    C18 1800   4.672   4.740   0.396 -0.1691 -0.0747  0.0987
   12MOL    C19 1801   4.744   4.817   0.511 -0.4220 -0.3520  0.0877
   12MOL    C20 1802   4.895   4.806   0.514 -0.0534 -0.2788  0.2557
   12MOL    O21 1803   4.954   4.727   0.446  0.2561  0.3184  0.3142
   12MOL    H22 1804   4.586   4.799   0.364 -0.0192  0.5853  0.9105
   12MOL    H23 1805   4.737   4.728   0.309 -1.6076  0.0958 -1.0100
   12MOL    H24 1806   4.715   4.754   0.596 -0.8954  0.4836  0.5545
   12MOL    H25 1807   4.704   4.917   0.527  3.2511  0.9930  1.3577
   12MOL    C26 1808   4.969   4.923   0.584  0.0565 -0.1289  0.1478
   12MOL    C27 1809   5.106   4.944   0.532 -0.2532  0.2929 -0.6245
   12MOL    C28 1810   5.220   4.893   0.626 -0.6525 -0.4103  1.3878
   12MOL    O29 1811   5.208   4.831   0.732 -0.0983  0.4967  0.6085
   12MOL    H30 1812   4.965   4.913   0.692  0.0900 -0.9177  0.0827
   12MOL    H31 1813   4.917   5.018   0.577  0.1889  0.0255  1.3088
   12MOL    H32 1814   5.119   5.052   0.535 -1.0886  0.3649  0.8558
   12MOL    H33 1815   5.123   4.913   0.428  1.3453  1.1687 -0.6354
   12MOL    C34 1816   5.356   4.902   0.551 -0.0857 -1.2749  0.3300
   12MOL    C35 1817   5.413   4.756   0.507  0.1754  0.3294  0.9008
   12MOL    C36 1818   5.409   4.734   0.361 -0.1386 -0.4515  0.3543
   12MOL    O37 1819   5.354   4.812   0.282 -0.6841  0.0216  0.3513
   12MOL    H38 1820   5.432   4.948   0.615  1.4757 -0.9005 -1.7247
   12MOL    H39 1821   5.341   4.974   0.471  0.4582  1.2271  2.3837
   12MOL    H40 1822   5.354   4.673   0.546  2.0335 -1.8783 -0.8829
   12MOL    H41 1823   5.518   4.743   0.533  0.3302  0.6598  0.4413
   12MOL    C42 1824   5.461   4.599   0.310 -0.0726 -0.2089  0.3012
   12MOL    C43 1825   5.472   4.584   0.157  0.1298  0.0209 -0.2673
   12MOL    C44 1826   5.486   4.442   0.107  0.8644  0.1824 -0.4767
   12MOL    O45 1827   5.561   4.367   0.165  0.3208 -0.1305 -0.0969
   12MOL    H46 1828   5.388   4.527   0.345 -1.4101  0.5099 -0.9556
   12MOL    H47 1829   5.550   4.563   0.361 -1.4653 -0.3300  2.7106
   12MOL    H48 1830   5.562   4.625   0.111  1.9015 -1.6799  1.5681
   12MOL    H49 1831   5.390   4.632   0.103  0.3540 -0.0611 -0.6836
   12MOL    C50 1832   5.407   4.405   7.841  0.2150  0.1551  0.2750
   12MOL    C51 1833   5.494   4.345   7.739  0.1074  0.0670 -0.5789
   12MOL    C52 1834   5.511   4.447   7.627  0.7701  0.1275  0.8210
   12MOL    O53 1835   5.534   4.563   7.651  0.3417 -0.2566 -0.4552
   12MOL    H54 1836   5.361   4.496   7.804  2.2308  0.5000 -1.4149
   12MOL    H55 1837   5.323   4.343   0.014  0.5153 -1.4622 -1.9439
   12MOL    H56 1838   5.438   4.260   7.701 -0.2155  1.1461 -2.5948
   12MOL    H57 1839   5.591   4.311   7.776  0.6596  2.5953  0.3854
   12MOL    C58 1840   5.472   4.403   7.485  0.0029 -0.7133 -0.3130
   12MOL    C59 1841   5.450   4.516   7.384  0.5285 -0.5150  0.5214
   12MOL    C60 1842   5.379   4.467   7.255 -0.2637  0.0549 -0.7059
   12MOL    O61 1843   5.319   4.361   7.255  0.0965 -0.5668 -0.0262
   12MOL    H62 1844   5.399   4.323   7.494 -2.3560  1.4570  0.1579
   12MOL    H63 1845   5.553   4.341   7.446 -0.6352 -2.0764  0.4854
   12MOL    H64 1846   5.539   4.572   7.354 -0.3470  0.6909  0.1633
   12MOL    H65 1847   5.384   4.582   7.439  0.7876 -0.2415  0.5098
   12MOL    C66 1848   5.390   4.557   7.130  0.2672 -0.1012  0.1985
   12MOL    C67 1849   5.360   4.483   7.004 -0.1247  1.2970  0.8117
   12MOL    C68 1850   5.220   4.493   6.955 -0.0278 -0.6714  0.9179
   12MOL    O69 1851   5.180   4.593   6.898  0.6788 -0.0047  0.0754
   12MOL    H70 1852   5.493   4.591   7.126  0.3865 -0.5405 -0.5058
   12MOL    H71 1853   5.324   4.643   7.138  0.0622 -0.4081  1.9233
   12MOL    H72 1854   5.391   4.378   7.004 -1.1608  0.9793  0.1272
   12MOL    H73 1855   5.422   4.539   6.935  1.2217  0.8202  1.6169
   12MOL    C74 1856   5.126   4.377   6.992 -0.0798  0.7810 -0.0396
   12MOL    C75 1857   4.981   4.397   6.946 -0.0233 -0.7991  0.4548
   12MOL    C76 1858   4.890   4.286   6.969  0.4967  0.5785 -0.0877
   12MOL    O77 1859   4.817   4.301   7.068  0.4264 -0.2954 -0.1748
   12MOL    H78 1860   5.145   4.352   7.096 -1.1995 -1.1923 -0.2817
   12MOL    H79 1861   5.171   4.302   6.927  0.5837  1.8373 -0.8254
   12MOL    H80 1862   4.984   4.423   6.840 -1.9999 -0.5244  0.4597
   12MOL    H81 1863   4.944   4.480   7.005 -3.0162 -2.7942  1.4953
   12MOL    C82 1864   4.849   4.178   6.860 -1.0336 -0.0702  0.4763
   12MOL    C83 1865   4.695   4.172   6.833  1.1235  0.1840  0.6158
   12MOL    C84 1866   4.651   4.261   6.716 -0.1544  0.1052  0.4605
   12MOL    O85 1867   4.735   4.328   6.654  0.3096 -0.2281  0.3386
   12MOL    H86 1868   4.888   4.085   6.901 -1.1864 -1.0985 -1.6639
   12MOL    H87 1869   4.907   4.190   6.769 -2.2679 -0.3074 -0.3502
   12MOL    H88 1870   4.639   4.217   6.914  0.9463 -0.5263  0.8910
   12MOL    H89 1871   4.658   4.070   6.818  1.7839  0.3833 -2.6553
   12MOL    C90 1872   4.502   4.252   6.679 -0.1705  0.0651  0.5164
   12MOL    C91 1873   4.469   4.356   6.564 -0.3898 -0.4178  0.4368
   12MOL    C92 1874   4.380   4.467   6.625  0.2800  0.0697  0.3286
   12MOL    O93 1875   4.341   4.463   6.744 -0.2264 -0.4742 -0.6460
   12MOL    H94 1876   4.460   4.262   6.780  2.3232 -1.5832  1.7575
   12MOL    H95 1877   4.484   4.148   6.653 -2.2086  0.8106 -1.1624
   12MOL    H96 1878   4.424   4.305   6.479  2.8170  0.3261 -1.7905
   12MOL    H97 1879   4.562   4.399   6.529 -1.6787  0.7048 -1.6829
   12MOL    C98 1880   4.367   4.594   6.547  0.5172  0.2346 -0.6107
   12MOL    C99 1881   4.495   4.677   6.553 -0.0541 -0.1866  0.1096
   12MOL   C100 1882   4.474   4.807   6.631  0.2384 -0.4019 -0.6431
   12MOL   O101 1883   4.446   4.909   6.570 -0.3036 -0.7280 -0.0514
   12MOL   H102 1884   4.286   4.640   6.604  2.0631  0.4719  1.4694
   12MOL   H103 1885   4.339   4.572   6.444 -0.2286 -0.9102 -0.1779
   12MOL   H104 1886   4.521   4.704   6.451  2.4497 -0.3532  0.6732
   12MOL   H105 1887   4.572   4.616   6.601 -1.3866 -1.2769  0.8854
   12MOL   C106 1888   4.486   4.804   6.787 -0.1368  0.4482  0.0505
   12MOL   C107 1889   4.400   4.912   6.859  0.5459  0.5172  1.0152
   12MOL   C108 1890   4.253   4.881   6.874 -0.6812 -0.5789  0.7088
   12MOL   O109 1891   4.191   4.817   6.787  0.6935  0.2071 -0.0374
   12MOL   H110 1892   4.587   4.824   6.821  0.0819  0.7478 -0.7692
   12MOL   H111 1893   4.451   4.707   6.823  1.4469 -0.7970 -1.6839
   12MOL   H112 1894   4.402   5.011   6.814  3.1787 -0.3149 -0.8070
   12MOL   H113 1895   4.440   4.917   6.960  1.9263 -1.9591  0.6405
   12MOL   C114 1896   4.182   4.944   6.994  0.7069 -0.4779  0.4590
   12MOL   C115 1897   4.037   4.923   7.010  0.2290  0.1248  0.0527
   12MOL   C116 1898   4.007   4.842   7.139 -0.5586 -0.0460 -0.1199
   12MOL   O117 1899   3.959   4.905   7.234  0.4906  0.3768  0.5549
   12MOL   H118 1900   4.205   5.051   6.996 -0.9547 -0.1077  0.4604
   12MOL   H119 1901   4.228   4.911   7.087  1.9436  0.3345  0.1456
   12MOL   H120 1902   4.003   4.866   6.923 -0.8083 -0.8482  1.0916
   12MOL   H121 1903   3.998   5.024   7.002 -1.4620 -0.6343 -1.7998
   12MOL   C122 1904   4.015   4.694   7.140  0.7537 -0.1478 -0.0290
   12MOL   C123 1905   3.977   4.636   7.280  0.2950  0.2359  0.4447
   12MOL   C124 1906   3.963   4.481   7.257 -0.2631 -0.4694  0.5173
   12MOL   O125 1907   4.048   4.408   7.307 -0.0669  0.3878  0.2640
   12MOL   H126 1908   4.117   4.664   7.115  0.5217  0.0358 -1.2410
   12MOL   H127 1909   3.956   4.657   7.056 -1.0507  3.1457 -0.2991
   12MOL   H128 1910   3.891   4.688   7.322  1.4147  2.9392 -0.4799
   12MOL   H129 1911   4.052   4.661   7.356 -0.1221 -1.2445  1.3588
   12MOL   C130 1912   3.841   4.433   7.187 -0.1591  0.1401  0.1671
   12MOL   C131 1913   3.850   4.280   7.146  0.4158 -1.2123 -0.2598
   12MOL   C132 1914   3.770   4.198   7.252 -0.0895 -0.5275 -0.3273
   12MOL   O133 1915   3.749   4.242   7.365  0.3651 -0.5718  0.1148
   12MOL   H134 1916   3.827   4.499   7.102 -0.1066 -0.4295 -0.2864
   12MOL   H135 1917   3.761   4.446   7.260 -0.2748 -1.0985  0.2786
   12MOL   H136 1918   3.950   4.237   7.142  0.7559 -0.4628  0.0951
   12MOL   H137 1919   3.805   4.269   7.047 -1.6646 -1.1879  0.6633
   12MOL   C138 1920   3.720   4.057   7.217 -0.8521  0.0786  0.1732
   12MOL   C139 1921   3.710   3.965   7.336 -0.1113  0.2582 -0.4498
   12MOL   C140 1922   3.837   3.898   7.374 -0.4175  0.2155  0.0961
   12MOL   O141 1923   3.953   3.925   7.332 -0.1778  0.1202  0.0618
   12MOL   H142 1924   3.770   4.020   7.128  0.1585 -2.4588  1.7227
   12MOL   H143 1925   3.623   4.072   7.171  0.5460 -0.5111 -3.0791
   12MOL   H144 1926   3.644   3.881   7.314 -0.8011  1.1544 -1.9243
   12MOL   H145 1927   3.652   4.013   7.415 -1.1456 -0.7718 -0.5684
   12MOL   C146 1928   3.834   3.794   7.482 -0.0894  0.1769  0.4681
   12MOL   C147 1929   3.965   3.782   7.567  0.6362  0.1478  0.3218
   12MOL   C148 1930   3.960   3.858   7.698  0.1674 -0.2094 -0.1904
   12MOL   O149 1931   3.858   3.917   7.735 -0.1038 -0.1814 -0.1399
   12MOL   H150 1932   3.818   3.698   7.433 -0.9385  0.5211  0.0490
   12MOL   H151 1933   3.750   3.824   7.545 -0.8066 -2.6617  0.9370
   12MOL   H152 1934   4.055   3.809   7.512  0.4618  1.9256  0.8972
   12MOL   H153 1935   3.982   3.680   7.601 -3.0156 -0.4188  0.6563
   12MOL   C154 1936   4.077   3.832   7.793  1.0896 -0.8044 -0.4064
   12MOL   C155 1937   4.057   3.904   0.063 -0.5367 -0.0280 -0.6645
   12MOL   C156 1938   4.156   3.865   0.176 -0.1512 -0.2761  0.2495
   12MOL   O157 1939   4.253   3.792   0.150 -0.0695 -0.0999 -0.3623
   12MOL   H158 1940   4.167   3.869   7.744 -0.1440  1.1325 -1.3202
   12MOL   H159 1941   4.089   3.725   7.809 -0.8968 -0.9049  0.5197
   12MOL   H160 1942   3.963   3.876   0.111 -1.1752  0.8587 -1.3887
   12MOL   H161 1943   4.044   4.012   0.052 -0.4102  0.0876  0.2275
   12MOL   H162 1944   4.139   3.915   0.271  1.0076  1.7731 -0.5752
   13MOL     C1 1945   1.132   5.977   2.749  0.7015 -0.1769 -0.2961
   13MOL     C2 1946   1.066   6.122   2.754 -0.2770 -0.6488 -0.3256
   13MOL     C3 1947   0.922   6.129   2.706  0.3156  0.4816  0.0516
   13MOL     O4 1948   0.865   6.017   2.674 -0.8157 -0.1785  0.0438
   13MOL     H5 1949   1.240   5.987   2.747  0.4725  3.8781  0.9889
   13MOL     H6 1950   1.122   5.923   2.844 -0.4122  0.4442 -0.0421
   13MOL     H7 1951   1.121   6.189   2.688 -0.6620 -0.6894 -0.6877
   13MOL     H8 1952   1.051   6.152   2.858 -2.9414 -0.5389 -0.7283
   13MOL     H9 1953   1.106   5.925   2.658 -0.9213 -1.2918  0.7791
   13MOL    C10 1954   0.849   6.263   2.704  0.2397  0.1273  0.0619
   13MOL    C11 1955   0.698   6.251   2.719 -0.2013 -0.0869  0.1416
   13MOL    C12 1956   0.627   6.312   2.592 -0.2465 -0.0471  0.2718
   13MOL    O13 1957   0.687   6.312   2.485 -0.7734  0.0840  0.1921
   13MOL    H14 1958   0.895   6.311   2.618  3.0465  0.2357  1.5405
   13MOL    H15 1959   0.886   6.324   2.787 -0.9021 -0.6870  1.1873
   13MOL    H16 1960   0.660   6.313   2.801 -0.3550  1.0763 -0.7943
   13MOL    H17 1961   0.658   6.150   2.726  3.2847 -1.5910 -1.0620
   13MOL    C18 1962   0.486   6.367   2.613  0.2054 -0.2009 -0.2016
   13MOL    C19 1963   0.414   6.389   2.476  0.2720 -0.5053 -0.5280
   13MOL    C20 1964   0.449   6.535   2.418 -0.2715  0.4431 -0.6289
   13MOL    O21 1965   0.432   6.643   2.475  0.5674  0.3800 -0.2527
   13MOL    H22 1966   0.491   6.460   2.669 -0.0523 -0.5052  0.3252
   13MOL    H23 1967   0.438   6.292   2.675  0.0304 -1.1819 -1.5090
   13MOL    H24 1968   0.305   6.380   2.478  0.1432 -0.3904 -3.6982
   13MOL    H25 1969   0.461   6.316   2.410  1.2700 -1.2649  0.9969
   13MOL    C26 1970   0.516   6.542   2.284  0.1300 -0.1721  0.1256
   13MOL    C27 1971   0.463   6.665   2.205  0.3091 -0.4896  0.0596
   13MOL    C28 1972   0.570   6.765   2.154 -0.1100  0.4771 -0.4611
   13MOL    O29 1973   0.580   6.783   2.031  0.9127  0.1879  0.0389
   13MOL    H30 1974   0.494   6.456   2.221  1.3362  0.5638 -1.3499
   13MOL    H31 1975   0.623   6.562   2.297 -0.1898 -0.2194  3.3882
   13MOL    H32 1976   0.381   6.718   2.254  1.0544  0.3335  0.4093
   13MOL    H33 1977   0.419   6.627   2.112  0.2551  0.0305 -0.1269
   13MOL    C34 1978   0.661   6.840   2.260  0.5153 -0.6779 -0.4711
   13MOL    C35 1979   0.743   6.951   2.198  0.0272  0.0623 -0.8742
   13MOL    C36 1980   0.840   7.028   2.286 -0.4025  0.4707  1.1574
   13MOL    O37 1981   0.867   6.993   2.402 -0.1953  0.1707 -0.0052
   13MOL    H38 1982   0.735   6.781   2.314 -0.5634 -1.2171  0.4196
   13MOL    H39 1983   0.593   6.875   2.337  0.2056  0.5608 -1.2931
   13MOL    H40 1984   0.664   7.018   2.164  0.2432 -0.6328 -2.7947
   13MOL    H41 1985   0.786   6.925   2.102  0.1911 -0.0034 -0.7824
   13MOL    C42 1986   0.898   7.152   2.221 -0.2351 -0.8767  0.7082
   13MOL    C43 1987   0.981   7.243   2.312  0.3379  0.9701  0.7526
   13MOL    C44 1988   0.948   7.389   2.304 -0.3525  0.1019 -0.6287
   13MOL    O45 1989   0.866   7.436   2.225 -0.1525 -0.5875 -0.0998
   13MOL    H46 1990   0.815   7.202   2.172 -0.0851  0.9859  2.2714
   13MOL    H47 1991   0.975   7.124   2.149  0.7240 -0.7176  1.6528
   13MOL    H48 1992   1.081   7.238   2.268  0.0798 -1.2710  0.3357
   13MOL    H49 1993   0.989   7.203   2.413  1.7401 -0.8971 -0.0603
   13MOL    C50 1994   1.022   7.471   2.416 -0.5067  0.6027  0.1948
   13MOL    C51 1995   1.010   7.634   2.401  0.3069  0.3617  0.0706
   13MOL    C52 1996   1.151   7.697   2.382 -0.3260 -0.0816 -0.0955
   13MOL    O53 1997   1.247   7.652   2.445  0.3846  0.3867 -0.3500
   13MOL    H54 1998   1.126   7.444   2.398 -1.0762 -0.4926 -1.5367
   13MOL    H55 1999   0.983   7.438   2.512  3.4107  1.0230  2.0619
   13MOL    H56 2000   0.964   7.677   2.491 -2.1180  0.0198 -0.9768
   13MOL    H57 2001   0.941   7.658   2.320 -0.2208 -1.8099 -0.1430
   13MOL    C58 2002   1.162   7.832   2.302 -0.4722 -0.5591  0.5714
   13MOL    C59 2003   1.312   0.002   2.264 -0.1649 -0.1442 -0.0190
   13MOL    C60 2004   1.343   0.146   2.230  0.3258  0.1212 -0.1567
   13MOL    O61 2005   1.252   0.227   2.224 -0.3594 -0.6816  0.4826
   13MOL    H62 2006   1.110   0.039   2.372  0.3073 -0.5551  1.1461
   13MOL    H63 2007   1.100   7.834   2.212 -2.7084  1.1885  2.1069
   13MOL    H64 2008   1.357   7.799   2.187  0.0032  1.9990 -1.7103
   13MOL    H65 2009   1.369   7.832   2.353 -2.3965  0.9254  1.8336
   13MOL    C66 2010   1.478   0.192   2.186 -0.1599  0.3702 -0.4651
   13MOL    C67 2011   1.522   0.309   2.283 -0.0383 -0.4162 -0.7165
   13MOL    C68 2012   1.627   0.398   2.224  0.4897  0.4796 -0.0111
   13MOL    O69 2013   1.740   0.414   2.270  0.2782  1.0255  0.4984
   13MOL    H70 2014   1.480   0.218   2.080 -0.5296  0.5732 -0.4237
   13MOL    H71 2015   1.554   0.114   2.194 -0.3493  0.1558 -0.7616
   13MOL    H72 2016   1.545   0.273   2.383  0.0016 -3.7283 -1.8358
   13MOL    H73 2017   1.436   0.375   2.291 -0.4158 -0.8325 -1.2977
   13MOL    C74 2018   1.584   0.485   2.109  1.0195 -0.0290 -0.8071
   13MOL    C75 2019   1.642   0.629   2.108 -0.6399 -0.8773 -0.0091
   13MOL    C76 2020   1.530   0.728   2.153 -1.3188  0.1425 -0.1091
   13MOL    O77 2021   1.548   0.795   2.252  0.1071 -0.8793  0.1891
   13MOL    H78 2022   1.477   0.481   2.092  1.0967 -0.6674 -1.1435
   13MOL    H79 2023   1.631   0.442   2.020  1.7203 -2.6772  0.7805
   13MOL    H80 2024   1.676   0.641   2.005  0.0915  2.1120  0.5301
   13MOL    H81 2025   1.733   0.641   2.167 -2.1130 -0.6532  2.2845
   13MOL    C82 2026   1.395   0.740   2.080 -0.1482 -0.8699  0.0405
   13MOL    C83 2027   1.278   0.807   2.154  0.1916 -0.1161  0.2919
   13MOL    C84 2028   1.211   0.729   2.274  0.0354 -0.5927  0.8074
   13MOL    O85 2029   1.245   0.610   2.295  0.0353  1.0791  0.0961
   13MOL    H86 2030   1.366   0.652   2.021 -2.6760  0.1994 -0.3796
   13MOL    H87 2031   1.428   0.804   1.999 -0.2710  1.2562  1.6454
   13MOL    H88 2032   1.195   0.833   2.088  0.6783 -2.0788 -1.1399
   13MOL    H89 2033   1.301   0.903   2.201 -0.0803 -0.9082  2.0562
   13MOL    C90 2034   1.119   0.804   2.376  0.1441  0.2770  0.0365
   13MOL    C91 2035   1.114   0.732   2.511 -0.0999  0.8049  0.1150
   13MOL    C92 2036   1.084   0.833   2.620 -0.5447  0.4222  0.0021
   13MOL    O93 2037   1.144   0.939   2.621  0.3586 -0.1180 -0.0915
   13MOL    H94 2038   1.018   0.812   2.335  1.2581  2.3794 -2.4349
   13MOL    H95 2039   1.155   0.907   2.385 -1.0447  0.8111 -1.1155
   13MOL    H96 2040   1.208   0.686   2.539 -1.0576 -1.3546 -0.1028
   13MOL    H97 2041   1.038   0.654   2.512  0.7345  0.0053  2.3558
   13MOL    C98 2042   0.974   0.800   2.713  0.0198 -0.2210 -0.0001
   13MOL    C99 2043   1.002   0.848   2.857  0.5477 -0.3020 -0.0509
   13MOL   C100 2044   0.870   0.838   2.927 -0.0811  0.0100  0.4546
   13MOL   O101 2045   0.796   0.740   2.913  0.1110  0.3716 -0.2406
   13MOL   H102 2046   0.984   0.692   2.715  3.5659  0.0655  3.2233
   13MOL   H103 2047   0.878   0.834   2.673 -1.2500  0.0010  3.1249
   13MOL   H104 2048   1.044   0.949   2.853  2.3714 -1.0396 -0.3078
   13MOL   H105 2049   1.074   0.779   2.902 -0.2524  0.1729  2.0346
   13MOL   C106 2050   0.824   0.967   2.994 -0.3509  0.4174  0.4767
   13MOL   C107 2051   0.720   0.939   3.115  0.7398 -0.0632 -0.3488
   13MOL   C108 2052   0.785   0.862   3.230 -0.7908  0.3784  0.6944
   13MOL   O109 2053   0.910   0.862   3.248 -0.3666  0.2713 -0.6160
   13MOL   H110 2054   0.786   1.039   2.921  1.2733  0.2624 -0.5251
   13MOL   H111 2055   0.914   1.009   3.040 -0.2039 -2.7865  3.2615
   13MOL   H112 2056   0.630   0.888   3.083 -0.0090 -0.1288  1.7873
   13MOL   H113 2057   0.694   1.037   3.154  0.1605 -0.2045 -0.3756
   13MOL   C114 2058   0.705   0.783   3.328  0.0818 -0.1266  1.3114
   13MOL   C115 2059   0.769   0.790   3.468  0.1672  0.5565 -0.1961
   13MOL   C116 2060   0.790   0.654   3.536  0.1479  0.3412  0.2665
   13MOL   O117 2061   0.718   0.557   3.506 -0.9256 -0.5734 -0.1134
   13MOL   H118 2062   0.681   0.684   3.289  2.0011  0.7985 -2.4456
   13MOL   H119 2063   0.607   0.829   3.333 -0.6615 -1.6335  0.8902
   13MOL   H120 2064   0.702   0.851   3.527  0.1122  0.2147  0.0970
   13MOL   H121 2065   0.863   0.844   3.477 -0.7478  2.2730 -0.8109
   13MOL   C122 2066   0.893   0.652   3.645  0.2143 -0.6778 -0.1062
   13MOL   C123 2067   0.934   0.514   3.703  0.5780 -0.0500 -0.5908
   13MOL   C124 2068   1.042   0.442   3.623  0.2514 -0.1944  0.1064
   13MOL   O125 2069   1.087   0.487   3.518  0.0361  0.2093 -0.4198
   13MOL   H126 2070   0.864   0.715   3.729  3.1169  0.2334  0.2684
   13MOL   H127 2071   0.976   0.703   3.595 -0.6497  0.5054 -0.3463
   13MOL   H128 2072   0.848   0.448   3.706  1.8495 -1.6741  1.0954
   13MOL   H129 2073   0.959   0.521   3.809  0.2994  1.3267 -0.6067
   13MOL   C130 2074   1.077   0.303   3.661  0.0424  0.5825 -0.2462
   13MOL   C131 2075   0.993   0.195   3.591 -0.9822 -1.2224 -1.0116
   13MOL   C132 2076   0.953   0.093   3.694  0.1205  0.3902 -0.3983
   13MOL   O133 2077   0.878   0.121   3.789 -0.1748  0.2684 -0.6158
   13MOL   H134 2078   1.058   0.293   3.768 -0.1688  0.7628 -0.2668
   13MOL   H135 2079   1.181   0.278   3.644  0.1796  0.7186  0.3841
   13MOL   H136 2080   1.043   0.146   3.508 -0.3416 -0.7099 -0.9354
   13MOL   H137 2081   0.901   0.247   3.564 -0.3907  1.5644  2.0168
   13MOL   C138 2082   1.016   7.810   3.683 -0.3811  0.8677 -0.1993
   13MOL   C139 2083   0.976   7.711   3.795  0.8229 -0.3389 -0.0136
   13MOL   C140 2084   0.977   7.570   3.747 -0.7583 -0.1018  0.6990
   13MOL   O141 2085   0.994   7.544   3.627 -0.7762 -0.2905 -0.0041
   13MOL   H142 2086   1.124   7.818   3.667 -0.3174  0.4520  0.0181
   13MOL   H143 2087   0.986   7.779   3.583  3.3382 -1.9354 -0.5674
   13MOL   H144 2088   0.871   7.726   3.820  1.2245 -0.0561  1.5658
   13MOL   H145 2089   1.035   7.741   3.882  1.7551 -1.7958 -0.1218
   13MOL   C146 2090   0.944   7.458   3.850  0.2283  0.2502  0.4385
   13MOL   C147 2091   1.053   7.343   3.865 -0.3646  0.2404 -0.6734
   13MOL   C148 2092   1.165   7.385   3.954  0.4608 -0.4841  0.1136
   13MOL   O149 2093   1.195   7.503   3.977  0.2756  0.3423 -0.0851
   13MOL   H150 2094   0.844   7.424   3.822 -0.6520  0.2975  3.3208
   13MOL   H151 2095   0.937   7.508   3.947  0.9236  3.6720 -1.1988
   13MOL   H152 2096   1.083   7.320   3.763  2.1956  1.0113 -0.1369
   13MOL   H153 2097   1.012   7.257   3.917  0.9361  0.6745  1.1368
   13MOL   C154 2098   1.258   7.273   4.004  0.6662 -0.0768  0.3472
   13MOL   C155 2099   1.363   7.308   4.112  0.2757  0.7750 -0.3078
   13MOL   C156 2100   1.504   7.328   4.065 -0.0825 -0.6246 -0.1183
   13MOL   O157 2101   1.537   7.331   3.947  0.0360 -0.3035 -0.2923
   13MOL   H158 2102   1.303   7.215   3.923  0.9817 -0.3746  0.7316
   13MOL   H159 2103   1.189   7.198   4.041  0.9268  0.0126  1.0207
   13MOL   H160 2104   1.383   7.232   4.188  0.2563 -0.1700 -1.2279
   13MOL   H161 2105   1.330   7.395   4.168 -0.2091  1.2409 -1.3140
   13MOL   H162 2106   1.574   7.337   4.148 -0.4350  0.9677  0.0095
   14MOL     C1 2107   0.571   6.149   0.449  0.6968 -0.4922  0.2364
   14MOL     C2 2108   0.474   6.271   0.422 -0.3297 -0.3138  0.4456
   14MOL     C3 2109   0.417   6.328   0.555 -0.0013 -0.8673  0.7843
   14MOL     O4 2110   0.325   6.269   0.603  0.7383 -0.0514 -0.1428
   14MOL     H5 2111   0.531   6.047   0.453 -0.5528  0.0017  0.6757
   14MOL     H6 2112   0.638   6.147   0.363  2.4713 -2.9227  1.6197
   14MOL     H7 2113   0.388   6.225   0.374  0.1402 -0.3858 -0.3378
   14MOL     H8 2114   0.524   6.346   0.360 -1.6828  1.3247  1.2794
   14MOL     H9 2115   0.643   6.170   0.528  0.3207 -0.9512  0.7081
   14MOL    C10 2116   0.490   6.447   0.623 -0.7692  0.2981 -0.1006
   14MOL    C11 2117   0.392   6.520   0.706 -0.0053 -0.0865  0.1104
   14MOL    C12 2118   0.443   6.565   0.841 -0.8258  0.3384 -0.1441
   14MOL    O13 2119   0.564   6.562   0.866  0.3244 -0.0569 -0.5158
   14MOL    H14 2120   0.534   6.507   0.543  1.5686 -0.4669  0.5675
   14MOL    H15 2121   0.575   6.409   0.680 -1.5358 -2.9509 -1.0731
   14MOL    H16 2122   0.300   6.467   0.730  0.2571  0.2273  1.8904
   14MOL    H17 2123   0.357   6.614   0.663  0.2977  0.0403  0.1386
   14MOL    C18 2124   0.334   6.595   0.948 -0.6207  0.6143 -0.0746
   14MOL    C19 2125   0.345   6.708   1.045 -0.1985  0.2180  0.2544
   14MOL    C20 2126   0.306   6.844   0.989 -0.9071 -0.0636  0.7727
   14MOL    O21 2127   0.354   6.873   0.875 -0.3254  0.0851  0.3397
   14MOL    H22 2128   0.318   6.504   1.006 -0.1397  2.7485  3.6307
   14MOL    H23 2129   0.247   6.596   0.883 -0.4738 -0.8070 -0.3051
   14MOL    H24 2130   0.446   6.722   1.083  0.1153 -1.5898  0.1406
   14MOL    H25 2131   0.296   6.698   1.142  0.1539  0.7056  0.4851
   14MOL    C26 2132   0.212   6.941   1.061  0.1364 -0.5623  0.1124
   14MOL    C27 2133   0.153   7.050   0.972 -0.1612 -0.3099 -0.2262
   14MOL    C28 2134   0.004   7.019   0.953  0.5427 -0.0240 -0.6347
   14MOL    O29 2135   7.793   6.955   1.031 -0.3644 -0.4382  0.0705
   14MOL    H30 2136   0.272   6.987   1.139  1.2550 -0.7512 -0.6253
   14MOL    H31 2137   0.142   6.875   1.113 -0.2104 -0.9869 -0.8709
   14MOL    H32 2138   0.204   7.052   0.875  0.7842  1.4912  0.2714
   14MOL    H33 2139   0.162   7.150   1.016  0.4092 -0.5364  0.1761
   14MOL    C34 2140   7.795   7.086   0.834 -0.2207  0.7470 -0.6767
   14MOL    C35 2141   7.653   7.041   0.804  0.2629  0.5711  0.0828
   14MOL    C36 2142   7.537   7.116   0.872  0.3999  0.1088 -0.5723
   14MOL    O37 2143   7.544   7.239   0.887 -0.0352 -0.1327 -0.4888
   14MOL    H38 2144   0.001   7.055   0.752  1.9091 -0.6925  1.4560
   14MOL    H39 2145   7.806   7.192   0.856 -0.1610  0.5323  0.3769
   14MOL    H40 2146   7.653   6.934   0.824  0.8184  0.4564 -0.4850
   14MOL    H41 2147   7.651   7.046   0.695  1.3609  0.4226  0.0527
   14MOL    C42 2148   7.416   7.032   0.904 -0.5254 -0.3062  0.0425
   14MOL    C43 2149   7.307   7.110   0.981  0.2860  0.1359  0.0249
   14MOL    C44 2150   7.186   7.150   0.902  1.0394  0.1229  0.8318
   14MOL    O45 2151   7.103   7.065   0.873  0.3374 -0.5931  0.8384
   14MOL    H46 2152   7.443   6.946   0.964  1.7443 -0.7884 -1.5890
   14MOL    H47 2153   7.373   6.994   0.811 -2.6366 -1.7117  1.5394
   14MOL    H48 2154   7.345   7.196   1.036  2.5596 -1.7838  1.5661
   14MOL    H49 2155   7.266   7.036   1.050 -0.0839  1.4768  1.2516
   14MOL    C50 2156   7.177   7.297   0.876  0.8039  0.2645  0.2890
   14MOL    C51 2157   7.071   7.334   0.770 -0.6071  0.0947 -0.8420
   14MOL    C52 2158   6.951   7.419   0.822 -0.5340 -0.1056  0.1165
   14MOL    O53 2159   6.924   7.446   0.936 -0.4815 -0.1731  0.0257
   14MOL    H54 2160   7.273   7.335   0.841  0.4540 -1.5797 -2.8598
   14MOL    H55 2161   7.156   7.348   0.970  2.9993  0.4233  0.7320
   14MOL    H56 2162   7.018   7.247   0.732 -0.7447 -0.5139  0.7135
   14MOL    H57 2163   7.123   7.386   0.689  1.3857  0.0577  0.3616
   14MOL    C58 2164   6.870   7.472   0.702  0.4095  0.0652 -0.7234
   14MOL    C59 2165   6.730   7.520   0.733 -0.2876 -0.4271  0.3185
   14MOL    C60 2166   6.703   7.666   0.702 -0.1323  0.5165  0.6028
   14MOL    O61 2167   6.764   7.758   0.756  0.0579 -0.2031  0.3432
   14MOL    H62 2168   6.888   7.389   0.634 -0.3478 -1.0459  0.4196
   14MOL    H63 2169   6.925   7.554   0.656 -0.4684 -0.0754 -2.0384
   14MOL    H64 2170   6.695   7.491   0.832 -2.5106  1.4651  0.1195
   14MOL    H65 2171   6.680   7.464   0.653  0.3006  0.4133 -0.6393
   14MOL    C66 2172   6.591   7.694   0.598 -0.6346  0.3552 -0.3925
   14MOL    C67 2173   6.582   7.841   0.565  1.1132  0.0772 -0.2256
   14MOL    C68 2174   6.665   0.024   0.445 -0.4821 -0.3531  1.0784
   14MOL    O69 2175   6.717   7.796   0.376 -0.0312  0.6994  0.5156
   14MOL    H70 2176   6.493   7.655   0.626  1.3393 -1.3703  4.4630
   14MOL    H71 2177   6.608   7.637   0.507  0.2528 -1.9691  1.2019
   14MOL    H72 2178   6.606   0.037   0.655  0.4134  0.2909 -0.1691
   14MOL    H73 2179   6.478   7.856   0.536  0.3568 -0.2874  2.2480
   14MOL    C74 2180   6.679   0.169   0.427 -0.9325 -0.4177  0.1115
   14MOL    C75 2181   6.782   0.207   0.323  0.1810  0.7336  1.1132
   14MOL    C76 2182   6.862   0.328   0.365  0.1210 -0.1996 -0.2694
   14MOL    O77 2183   6.938   0.316   0.468 -0.0983 -0.5854 -0.4685
   14MOL    H78 2184   6.718   0.205   0.522  1.1546 -1.0449 -0.4850
   14MOL    H79 2185   6.581   0.214   0.410 -0.2407  0.9709 -0.3731
   14MOL    H80 2186   6.741   0.237   0.226  0.8239  0.6791  0.8228
   14MOL    H81 2187   6.849   0.124   0.301 -0.2085  0.1215  2.2286
   14MOL    C82 2188   6.840   0.462   0.293 -0.2506 -0.2836 -0.2217
   14MOL    C83 2189   6.787   0.574   0.389  0.7925  0.3281 -0.0673
   14MOL    C84 2190   6.859   0.703   0.378 -0.0696 -0.2446 -0.5189
   14MOL    O85 2191   6.972   0.713   0.435  1.1801  0.3373 -0.3543
   14MOL    H86 2192   6.778   0.455   0.204 -0.6621  1.3540 -0.0970
   14MOL    H87 2193   6.940   0.486   0.257 -0.2070 -1.5116 -0.9066
   14MOL    H88 2194   6.802   0.534   0.490 -0.2618 -0.8492 -0.3728
   14MOL    H89 2195   6.679   0.585   0.386  0.3995 -0.4002  5.2772
   14MOL    C90 2196   6.802   0.819   0.295  0.3187 -0.3841 -0.6002
   14MOL    C91 2197   6.897   0.921   0.234 -0.2287  0.8780 -0.2191
   14MOL    C92 2198   6.972   0.872   0.113 -0.0880  0.2212 -0.8239
   14MOL    O93 2199   6.906   0.830   0.020  0.0292 -0.1635  0.0405
   14MOL    H94 2200   6.727   0.873   0.354  1.2317 -0.2636  0.4754
   14MOL    H95 2201   6.742   0.772   0.217  0.4285 -0.4863 -0.6229
   14MOL    H96 2202   6.953   0.986   0.300  1.1857  1.1078 -1.6093
   14MOL    H97 2203   6.829   0.998   0.196  1.3377  1.8776 -1.0511
   14MOL    C98 2204   7.127   0.887   0.115  0.0793  0.9465  0.5815
   14MOL    C99 2205   7.187   0.872   7.831  0.3080 -0.4695 -0.7565
   14MOL   C100 2206   7.333   0.837   7.825 -0.2701  0.3251  0.2259
   14MOL   O101 2207   7.409   0.903   7.752  0.2817  0.3220  0.3520
   14MOL   H102 2208   7.161   0.805   0.180 -0.1835 -0.8497 -1.4922
   14MOL   H103 2209   7.167   0.980   0.154  2.9304  0.0020  0.0936
   14MOL   H104 2210   7.160   0.951   7.760 -0.2956  0.8712  0.9157
   14MOL   H105 2211   7.135   0.796   7.773 -1.3660 -1.3451  1.7921
   14MOL   C106 2212   7.380   0.715   0.041  0.0128  0.3822  0.6198
   14MOL   C107 2213   7.437   0.605   7.810 -0.2130 -0.4477 -0.5564
   14MOL   C108 2214   7.330   0.519   7.742 -0.6838  0.5265  0.3495
   14MOL   O109 2215   7.210   0.539   7.754 -0.4208  0.2240  0.1328
   14MOL   H110 2216   7.298   0.672   0.098  1.6055 -1.7551  1.3811
   14MOL   H111 2217   7.445   0.748   0.121 -1.2844  0.7651  1.5347
   14MOL   H112 2218   7.507   0.551   0.014  0.5652  0.7114 -0.4241
   14MOL   H113 2219   7.497   0.636   7.724  2.5968  0.4418  1.6681
   14MOL   C114 2220   7.378   0.404   7.646  0.0018  0.6982  0.1604
   14MOL   C115 2221   7.265   0.316   7.590  0.6647  0.1784  0.4634
   14MOL   C116 2222   7.194   0.233   7.693 -0.0643 -0.2601  0.3061
   14MOL   O117 2223   7.244   0.209   7.805 -0.9390  0.4216 -0.9931
   14MOL   H118 2224   7.437   0.340   7.711 -2.5967  0.4018  2.2796
   14MOL   H119 2225   7.433   0.451   7.564 -0.3958 -0.0083 -0.5286
   14MOL   H120 2226   7.311   0.248   7.518 -0.0808 -0.7082  0.8164
   14MOL   H121 2227   7.194   0.379   7.536  0.6408  0.0339  0.3282
   14MOL   C122 2228   7.047   0.185   7.656 -0.1471 -0.0227  0.0338
   14MOL   C123 2229   6.964   0.119   7.772  0.2707 -0.0932  0.1213
   14MOL   C124 2230   6.816   0.145   7.756 -0.0836 -0.5550 -0.2062
   14MOL   O125 2231   6.766   0.245   7.802 -0.0062 -0.2301  0.0446
   14MOL   H126 2232   7.055   0.117   7.571  2.0049  0.1376  0.0766
   14MOL   H127 2233   7.001   0.273   7.611 -0.2134 -0.3195 -0.4932
   14MOL   H128 2234   6.981   0.178   0.003  0.5235 -0.9986  0.6675
   14MOL   H129 2235   6.989   0.017   7.801 -0.6800 -0.7768 -1.4244
   14MOL   C130 2236   6.729   0.038   7.684 -0.4667 -1.0879 -0.0266
   14MOL   C131 2237   6.607   7.857   7.773 -0.1246 -0.0489 -0.0936
   14MOL   C132 2238   6.595   7.713   7.806  0.2476 -0.6851  0.8296
   14MOL   O133 2239   6.699   7.651   7.823  0.7955  0.3402  0.2414
   14MOL   H134 2240   6.780   7.805   7.655  0.3839 -0.5229 -0.3077
   14MOL   H135 2241   6.693   0.087   7.594  0.9945 -2.4468 -1.3702
   14MOL   H136 2242   6.515   0.027   7.724  0.4224 -0.4749 -1.4183
   14MOL   H137 2243   6.602   0.050   0.009  0.0752  0.9309 -0.6157
   14MOL   C138 2244   6.454   7.660   7.824 -0.7559  0.1171 -0.7167
   14MOL   C139 2245   6.447   7.511   0.020 -0.0756 -0.3343 -0.1555
   14MOL   C140 2246   6.356   7.524   0.139 -0.0346 -0.0819 -0.4503
   14MOL   O141 2247   6.237   7.491   0.133 -0.3640 -0.3108  0.2690
   14MOL   H142 2248   6.399   7.671   7.730 -2.0090 -2.4458 -0.3329
   14MOL   H143 2249   6.400   7.731   0.027  0.5947  0.1742  0.4228
   14MOL   H144 2250   6.544   7.469   0.049 -0.8279 -1.0017  1.4261
   14MOL   H145 2251   6.415   7.439   7.803 -0.4812 -0.9390  0.5877
   14MOL   C146 2252   6.406   7.580   0.280  0.5045  0.1307  0.1694
   14MOL   C147 2253   6.289   7.617   0.372  0.6699  0.2023  0.1087
   14MOL   C148 2254   6.221   7.750   0.324  0.5839  0.1516  0.3786
   14MOL   O149 2255   6.289   7.852   0.305  0.3585  0.0565  0.0757
   14MOL   H150 2256   6.487   7.652   0.264 -0.2837  1.0138  0.1071
   14MOL   H151 2257   6.459   7.502   0.333 -0.3746 -0.2352  0.5192
   14MOL   H152 2258   6.329   7.621   0.474 -1.6712 -1.2048  1.1210
   14MOL   H153 2259   6.217   7.536   0.382  1.4385 -0.5224 -0.1666
   14MOL   C154 2260   6.075   7.747   0.279 -0.6161  0.4140  0.0436
   14MOL   C155 2261   6.016   0.028   0.255  0.2519 -0.7051  0.0615
   14MOL   C156 2262   5.867   0.052   0.295 -0.6752 -0.3858 -0.0876
   14MOL   O157 2263   5.814   0.002   0.394  0.3678 -0.0565 -0.3716
   14MOL   H158 2264   6.020   7.694   0.357  0.5184  0.2296  0.7324
   14MOL   H159 2265   6.065   7.687   0.189  2.6922  1.1373 -0.8541
   14MOL   H160 2266   6.037   0.053   0.151  1.8439  1.5633  0.8911
   14MOL   H161 2267   6.057   0.106   0.319  0.7679 -0.2573 -0.8028
   14MOL   H162 2268   5.807   0.110   0.225  1.3130 -0.2248 -1.7102
   15MOL     C1 2269   2.928   5.201   1.786 -0.1775 -0.0142 -0.3386
   15MOL     C2 2270   3.002   5.310   1.705 -0.2496  0.2104 -0.6960
   15MOL     C3 2271   3.001   5.441   1.780  0.1112  0.0529 -0.0665
   15MOL     O4 2272   2.904   5.473   1.846  0.5935  0.0420  0.0940
   15MOL     H5 2273   2.966   5.182   1.887 -0.5732  1.6480  0.1394
   15MOL     H6 2274   2.826   5.232   1.809 -0.1049 -0.1165  0.1408
   15MOL     H7 2275   2.954   5.328   1.609 -2.1700 -1.2866 -0.0469
   15MOL     H8 2276   3.102   5.272   1.683 -0.1774 -1.9987  3.0120
   15MOL     H9 2277   2.920   5.109   1.728 -0.7275 -0.0955 -0.1345
   15MOL    C10 2278   3.116   5.529   1.740  0.3100  0.5897 -0.7086
   15MOL    C11 2279   3.090   5.612   1.612 -0.4640  0.4057  0.0560
   15MOL    C12 2280   3.080   5.766   1.617  0.7351 -0.6140 -0.0980
   15MOL    O13 2281   3.155   5.823   1.696  0.2341 -0.1391  0.3001
   15MOL    H14 2282   3.199   5.462   1.720 -2.2270 -2.7489 -0.4325
   15MOL    H15 2283   3.143   5.589   1.827 -1.6378  1.1067 -0.4223
   15MOL    H16 2284   3.006   5.568   1.559 -0.4872 -0.4057  0.7498
   15MOL    H17 2285   3.181   5.585   1.558  0.1841 -0.9598  1.7560
   15MOL    C18 2286   2.962   5.836   1.546  1.0962 -0.0974 -0.1259
   15MOL    C19 2287   2.992   5.979   1.510 -0.3884  0.6176 -0.3349
   15MOL    C20 2288   2.980   6.008   1.360  0.1268 -0.0762  0.0006
   15MOL    O21 2289   2.876   6.059   1.309 -0.0998  0.0505  0.5195
   15MOL    H22 2290   2.866   5.815   1.594  1.5770  1.0414  1.3785
   15MOL    H23 2291   2.963   5.775   1.456 -0.3759 -1.9693  1.0997
   15MOL    H24 2292   3.093   6.001   1.543  0.8596 -3.2086 -1.3282
   15MOL    H25 2293   2.914   6.036   1.560 -0.3520 -0.7378  1.3182
   15MOL    C26 2294   3.106   5.969   1.276  0.0895 -0.6176  0.6859
   15MOL    C27 2295   3.072   5.919   1.136  0.4784  1.2071  0.1713
   15MOL    C28 2296   3.090   5.770   1.109  0.1313 -0.2841  0.1148
   15MOL    O29 2297   3.123   5.690   1.199  0.1942 -0.5088 -0.6834
   15MOL    H30 2298   3.168   5.896   1.327  1.1193 -1.4188 -1.6294
   15MOL    H31 2299   3.171   6.055   1.262 -1.1760  0.0552 -1.3220
   15MOL    H32 2300   3.150   5.961   1.073  2.0459 -1.1171  0.4940
   15MOL    H33 2301   2.970   5.943   1.104  0.6541 -0.6290 -1.8958
   15MOL    C34 2302   3.058   5.709   0.972  0.3913  0.1874  0.1588
   15MOL    C35 2303   2.901   5.720   0.945 -0.1730  0.2066  0.2571
   15MOL    C36 2304   2.866   5.810   0.832 -0.7537  0.0832  0.0774
   15MOL    O37 2305   2.910   5.928   0.818 -0.1590  0.0753 -0.0494
   15MOL    H38 2306   3.106   5.611   0.971 -1.3397 -0.6838 -1.6844
   15MOL    H39 2307   3.112   5.767   0.897  0.7768 -0.4178 -0.0298
   15MOL    H40 2308   2.848   5.748   1.036 -0.2516 -0.5266  0.4399
   15MOL    H41 2309   2.859   5.621   0.931 -0.7931  0.5045  0.0343
   15MOL    C42 2310   2.750   5.766   0.741 -0.0511 -0.5345  0.3057
   15MOL    C43 2311   2.758   5.824   0.595 -0.1770  0.2054 -0.3328
   15MOL    C44 2312   2.619   5.818   0.532 -0.3310  0.2998 -0.3044
   15MOL    O45 2313   2.564   5.715   0.492 -0.8517  0.2711  0.8742
   15MOL    H46 2314   2.657   5.797   0.789 -0.8836 -0.3290 -1.3972
   15MOL    H47 2315   2.758   5.658   0.739  1.3024 -0.5573  3.8527
   15MOL    H48 2316   2.824   5.768   0.530  0.6011 -0.2906  0.8711
   15MOL    H49 2317   2.809   5.920   0.599 -0.8716  0.5285  1.0620
   15MOL    C50 2318   2.551   5.951   0.536 -0.1857  0.0334  0.0885
   15MOL    C51 2319   2.420   5.960   0.449 -0.3256 -0.4259 -0.8964
   15MOL    C52 2320   2.385   6.105   0.414  0.4633 -0.3533  0.1426
   15MOL    O53 2321   2.435   6.207   0.468  0.0312  0.1578  0.0986
   15MOL    H54 2322   2.626   6.024   0.504  1.4057 -1.0445  1.2758
   15MOL    H55 2323   2.538   5.974   0.642  1.9582 -0.1448  0.4210
   15MOL    H56 2324   2.339   5.915   0.507 -0.4277  0.4960 -0.3107
   15MOL    H57 2325   2.434   5.906   0.356 -0.2224 -0.1879 -1.0186
   15MOL    C58 2326   2.281   6.136   0.309 -0.7441  0.3313  0.5264
   15MOL    C59 2327   2.186   6.250   0.351  0.3120 -0.3799  0.0270
   15MOL    C60 2328   2.095   6.292   0.243 -0.1036 -0.8646  0.4398
   15MOL    O61 2329   2.067   6.218   0.153  0.0578  0.0142 -0.1921
   15MOL    H62 2330   2.232   6.041   0.289 -1.1771  0.3445  1.5187
   15MOL    H63 2331   2.339   6.162   0.220 -0.4941 -0.0891  0.5647
   15MOL    H64 2332   2.240   6.332   0.399  2.1980 -0.6509 -1.5891
   15MOL    H65 2333   2.117   6.216   0.428 -0.6848  0.6431 -0.4040
   15MOL    C66 2334   2.062   6.436   0.242 -0.7946 -0.1283  0.2627
   15MOL    C67 2335   2.009   6.484   0.106 -0.1979  0.0328 -0.3551
   15MOL    C68 2336   1.856   6.476   0.093  0.2276  0.7279 -0.3096
   15MOL    O69 2337   1.781   6.441   0.181 -0.4521  0.4224 -0.4059
   15MOL    H70 2338   2.156   6.486   0.266  0.3946 -1.7151 -0.9901
   15MOL    H71 2339   1.991   6.449   0.324 -0.1572 -0.2749  0.8506
   15MOL    H72 2340   2.056   6.442   0.017 -0.2736  1.6417 -1.1612
   15MOL    H73 2341   2.043   6.586   0.090  1.0517 -0.4612 -0.9139
   15MOL    C74 2342   1.799   6.507   7.811  0.1397  0.0747 -0.5298
   15MOL    C75 2343   1.727   6.386   7.747  0.1603 -0.3404 -0.8143
   15MOL    C76 2344   1.810   6.310   7.647  0.1241  0.3624  1.2645
   15MOL    O77 2345   1.935   6.309   7.665  0.3559 -0.1437  0.0391
   15MOL    H78 2346   1.883   6.534   7.748  1.1536 -1.3170  0.1997
   15MOL    H79 2347   1.730   6.592   7.818  0.5295  0.3830 -0.3961
   15MOL    H80 2348   1.631   6.419   7.708  0.4384 -1.6534 -2.6986
   15MOL    H81 2349   1.690   6.320   7.825  0.6397 -0.9474 -1.1003
   15MOL    C82 2350   1.744   6.222   7.546  0.1664  0.0393  0.0308
   15MOL    C83 2351   1.830   6.194   7.425 -0.3791 -0.4982 -0.1430
   15MOL    C84 2352   1.904   6.062   7.432  0.2192  0.4106  0.1770
   15MOL    O85 2353   1.849   5.964   7.482  0.3164 -0.0943 -0.9209
   15MOL    H86 2354   1.651   6.267   7.511  0.5194  1.6682  1.1618
   15MOL    H87 2355   1.706   6.136   7.601 -0.3044 -0.6925 -1.4041
   15MOL    H88 2356   1.892   6.278   7.392 -0.7325 -0.8852 -1.8764
   15MOL    H89 2357   1.745   6.182   7.357 -0.8446  0.9936  0.1565
   15MOL    C90 2358   2.038   6.063   7.367  0.3740  0.0389  0.2125
   15MOL    C91 2359   2.148   6.145   7.442  0.3316  0.2830  0.6292
   15MOL    C92 2360   2.194   6.265   7.357 -0.0457  0.7185  0.6122
   15MOL    O93 2361   2.109   6.326   7.289  0.3768  0.0498  0.0069
   15MOL    H94 2362   2.022   6.085   7.261 -0.9366 -0.6562  0.2646
   15MOL    H95 2363   2.078   5.962   7.361  0.7749  0.1838  0.3912
   15MOL    H96 2364   2.235   6.090   7.477  0.0059  0.7412  2.1991
   15MOL    H97 2365   2.093   6.186   7.527 -1.9780  0.9404 -1.1243
   15MOL    C98 2366   2.345   6.299   7.361 -0.3956 -0.0094 -0.7451
   15MOL    C99 2367   2.434   6.230   7.255  0.8234 -0.3287 -0.2540
   15MOL   C100 2368   2.495   6.108   7.310 -0.0187  0.1595  1.2238
   15MOL   O101 2369   2.439   6.033   7.388 -0.5334  0.0236 -0.1277
   15MOL   H102 2370   2.389   6.265   7.455  0.1873  2.4366 -0.0937
   15MOL   H103 2371   2.359   6.405   7.341 -0.9762  0.1210 -0.4655
   15MOL   H104 2372   2.515   6.296   7.225  3.6042 -2.5424  2.0607
   15MOL   H105 2373   2.384   6.205   7.161  1.2300  1.4446 -0.9631
   15MOL   C106 2374   2.635   6.065   7.249 -0.1087 -0.6543 -0.2808
   15MOL   C107 2375   2.633   5.911   7.219 -0.5835  0.1716 -0.4085
   15MOL   C108 2376   2.708   5.855   7.094 -0.4349  0.3100 -0.1059
   15MOL   O109 2377   2.794   5.915   7.041  0.5720 -0.3632 -0.0338
   15MOL   H110 2378   2.710   6.094   7.323 -1.2860  0.9787  0.2793
   15MOL   H111 2379   2.659   6.130   7.165 -1.5658 -0.5378 -0.6031
   15MOL   H112 2380   2.530   5.881   7.201 -0.6982  0.7119 -0.6744
   15MOL   H113 2381   2.645   5.854   7.311  0.9921 -1.2544 -1.4543
   15MOL   C114 2382   2.686   5.705   7.065 -0.4639  0.3173  0.0805
   15MOL   C115 2383   2.777   5.645   6.961 -0.3815 -0.2088  0.0950
   15MOL   C116 2384   2.905   5.585   7.023 -0.1806  0.1306  0.2471
   15MOL   O117 2385   2.917   5.562   7.142  0.2330  0.8858  0.2368
   15MOL   H118 2386   2.591   5.706   7.012 -1.0213 -1.0916  1.0257
   15MOL   H119 2387   2.697   5.649   7.158  1.5679  0.8034  0.1518
   15MOL   H120 2388   2.820   5.718   6.893  1.1299 -3.2068 -2.2915
   15MOL   H121 2389   2.738   5.556   6.911  1.6324 -0.6993 -0.6461
   15MOL   C122 2390   3.028   5.571   6.934  0.4062 -0.0362 -0.1247
   15MOL   C123 2391   3.158   5.511   7.001 -0.2776 -0.0897  0.2944
   15MOL   C124 2392   3.205   5.379   6.947 -0.1069  0.6327 -0.0023
   15MOL   O125 2393   3.188   5.348   6.830  0.3778  0.0620  0.7802
   15MOL   H126 2394   3.054   5.668   6.891 -1.8736 -0.0568 -1.6323
   15MOL   H127 2395   3.002   5.508   6.849 -1.9745  0.3446  0.2944
   15MOL   H128 2396   3.151   5.510   7.110  2.2616 -1.4306  0.4878
   15MOL   H129 2397   3.235   5.583   6.972 -1.2417  1.7390  2.1737
   15MOL   C130 2398   3.286   5.284   7.036  0.5039 -0.3553  0.1835
   15MOL   C131 2399   3.415   5.248   6.969 -0.4116  1.2334 -0.0394
   15MOL   C132 2400   3.446   5.102   6.979 -0.2509  0.1786  0.4145
   15MOL   O133 2401   3.376   5.030   7.046  0.0754  0.3316 -0.3472
   15MOL   H134 2402   3.224   5.196   7.058  0.1283  0.1095  1.0259
   15MOL   H135 2403   3.317   5.328   7.131 -1.9014 -0.6075  1.1173
   15MOL   H136 2404   3.496   5.286   7.031 -2.0296  1.5650  1.8836
   15MOL   H137 2405   3.433   5.272   6.864  1.7975  2.2284  0.5200
   15MOL   C138 2406   3.580   5.057   6.921 -0.3462  0.3836  0.3463
   15MOL   C139 2407   3.695   5.049   7.028  0.4453 -0.4131  0.1375
   15MOL   C140 2408   3.750   5.183   7.060 -0.0756  0.4667  0.0204
   15MOL   O141 2409   3.753   5.271   6.972  0.3176  0.2944 -0.6885
   15MOL   H142 2410   3.593   5.123   6.835  0.0270  0.4610  0.4592
   15MOL   H143 2411   3.577   4.955   6.882 -0.9326  0.6180 -0.2176
   15MOL   H144 2412   3.772   4.974   7.009  1.7655  0.2082  2.7411
   15MOL   H145 2413   3.644   5.015   7.118 -0.5317  0.8433  0.0785
   15MOL   C146 2414   3.808   5.195   7.197  0.4087  0.8077  0.7375
   15MOL   C147 2415   3.818   5.344   7.245 -0.0834  0.1959 -0.6692
   15MOL   C148 2416   3.688   5.422   7.247  0.2276  0.4030  0.8019
   15MOL   O149 2417   3.578   5.361   7.261 -0.1844  0.4946 -0.1851
   15MOL   H150 2418   3.911   5.161   7.200  0.5923  1.3976  1.2018
   15MOL   H151 2419   3.746   5.132   7.261  1.1737 -0.2248  0.4616
   15MOL   H152 2420   3.889   5.406   7.191  2.3830 -2.8570 -1.0704
   15MOL   H153 2421   3.842   5.345   7.352 -0.4580 -1.2072 -0.5647
   15MOL   C154 2422   3.695   5.572   7.227  0.4490 -0.2230  0.7607
   15MOL   C155 2423   3.562   5.629   7.181 -0.2878 -0.0184  0.1924
   15MOL   C156 2424   3.522   5.607   7.037 -0.1882 -0.0528  0.2732
   15MOL   O157 2425   3.588   5.542   6.956  0.3794 -0.2481  0.4473
   15MOL   H158 2426   3.773   5.597   7.155 -0.5726  0.1796 -0.2393
   15MOL   H159 2427   3.724   5.618   7.322  2.8582  0.7628 -0.4077
   15MOL   H160 2428   3.567   5.738   7.189  1.3858  0.1934 -3.1199
   15MOL   H161 2429   3.482   5.593   7.245  0.1152 -2.0344 -0.4056
   15MOL   H162 2430   3.430   5.662   7.018  0.1470  0.9857  1.5763
   16MOL     C1 2431   4.501   5.511   7.456  0.4541 -0.1914 -0.2483
   16MOL     C2 2432   4.580   5.407   7.380 -1.1986  0.2843  0.4151
   16MOL     C3 2433   4.711   5.367   7.456 -0.0389 -0.3183 -0.1779
   16MOL     O4 2434   4.736   5.412   7.567 -0.0622  0.5470  0.1975
   16MOL     H5 2435   4.424   5.557   7.393 -1.8059 -2.1896  0.9421
   16MOL     H6 2436   4.458   5.462   7.544 -0.5151  0.9654 -0.0645
   16MOL     H7 2437   4.608   5.441   7.280  0.6964  0.9421  1.1480
   16MOL     H8 2438   4.524   5.314   7.373  0.0240 -0.3576 -1.0596
   16MOL     H9 2439   4.560   5.599   7.480  0.6234 -0.4345  0.2272
   16MOL    C10 2440   4.813   5.274   7.394 -0.0400  0.2050  0.1990
   16MOL    C11 2441   4.773   5.123   7.407  0.5173 -0.1489  0.0870
   16MOL    C12 2442   4.821   5.053   7.532  0.2795  0.8985 -0.2834
   16MOL    O13 2443   4.929   5.067   7.589  0.3907 -0.2055  0.0819
   16MOL    H14 2444   4.905   5.285   7.452  0.7171  0.6088 -1.0651
   16MOL    H15 2445   4.829   5.295   7.288 -0.1549 -1.2498 -0.1296
   16MOL    H16 2446   4.801   5.067   7.317  0.6429 -1.4682  0.9408
   16MOL    H17 2447   4.665   5.112   7.403  0.3057  1.6949  0.1077
   16MOL    C18 2448   4.726   4.947   7.591  0.2009  0.4293  1.1776
   16MOL    C19 2449   4.652   5.014   7.717 -0.0466  0.4164 -0.4955
   16MOL    C20 2450   4.635   4.921   7.833 -0.4645  0.3202 -0.0931
   16MOL    O21 2451   4.719   4.920   0.063 -0.0678 -0.0177  0.6353
   16MOL    H22 2452   4.793   4.864   7.615 -0.2594 -1.0474 -2.4052
   16MOL    H23 2453   4.665   4.905   7.511 -0.5941  0.8649  1.5477
   16MOL    H24 2454   4.550   5.043   7.691  0.0557  1.7731  0.5999
   16MOL    H25 2455   4.708   5.101   7.751  0.5419 -0.0024 -0.3835
   16MOL    C26 2456   4.512   4.821   7.837 -0.8250 -0.2967  0.2041
   16MOL    C27 2457   4.543   4.669   7.850 -0.3790 -0.0372  0.2100
   16MOL    C28 2458   4.612   4.598   7.736 -0.8011  0.6545 -0.1789
   16MOL    O29 2459   4.641   4.659   7.631  0.3298  0.3281  0.0354
   16MOL    H30 2460   4.465   4.827   7.739 -1.4677 -1.2764  0.4469
   16MOL    H31 2461   4.435   4.861   0.045 -1.5098 -0.8266 -0.2690
   16MOL    H32 2462   4.456   4.607   0.013 -0.7594  0.6747  0.7029
   16MOL    H33 2463   4.612   4.660   0.076  1.7245  0.0117 -1.4387
   16MOL    C34 2464   4.650   4.449   7.756 -0.6028 -0.7795  0.3427
   16MOL    C35 2465   4.582   4.361   7.659  0.1746  0.4723 -0.1304
   16MOL    C36 2466   4.613   4.211   7.683 -0.2218  0.1643  0.1284
   16MOL    O37 2467   4.727   4.168   7.727 -0.1521  0.4814  0.2292
   16MOL    H38 2468   4.639   4.405   7.856  0.4356  1.0144  1.2828
   16MOL    H39 2469   4.757   4.447   7.736 -0.6237  4.6725 -1.1153
   16MOL    H40 2470   4.605   4.389   7.556 -2.0300 -0.2036 -0.8497
   16MOL    H41 2471   4.474   4.379   7.661  0.2689  1.0529 -0.1637
   16MOL    C42 2472   4.506   4.110   7.653 -0.1299  0.0963  0.9240
   16MOL    C43 2473   4.493   3.982   7.737  0.1304  0.4619  0.2515
   16MOL    C44 2474   4.573   3.862   7.685 -0.0739 -0.2482 -0.3619
   16MOL    O45 2475   4.689   3.864   7.638  0.0918  0.9469 -0.2805
   16MOL    H46 2476   4.506   4.089   7.546  1.5594 -0.3271  1.0014
   16MOL    H47 2477   4.414   4.166   7.667 -0.0546  0.5113 -0.1519
   16MOL    H48 2478   4.386   3.963   7.745  0.1562  0.3310  0.2861
   16MOL    H49 2479   4.525   4.002   7.839  1.0291  0.4276 -0.0167
   16MOL    C50 2480   4.496   3.728   7.686  0.5002 -0.3703  0.0367
   16MOL    C51 2481   4.517   3.655   7.549 -0.1240  0.2992 -0.6325
   16MOL    C52 2482   4.375   3.625   7.492  1.0404 -0.0582  0.6584
   16MOL    O53 2483   4.285   3.580   7.563 -0.1081 -0.1414  0.1263
   16MOL    H54 2484   4.394   3.762   7.704  0.9876  0.5786  1.0361
   16MOL    H55 2485   4.521   3.657   7.765 -1.5598 -0.8251  0.3057
   16MOL    H56 2486   4.565   3.558   7.563  1.1961  1.3302  2.6365
   16MOL    H57 2487   4.569   3.711   7.472  0.1616 -0.8435 -1.2805
   16MOL    C58 2488   4.354   3.625   7.341  0.5269  0.0502  0.3319
   16MOL    C59 2489   4.208   3.582   7.302  0.5476  0.2368  0.0444
   16MOL    C60 2490   4.150   3.659   7.185  0.0311 -0.5072 -0.2501
   16MOL    O61 2491   4.216   3.742   7.121 -0.0839  0.2340  1.2073
   16MOL    H62 2492   4.431   3.557   7.304  1.3654  1.3738 -0.3874
   16MOL    H63 2493   4.379   3.724   7.304  0.5295  0.7698  2.2072
   16MOL    H64 2494   4.149   3.607   7.391  2.4455 -0.3314  1.4965
   16MOL    H65 2495   4.199   3.475   7.284  0.7959  0.2261 -0.0162
   16MOL    C66 2496   4.019   3.615   7.136  0.8893 -0.4231  0.4159
   16MOL    C67 2497   3.965   3.717   7.038  0.4200 -0.3499  0.0189
   16MOL    C68 2498   3.815   3.710   7.023  0.0715 -0.4770 -1.3031
   16MOL    O69 2499   3.739   3.772   7.101 -0.1658 -0.0070  0.2415
   16MOL    H70 2500   3.959   3.619   7.227  1.5906  0.9796  0.8213
   16MOL    H71 2501   4.022   3.515   7.091 -0.9523 -0.4813  0.3710
   16MOL    H72 2502   4.001   3.713   6.935 -2.8747 -0.1446 -1.2072
   16MOL    H73 2503   3.975   3.819   7.076  2.0931 -0.1394 -0.9163
   16MOL    C74 2504   3.747   3.621   6.916 -0.4367  0.0835 -0.0504
   16MOL    C75 2505   3.597   3.603   6.952 -0.2479 -0.4654 -0.1057
   16MOL    C76 2506   3.511   3.525   6.846  0.0302  0.5910  0.2140
   16MOL    O77 2507   3.559   3.504   6.738  0.1016  0.1067  0.8305
   16MOL    H78 2508   3.812   3.535   6.903 -0.2254  0.1624  0.4965
   16MOL    H79 2509   3.752   3.672   6.820  1.2833  0.0581  0.0059
   16MOL    H80 2510   3.553   3.701   6.968  0.8343  0.2445 -1.3460
   16MOL    H81 2511   3.597   3.557   7.051  0.8818  1.9146  1.0380
   16MOL    C82 2512   3.364   3.505   6.877 -0.2955  0.3049 -0.3500
   16MOL    C83 2513   3.271   3.459   6.763  0.9022 -0.8100 -0.8426
   16MOL    C84 2514   3.202   3.576   6.694 -0.6109  0.6626 -0.4265
   16MOL    O85 2515   3.259   3.687   6.698 -0.0111 -0.2318 -0.5179
   16MOL    H86 2516   3.321   3.598   6.915 -0.1142 -0.1141  0.8951
   16MOL    H87 2517   3.373   3.430   6.956  1.0694 -0.6847 -1.4348
   16MOL    H88 2518   3.195   3.392   6.802  1.8018 -0.8463  0.8453
   16MOL    H89 2519   3.331   3.402   6.692  0.4235 -1.8664 -0.3994
   16MOL    C90 2520   3.091   3.556   6.590 -0.5681  0.2614 -0.5578
   16MOL    C91 2521   3.056   3.693   6.529 -0.1790  0.6388 -0.1393
   16MOL    C92 2522   2.937   3.678   6.428  0.3240 -0.0763  0.3643
   16MOL    O93 2523   2.928   3.580   6.359 -0.3692  0.4403 -0.0202
   16MOL    H94 2524   3.005   3.513   6.641 -0.4395  1.6699  0.9025
   16MOL    H95 2525   3.130   3.490   6.512  0.7878  1.5525 -1.0078
   16MOL    H96 2526   3.146   3.728   6.478  0.2169 -1.9256 -1.2886
   16MOL    H97 2527   3.026   3.767   6.603  2.8520  1.1849  0.5932
   16MOL    C98 2528   2.845   3.794   6.403  0.0534  0.2350  0.2140
   16MOL    C99 2529   2.905   3.928   6.362 -0.2302  0.3037  0.1438
   16MOL   C100 2530   2.799   4.038   6.340 -0.2228 -0.3966  0.2774
   16MOL   O101 2531   2.678   4.015   6.328  0.4701 -0.1329 -0.4046
   16MOL   H102 2532   2.785   3.815   6.491 -0.6373  1.7584 -0.5981
   16MOL   H103 2533   2.773   3.774   6.323 -1.5766  0.0537  1.6881
   16MOL   H104 2534   2.970   3.917   6.275 -0.0637 -2.4076  0.5702
   16MOL   H105 2535   2.968   3.962   6.445  0.5975  0.0706 -0.3798
   16MOL   C106 2536   2.852   4.180   6.320 -0.0088  0.3979 -0.6700
   16MOL   C107 2537   2.768   4.269   6.224 -0.1156 -0.2073  0.6780
   16MOL   C108 2538   2.841   4.283   6.092 -0.7805  0.0562 -0.4858
   16MOL   O109 2539   2.824   4.208   5.998  0.3109 -0.1878 -0.1807
   16MOL   H110 2540   2.956   4.163   6.292 -0.4904 -0.7743 -1.8082
   16MOL   H111 2541   2.853   4.221   6.421 -1.1204 -3.9241  1.2315
   16MOL   H112 2542   2.780   4.370   6.263  1.5691 -0.1910  0.1435
   16MOL   H113 2543   2.661   4.246   6.219 -0.0846 -0.0615 -1.0732
   16MOL   C114 2544   2.957   4.384   6.090  0.0196  0.5294  0.3468
   16MOL   C115 2545   3.017   4.407   5.950 -0.4147 -0.1460  0.1160
   16MOL   C116 2546   3.147   4.478   5.965  0.2149 -0.9587  0.5573
   16MOL   O117 2547   3.253   4.417   5.967 -0.7381  0.5370  0.2864
   16MOL   H118 2548   3.039   4.348   6.152  0.4862  4.1987  2.0382
   16MOL   H119 2549   2.932   4.478   6.140  1.4800  0.0420  2.0392
   16MOL   H120 2550   2.941   4.447   5.884 -0.9157 -0.6918  0.3564
   16MOL   H121 2551   3.044   4.310   5.909  1.5462  0.5917 -0.4063
   16MOL   C122 2552   3.155   4.631   5.974 -0.3378 -0.1781  0.0465
   16MOL   C123 2553   3.136   4.684   6.116  0.1914  0.0328  0.6349
   16MOL   C124 2554   3.024   4.793   6.125 -0.3743  0.5298 -0.2288
   16MOL   O125 2555   2.936   4.809   6.038 -0.4902  0.5098  0.1802
   16MOL   H126 2556   3.089   4.677   5.901 -0.4117 -0.9681 -0.3831
   16MOL   H127 2557   3.256   4.652   5.940 -0.0429  0.7142  1.4135
   16MOL   H128 2558   3.230   4.729   6.149  0.8874  0.0689 -1.3068
   16MOL   H129 2559   3.087   4.613   6.182 -1.3078 -0.3566 -0.8469
   16MOL   C130 2560   3.032   4.884   6.255  0.7061 -0.0628 -0.3793
   16MOL   C131 2561   2.980   4.813   6.385  0.5042  0.1516 -0.8566
   16MOL   C132 2562   3.097   4.766   6.468  0.3478 -0.3509 -0.8594
   16MOL   O133 2563   3.210   4.759   6.431 -0.0527  0.4940 -0.0453
   16MOL   H134 2564   2.950   4.954   6.241  1.5994  0.7166 -1.9253
   16MOL   H135 2565   3.131   4.928   6.267  0.2949  0.5861  0.6843
   16MOL   H136 2566   2.924   4.724   6.356 -1.1299  1.1633 -0.8805
   16MOL   H137 2567   2.905   4.874   6.435 -1.6858 -2.5862 -0.6494
   16MOL   C138 2568   3.055   4.724   6.611 -0.3270 -0.3681 -0.5629
   16MOL   C139 2569   3.126   4.808   6.729 -0.0900  0.5424 -0.3513
   16MOL   C140 2570   3.035   4.869   6.825 -0.1498 -0.0601 -0.5741
   16MOL   O141 2571   2.984   4.803   6.917 -0.0696 -0.1383 -0.2304
   16MOL   H142 2572   3.103   4.627   6.620 -0.1746 -0.1738  0.9303
   16MOL   H143 2573   2.947   4.707   6.607 -0.2937 -1.5029  1.9570
   16MOL   H144 2574   3.182   4.885   6.677  1.4694 -1.0620 -1.1041
   16MOL   H145 2575   3.192   4.738   6.780  0.4816  0.9980 -0.4737
   16MOL   C146 2576   3.003   5.016   6.808 -0.1043 -0.7101 -0.8569
   16MOL   C147 2577   2.866   5.049   6.856  0.1094  0.2495 -0.0511
   16MOL   C148 2578   2.862   5.110   6.996 -0.1154  0.2743 -0.3953
   16MOL   O149 2579   2.964   5.133   7.065  0.4714  0.3923  0.0200
   16MOL   H150 2580   3.009   5.034   6.701 -0.9318 -0.5919 -0.8898
   16MOL   H151 2581   3.080   5.068   6.866 -1.2556 -1.8425  1.8087
   16MOL   H152 2582   2.805   4.959   6.853  1.8328 -0.9451  0.2658
   16MOL   H153 2583   2.808   5.114   6.789 -1.4687 -1.9092 -0.8356
   16MOL   C154 2584   2.723   5.141   7.050 -1.0947  0.1699 -0.1325
   16MOL   C155 2585   2.718   5.233   7.162 -0.7146  0.0945  0.4392
   16MOL   C156 2586   2.589   5.316   7.186  0.2433  0.5216  0.5307
   16MOL   O157 2587   2.481   5.268   7.151 -0.2827 -0.0654  1.1646
   16MOL   H158 2588   2.690   5.045   7.091 -2.6186  1.3409  1.4327
   16MOL   H159 2589   2.647   5.165   6.977 -0.2232 -1.9317 -1.8020
   16MOL   H160 2590   2.784   5.315   7.136  0.7828 -0.9776  0.8030
   16MOL   H161 2591   2.757   5.211   7.262 -0.7849  2.5926  1.0371
   16MOL   H162 2592   2.598   5.417   7.226 -0.6022  1.5211 -1.6643
   17MOL     C1 2593   1.884   5.901   3.477 -0.2779  0.1467  0.3860
   17MOL     C2 2594   1.862   5.892   3.322 -0.8212  0.7056 -0.2871
   17MOL     C3 2595   1.992   5.861   3.245 -0.6693 -0.5997 -0.1665
   17MOL     O4 2596   2.087   5.817   3.305  0.5288  0.1427 -0.4666
   17MOL     H5 2597   1.980   5.950   3.492  0.4282 -1.2176  0.3591
   17MOL     H6 2598   1.806   5.960   3.527 -0.4119 -1.5198  2.1818
   17MOL     H7 2599   1.814   5.983   3.285 -0.5515  0.9216 -0.1076
   17MOL     H8 2600   1.787   5.815   3.305 -0.8106  0.6589 -0.1220
   17MOL     H9 2601   1.883   5.808   3.534 -0.1836 -0.4651 -0.6018
   17MOL    C10 2602   1.992   5.885   3.099 -0.2085  0.2656  0.3593
   17MOL    C11 2603   2.052   5.765   3.017 -0.2701 -0.1722  0.0371
   17MOL    C12 2604   2.198   5.792   2.977 -0.0476 -0.1474 -0.2704
   17MOL    O13 2605   2.231   5.854   2.876 -0.6155  0.0330  0.2066
   17MOL    H14 2606   2.054   5.971   3.073  0.7519 -0.6793 -0.5457
   17MOL    H15 2607   1.894   5.908   3.059  1.7548  0.8020 -4.4617
   17MOL    H16 2608   1.996   5.741   2.927 -2.0165 -0.7736  1.2519
   17MOL    H17 2609   2.051   5.673   3.075 -0.7799 -1.5737 -2.1570
   17MOL    C18 2610   2.302   5.741   3.072 -0.3513 -0.2065 -0.4270
   17MOL    C19 2611   2.439   5.736   3.012 -0.1505  0.6546 -0.4175
   17MOL    C20 2612   2.508   5.599   3.015  0.1458  0.6076  0.1749
   17MOL    O21 2613   2.449   5.489   2.977  0.2589 -0.0326 -0.2210
   17MOL    H22 2614   2.273   5.643   3.112  0.3248  0.7135  2.4143
   17MOL    H23 2615   2.296   5.812   3.154 -1.2698  1.4592 -1.8808
   17MOL    H24 2616   2.502   5.797   3.076 -1.4942  0.8680  0.7068
   17MOL    H25 2617   2.444   5.771   2.909 -2.4756 -1.5165 -1.3332
   17MOL    C26 2618   2.650   5.601   3.074  0.1179  0.4991 -0.4301
   17MOL    C27 2619   2.712   5.459   3.071 -0.8229  0.6277 -0.0463
   17MOL    C28 2620   2.827   5.470   3.178  0.3334 -0.0628 -0.6821
   17MOL    O29 2621   2.821   5.550   3.273 -0.0017 -0.2539  0.4743
   17MOL    H30 2622   2.623   5.636   3.173 -1.2499 -1.7330  0.0204
   17MOL    H31 2623   2.719   5.662   3.016  1.3688 -0.5002 -0.0104
   17MOL    H32 2624   2.732   5.422   2.971 -1.6981  2.5192 -0.9628
   17MOL    H33 2625   2.646   5.388   3.121  1.3448 -1.5224 -0.2088
   17MOL    C34 2626   2.953   5.379   3.163  0.2331 -0.7735 -0.4827
   17MOL    C35 2627   3.042   5.373   3.288 -0.3184 -0.6330  0.1752
   17MOL    C36 2628   3.165   5.287   3.264  0.0517 -0.7097  0.2494
   17MOL    O37 2629   3.182   5.253   3.147  0.1119  0.5459 -0.3477
   17MOL    H38 2630   3.014   5.418   3.082 -0.6173  2.3900  0.3373
   17MOL    H39 2631   2.930   5.279   3.126 -1.1936 -0.4884 -0.4072
   17MOL    H40 2632   3.002   5.310   3.367 -0.8501  0.7536  1.0297
   17MOL    H41 2633   3.077   5.468   3.329 -1.4607  0.1827 -0.7142
   17MOL    C42 2634   3.253   5.248   3.376  0.3416 -0.5227  0.4821
   17MOL    C43 2635   3.284   5.097   3.377 -0.0685 -0.4494  0.7495
   17MOL    C44 2636   3.314   5.049   3.518  0.5196  0.3233  1.0241
   17MOL    O45 2637   3.420   5.073   3.571  0.2000  0.3974 -0.4302
   17MOL    H46 2638   3.194   5.261   3.467 -2.0551  0.5449 -1.1896
   17MOL    H47 2639   3.344   5.307   3.391  1.4080 -1.2772 -2.7420
   17MOL    H48 2640   3.383   5.086   3.335 -0.4282 -2.1615  0.3347
   17MOL    H49 2641   3.226   5.030   3.314  0.1890  1.8960 -2.0867
   17MOL    C50 2642   3.196   5.006   3.599 -0.0036  0.5841 -0.1611
   17MOL    C51 2643   3.251   4.908   3.705 -0.1843  0.2716  0.2498
   17MOL    C52 2644   3.230   4.764   3.673 -0.1173  0.5682  0.4714
   17MOL    O53 2645   3.114   4.714   3.673 -0.2179 -0.5227  0.3074
   17MOL    H54 2646   3.128   4.952   3.534  1.8683  0.8648 -2.4208
   17MOL    H55 2647   3.149   5.095   3.640 -1.5578  0.5721 -1.8691
   17MOL    H56 2648   3.197   4.922   3.798  0.9420 -1.8226  1.2456
   17MOL    H57 2649   3.353   4.928   3.737 -0.0814  1.8907 -1.0000
   17MOL    C58 2650   3.353   4.683   3.643  0.7146  0.0718  0.5176
   17MOL    C59 2651   3.324   4.545   3.577 -0.4690 -0.5030 -0.4957
   17MOL    C60 2652   3.330   4.426   3.676  0.0410  0.3473 -0.9411
   17MOL    O61 2653   3.271   4.436   3.781  0.2856  0.9063 -0.1121
   17MOL    H62 2654   3.394   4.678   3.744  0.9078  0.7141  0.4784
   17MOL    H63 2655   3.424   4.740   3.582 -0.1798 -1.8856 -2.4530
   17MOL    H64 2656   3.399   4.535   3.499  0.1233 -0.5964  0.0750
   17MOL    H65 2657   3.225   4.544   3.532 -0.7696  0.3708  0.1248
   17MOL    C66 2658   3.405   4.306   3.628 -0.1567  0.3539 -0.6540
   17MOL    C67 2659   3.398   4.183   3.720  0.0341  0.4816 -0.3966
   17MOL    C68 2660   3.486   4.072   3.677  0.8083  0.3461 -0.4862
   17MOL    O69 2661   3.584   4.090   3.598  0.6644 -0.1942  0.3009
   17MOL    H70 2662   3.509   4.326   3.601  0.9072 -1.5605  1.8564
   17MOL    H71 2663   3.367   4.281   3.528 -1.1328  0.5400 -0.3344
   17MOL    H72 2664   3.301   4.133   3.714  1.1530 -1.7302 -0.2975
   17MOL    H73 2665   3.413   4.209   3.825  1.8018 -0.7949 -0.3108
   17MOL    C74 2666   3.453   3.939   3.736  0.4283 -0.4797 -0.0448
   17MOL    C75 2667   3.468   3.813   3.650  0.5271  0.0863 -0.6198
   17MOL    C76 2668   3.599   3.740   3.683 -0.4624  0.5058 -0.2032
   17MOL    O77 2669   3.684   3.770   3.768 -0.6431 -0.1212 -0.8569
   17MOL    H78 2670   3.347   3.950   3.757  0.4280  0.1540 -0.3661
   17MOL    H79 2671   3.513   3.934   3.826 -2.2885  0.7858  1.9133
   17MOL    H80 2672   3.471   3.834   3.542 -0.0766  1.7891 -0.3325
   17MOL    H81 2673   3.388   3.743   3.674 -0.4127  0.8522 -1.4515
   17MOL    C82 2674   3.612   3.612   3.599 -0.1328  0.1494  0.0423
   17MOL    C83 2675   3.747   3.549   3.604  0.2986  0.5217  0.0996
   17MOL    C84 2676   3.753   3.403   3.664  1.2342 -0.0890  0.3366
   17MOL    O85 2677   3.654   3.355   3.719  0.9628 -0.0035 -0.0019
   17MOL    H86 2678   3.573   3.647   3.504 -1.8730 -0.9478  0.3267
   17MOL    H87 2679   3.535   3.541   3.631  1.0282 -0.5330  1.3520
   17MOL    H88 2680   3.823   3.611   3.650 -0.1905  2.6075 -1.8474
   17MOL    H89 2681   3.774   3.527   3.500 -1.2244 -1.2799  0.0627
   17MOL    C90 2682   3.884   3.329   3.658 -0.0958 -0.3056  0.4860
   17MOL    C91 2683   3.872   3.173   3.685  0.2268  0.1062  0.1138
   17MOL    C92 2684   3.805   3.102   3.563 -0.4908 -0.2997  0.4509
   17MOL    O93 2685   3.708   3.148   3.502  0.0331  0.2590  0.2000
   17MOL    H94 2686   3.959   3.373   3.723  1.0905 -1.0558 -0.3402
   17MOL    H95 2687   3.919   3.342   3.555 -0.0943  1.0320  0.6533
   17MOL    H96 2688   3.822   3.155   3.779 -0.5632 -1.0301 -0.5129
   17MOL    H97 2689   3.975   3.143   3.705 -0.0526 -1.6180 -0.9412
   17MOL    C98 2690   3.876   2.970   3.528 -0.4884 -0.3375 -0.0038
   17MOL    C99 2691   3.839   2.916   3.392 -0.2387 -0.3466 -0.1288
   17MOL   C100 2692   3.818   2.768   3.391 -0.1767 -0.2948 -0.0026
   17MOL   O101 2693   3.734   2.716   3.460  0.1394 -0.3081 -0.1057
   17MOL   H102 2694   3.847   2.895   3.601 -0.2473  0.3525  0.7981
   17MOL   H103 2695   3.981   2.993   3.543 -0.7080  1.7049 -1.3275
   17MOL   H104 2696   3.920   2.934   3.322  0.2251 -0.0662  0.4742
   17MOL   H105 2697   3.749   2.968   3.359  0.5748  0.3731 -1.2592
   17MOL   C106 2698   3.905   2.693   3.298  0.2941  0.1884  0.6855
   17MOL   C107 2699   3.880   2.728   3.142 -0.0748  0.5035  0.2496
   17MOL   C108 2700   3.820   2.610   3.062  0.1642 -0.4579  0.9961
   17MOL   O109 2701   3.864   2.570   2.953  0.3114  0.2852 -0.6327
   17MOL   H110 2702   3.902   2.586   3.317 -1.5962 -0.4283 -2.7672
   17MOL   H111 2703   4.007   2.726   3.320  0.5879 -0.2326 -0.0041
   17MOL   H112 2704   3.976   2.765   3.107  0.1981 -0.3095  0.1246
   17MOL   H113 2705   3.817   2.815   3.126  1.8898  1.7402 -1.0416
   17MOL   C114 2706   3.693   2.547   3.120  0.1178 -0.5199  0.1689
   17MOL   C115 2707   3.605   2.467   3.018 -0.7680  0.4594 -0.6678
   17MOL   C116 2708   3.474   2.532   2.976 -0.5911 -0.3860 -0.3851
   17MOL   O117 2709   3.421   2.614   3.059 -0.1938 -0.0790 -0.2603
   17MOL   H118 2710   3.634   2.618   3.179  2.3540  0.5067  1.2285
   17MOL   H119 2711   3.729   2.475   3.193 -0.7127 -0.6818  0.4290
   17MOL   H120 2712   3.587   2.361   3.039 -0.9493  0.2762 -1.7507
   17MOL   H121 2713   3.661   2.445   2.928  1.0187  0.5088  0.4087
   17MOL   C122 2714   3.425   2.505   2.832  0.0287 -0.1267 -0.1583
   17MOL   C123 2715   3.329   2.613   2.779 -0.1747 -0.1739  0.0880
   17MOL   C124 2716   3.396   2.710   2.689 -0.0752 -0.5479 -0.5030
   17MOL   O125 2717   3.515   2.743   2.708  0.4849  0.2260  0.5379
   17MOL   H126 2718   3.368   2.413   2.845 -1.8351  0.7936 -1.4291
   17MOL   H127 2719   3.503   2.489   2.757  0.0171 -2.0030  0.2177
   17MOL   H128 2720   3.260   2.650   2.855 -0.2955  1.5528 -0.8391
   17MOL   H129 2721   3.246   2.569   2.724 -1.2089  0.7105  0.9223
   17MOL   C130 2722   3.309   2.779   2.581  0.6825 -0.1606  0.0594
   17MOL   C131 2723   3.391   2.815   2.462 -0.2876  0.0426  0.0926
   17MOL   C132 2724   3.312   2.901   2.362  0.0462  0.0883 -0.1951
   17MOL   O133 2725   3.278   2.851   2.255  0.1155 -0.3210  0.6448
   17MOL   H134 2726   3.263   2.868   2.624  0.8164 -0.3162  0.5277
   17MOL   H135 2727   3.233   2.708   2.549  0.0011  0.1908  0.8914
   17MOL   H136 2728   3.414   2.726   2.403  0.4553  0.4272 -0.1985
   17MOL   H137 2729   3.487   2.864   2.479 -0.5635  0.3368  0.8193
   17MOL   C138 2730   3.296   3.051   2.392  0.3169 -0.0011 -0.0833
   17MOL   C139 2731   3.157   3.084   2.440  0.2157 -0.0018 -0.5331
   17MOL   C140 2732   3.168   3.206   2.528 -0.1620  0.0892 -0.3937
   17MOL   O141 2733   3.160   3.186   2.649  0.0492  0.1387 -0.1613
   17MOL   H142 2734   3.319   3.110   2.304  0.1599 -2.1461 -1.6101
   17MOL   H143 2735   3.375   3.074   2.463  0.6924 -1.9763  0.1845
   17MOL   H144 2736   3.107   3.011   2.503 -1.6621  2.3147  0.7743
   17MOL   H145 2737   3.086   3.102   2.359 -0.1048 -1.0605 -0.4884
   17MOL   C146 2738   3.173   3.350   2.465 -0.2300 -0.6225 -0.2563
   17MOL   C147 2739   3.217   3.465   2.562  0.0819 -0.6453 -0.0650
   17MOL   C148 2740   3.103   3.540   2.627 -0.5045 -0.3439  0.1378
   17MOL   O149 2741   3.022   3.610   2.565  0.1451 -0.0784  0.4671
   17MOL   H150 2742   3.077   3.378   2.421 -1.0760 -1.2284  1.1594
   17MOL   H151 2743   3.234   3.347   2.375 -2.3756  2.5028 -1.9333
   17MOL   H152 2744   3.278   3.542   2.514 -1.5530  0.9289  0.3444
   17MOL   H153 2745   3.287   3.426   2.636 -0.3028 -0.7633  0.2311
   17MOL   C154 2746   3.104   3.529   2.781 -0.2621 -0.1317  0.0427
   17MOL   C155 2747   2.987   3.591   2.860 -0.0657 -0.7733  0.7764
   17MOL   C156 2748   3.016   3.608   3.010 -0.4082  0.0236 -0.1904
   17MOL   O157 2749   3.102   3.539   3.061 -0.6751  0.2236  0.0197
   17MOL   H158 2750   3.194   3.576   2.822  1.4328 -3.0448 -0.1275
   17MOL   H159 2751   3.105   3.421   2.799  2.3551  0.0947  1.5444
   17MOL   H160 2752   2.907   3.517   2.858  1.4610 -2.5036  1.9858
   17MOL   H161 2753   2.945   3.682   2.818  0.5719 -0.6058  0.4940
   17MOL   H162 2754   2.972   3.691   3.065 -1.7696 -0.9801  0.2688
   18MOL     C1 2755   6.624   6.201   5.574 -0.4620  0.0404 -0.4070
   18MOL     C2 2756   6.740   6.207   5.677 -0.0665 -0.8996 -0.3840
   18MOL     C3 2757   6.705   6.247   5.821  0.0276 -0.3779 -0.3877
   18MOL     O4 2758   6.589   6.269   5.860 -0.2565 -0.3635 -0.4054
   18MOL     H5 2759   6.642   6.128   5.495 -0.4526  0.7810 -1.0955
   18MOL     H6 2760   6.536   6.167   5.629  0.5396 -0.0908  1.1728
   18MOL     H7 2761   6.813   6.283   5.648  0.1381 -1.0236 -0.1924
   18MOL     H8 2762   6.783   6.107   5.681 -2.8600 -2.0839  1.7895
   18MOL     H9 2763   6.615   6.300   5.529  1.3153  0.2826 -0.2883
   18MOL    C10 2764   6.820   6.281   5.910  0.4314  0.2586 -0.2906
   18MOL    C11 2765   6.800   6.240   6.053 -0.5080  0.7896  0.2814
   18MOL    C12 2766   6.818   6.089   6.078 -0.0951  0.2811 -0.3712
   18MOL    O13 2767   6.865   6.013   5.991 -0.2969  0.0118 -0.2855
   18MOL    H14 2768   6.826   6.389   5.906 -0.4126  0.3501  0.8103
   18MOL    H15 2769   6.909   6.238   5.863  1.0584  1.3763 -0.1363
   18MOL    H16 2770   6.700   6.264   6.089 -0.9138  1.3528 -1.1956
   18MOL    H17 2771   6.873   6.271   6.128 -1.3226  1.7355  0.7105
   18MOL    C18 2772   6.761   6.032   6.206  0.0240 -0.2711  0.0727
   18MOL    C19 2773   6.786   5.879   6.215  0.7593 -0.4528 -0.3256
   18MOL    C20 2774   6.901   5.850   6.309  0.1841  0.4771 -0.1664
   18MOL    O21 2775   6.871   5.841   6.420  0.1922 -0.6922  0.2157
   18MOL    H22 2776   6.654   6.046   6.224  0.1140  1.7772 -0.8577
   18MOL    H23 2777   6.825   6.085   6.277 -0.8760 -0.7718  1.2767
   18MOL    H24 2778   6.805   5.831   6.119  0.5280 -1.7968  0.2899
   18MOL    H25 2779   6.689   5.838   6.243  0.6857 -2.0148 -2.7074
   18MOL    C26 2780   7.040   5.831   6.244 -0.1015 -0.0155 -0.1629
   18MOL    C27 2781   7.156   5.779   6.335  0.2437 -0.7421 -0.0791
   18MOL    C28 2782   7.292   5.778   6.273  0.2496  0.4343  0.1281
   18MOL    O29 2783   7.309   5.751   6.156  0.3848 -0.1569  0.1865
   18MOL    H30 2784   7.068   5.921   6.189 -2.0340  0.2061 -0.8233
   18MOL    H31 2785   7.029   5.759   6.163 -2.0801  0.6542 -0.5250
   18MOL    H32 2786   7.118   5.682   6.367  0.4784 -0.6482  0.4829
   18MOL    H33 2787   7.157   5.836   6.428  0.3035 -3.0870  1.4063
   18MOL    C34 2788   7.417   5.798   6.364 -0.7637  0.3253 -0.0532
   18MOL    C35 2789   7.546   5.828   6.289  0.0311  0.0361 -0.4107
   18MOL    C36 2790   7.550   5.981   6.260 -0.1912  0.7138 -0.2088
   18MOL    O37 2791   7.449   6.053   6.292  0.7696 -0.2929  0.8899
   18MOL    H38 2792   7.440   5.704   6.414  1.8208  0.3693 -1.0414
   18MOL    H39 2793   7.407   5.869   6.446 -0.2427  1.9499 -1.3511
   18MOL    H40 2794   7.546   5.763   6.201  1.0511  0.9284 -1.0756
   18MOL    H41 2795   7.628   5.791   6.350  0.3471  0.7898 -0.3877
   18MOL    C42 2796   7.676   6.036   6.184  0.0203 -0.1047  0.2336
   18MOL    C43 2797   7.665   6.167   6.108  0.0237  0.4119  0.6917
   18MOL    C44 2798   7.695   6.156   5.956  0.2722 -0.5583 -0.1489
   18MOL    O45 2799   7.707   6.049   5.903  0.2572  0.1130  0.4721
   18MOL    H46 2800   7.715   5.954   6.122 -2.2365 -0.3811 -0.8701
   18MOL    H47 2801   7.753   6.041   6.261  0.5719 -1.0528 -0.2313
   18MOL    H48 2802   7.734   6.233   6.161 -0.1798 -0.4706  2.0956
   18MOL    H49 2803   7.567   6.210   6.129  0.4012  1.0461  1.1710
   18MOL    C50 2804   7.690   6.296   5.879  0.4536 -0.5504 -0.1159
   18MOL    C51 2805   7.585   6.293   5.763  0.2092  0.4739 -0.6169
   18MOL    C52 2806   7.469   6.395   5.769 -0.0682  0.0761 -0.3235
   18MOL    O53 2807   7.445   6.456   5.868  0.1909 -0.2122 -0.0113
   18MOL    H54 2808   7.792   6.303   5.841  0.1522 -0.0075 -0.8319
   18MOL    H55 2809   7.653   6.374   5.946 -0.2880 -2.2379  1.5093
   18MOL    H56 2810   7.538   6.195   5.767  0.0007  0.6092  0.2715
   18MOL    H57 2811   7.632   6.284   5.665  0.0247 -1.7888 -0.5229
   18MOL    C58 2812   7.387   6.407   5.636 -0.5453  0.3202  0.5840
   18MOL    C59 2813   7.261   6.496   5.649  0.6027 -0.7413 -0.7537
   18MOL    C60 2814   7.131   6.426   5.621 -0.9133 -0.2790 -0.0071
   18MOL    O61 2815   7.122   6.303   5.634 -0.0132 -0.6742 -0.2004
   18MOL    H62 2816   7.364   6.311   5.591 -0.5748  0.7295 -0.2960
   18MOL    H63 2817   7.462   6.453   5.571 -1.5956 -0.0732 -0.9320
   18MOL    H64 2818   7.282   6.589   5.596 -0.5525 -0.8304 -1.3861
   18MOL    H65 2819   7.263   6.546   5.745  0.7908 -1.6264 -0.2930
   18MOL    C66 2820   7.017   6.518   5.591 -0.2925 -0.0169 -0.2181
   18MOL    C67 2821   6.984   6.499   5.447  0.3318  0.2565 -0.4163
   18MOL    C68 2822   6.983   6.627   5.365  0.6219  0.2234  0.2718
   18MOL    O69 2823   6.968   6.736   5.413 -0.4573  0.0627  0.0470
   18MOL    H70 2824   7.040   6.623   5.612  0.4870 -0.0632 -0.8149
   18MOL    H71 2825   6.924   6.491   5.640 -1.5033 -0.7352 -2.8248
   18MOL    H72 2826   6.892   6.448   5.419 -0.0952  0.2902  0.8666
   18MOL    H73 2827   7.061   6.437   5.402 -0.8105 -1.6607  0.2018
   18MOL    C74 2828   6.982   6.600   5.213  0.2813 -0.0193  0.0478
   18MOL    C75 2829   7.015   6.720   5.121 -0.4414 -0.7199 -0.5752
   18MOL    C76 2830   7.067   6.684   4.981 -0.1452 -0.4556 -0.4936
   18MOL    O77 2831   7.182   6.669   4.962  0.7418  0.4077  0.3125
   18MOL    H78 2832   6.883   6.563   5.185  0.3754 -0.4824  0.3413
   18MOL    H79 2833   7.055   6.524   5.187  1.4293  1.0146  0.1944
   18MOL    H80 2834   7.089   6.782   5.172  0.6377 -2.9278  0.6296
   18MOL    H81 2835   6.927   6.784   5.117  0.5279  0.6608 -0.1285
   18MOL    C82 2836   6.950   6.673   4.876  0.3886  0.1471  0.3153
   18MOL    C83 2837   7.001   6.631   4.730 -0.1894  0.0981  0.0835
   18MOL    C84 2838   7.058   6.736   4.628 -0.0728  0.1173 -0.1950
   18MOL    O85 2839   7.007   6.849   4.615  0.3028  0.3392  0.1309
   18MOL    H86 2840   6.899   6.769   4.865 -0.2613 -0.2942 -0.6490
   18MOL    H87 2841   6.876   6.601   4.912 -0.8187 -0.0583 -2.4082
   18MOL    H88 2842   6.912   6.593   4.679 -2.1470  2.2492  1.7731
   18MOL    H89 2843   7.075   6.551   4.735  1.7794  1.9009  0.0664
   18MOL    C90 2844   7.197   6.702   4.560 -0.4704  0.5567 -0.0923
   18MOL    C91 2845   7.209   6.770   4.430  0.4863  0.0480 -0.4991
   18MOL    C92 2846   7.354   6.816   4.403  0.3893 -0.9760 -0.0180
   18MOL    O93 2847   7.436   6.821   4.493 -0.2095 -0.1814  0.2023
   18MOL    H94 2848   7.213   6.595   4.549 -0.3092  0.6674 -0.9708
   18MOL    H95 2849   7.279   6.728   4.627 -2.0934  1.3649  1.6515
   18MOL    H96 2850   7.150   6.862   4.433  0.3789 -0.0588  0.9912
   18MOL    H97 2851   7.178   6.704   4.349 -1.4000 -2.3938  2.1082
   18MOL    C98 2852   7.383   6.849   4.259  0.2435 -0.1721  0.5040
   18MOL    C99 2853   7.532   6.884   4.235  0.8746  0.1255 -0.2581
   18MOL   C100 2854   7.559   6.968   4.109 -0.0323 -0.5301  0.4599
   18MOL   O101 2855   7.473   6.976   4.019  0.1940 -0.6768 -0.2114
   18MOL   H102 2856   7.327   6.936   4.226 -0.3467 -1.4617 -2.0530
   18MOL   H103 2857   7.359   6.765   4.193 -1.0237  2.1905 -2.1062
   18MOL   H104 2858   7.594   6.795   4.221 -0.1800 -0.6283 -0.1701
   18MOL   H105 2859   7.577   6.939   4.318 -0.1595 -0.6889  0.8591
   18MOL   C106 2860   7.696   7.044   4.106  0.0048 -0.1690 -0.1194
   18MOL   C107 2861   7.722   7.100   3.961 -0.2556  0.0471 -0.6226
   18MOL   C108 2862   7.735   7.255   3.953 -0.3490 -1.2384  0.2486
   18MOL   O109 2863   7.718   7.329   4.054  0.1027  0.1041 -0.2464
   18MOL   H110 2864   7.786   6.990   4.136  1.3640  0.4456 -2.9147
   18MOL   H111 2865   7.686   7.124   4.180 -1.6265  0.5211 -1.0657
   18MOL   H112 2866   7.651   7.073   3.882  0.8693 -2.1559 -0.9350
   18MOL   H113 2867   7.813   7.055   3.922 -1.5751  0.5206 -4.5193
   18MOL   C114 2868   7.736   7.308   3.811 -0.4018  0.0188 -0.6364
   18MOL   C115 2869   0.007   7.368   3.774 -0.4146 -0.5429 -0.1319
   18MOL   C116 2870   0.130   7.279   3.791 -0.3285 -0.0931 -0.5678
   18MOL   O117 2871   0.120   7.158   3.791 -0.5218  0.3557 -0.1651
   18MOL   H118 2872   7.660   7.385   3.809  0.8363  1.2598 -0.3482
   18MOL   H119 2873   7.703   7.231   3.741  1.3617 -0.6192 -0.7832
   18MOL   H120 2874   0.034   7.446   3.846  2.2450 -1.2392 -0.3124
   18MOL   H121 2875   0.015   7.403   3.671 -3.6495  0.8140  0.0508
   18MOL   C122 2876   0.264   7.341   3.810  0.7535  0.2706  0.0266
   18MOL   C123 2877   0.378   7.225   3.819 -0.1309 -0.7739  0.5726
   18MOL   C124 2878   0.509   7.264   3.748  0.0297 -0.1272 -0.3480
   18MOL   O125 2879   0.619   7.249   3.796 -0.5445  0.0197  0.1021
   18MOL   H126 2880   0.259   7.403   3.900 -0.0054  1.1240 -0.5990
   18MOL   H127 2881   0.280   7.393   3.716  1.6260  0.8334  0.4785
   18MOL   H128 2882   0.346   7.141   3.759  2.3525 -1.7347  0.5165
   18MOL   H129 2883   0.415   7.213   3.921  1.9924 -1.2660 -0.2200
   18MOL   C130 2884   0.508   7.327   3.607  0.6662 -0.4288  0.3093
   18MOL   C131 2885   0.558   7.474   3.635 -0.6888  0.0690 -0.0733
   18MOL   C132 2886   0.534   7.556   3.514 -0.0982  0.6222 -0.1929
   18MOL   O133 2887   0.515   7.503   3.407 -0.3198  0.0304  0.2299
   18MOL   H134 2888   0.405   7.322   3.570  0.1307  2.9875  1.2139
   18MOL   H135 2889   0.569   7.270   3.537 -0.8156  1.6187 -2.7424
   18MOL   H136 2890   0.664   7.472   3.657 -0.7171 -0.4749  0.0085
   18MOL   H137 2891   0.505   7.512   3.723 -0.5245  0.3646 -0.1030
   18MOL   C138 2892   0.537   7.705   3.531  0.0433 -0.0896  0.4966
   18MOL   C139 2893   0.522   7.794   3.408  0.2162 -0.4627  0.5522
   18MOL   C140 2894   0.654   0.017   3.369 -0.3078 -0.3033 -0.0357
   18MOL   O141 2895   0.766   7.824   3.382 -0.7867  0.2241 -0.4614
   18MOL   H142 2896   0.623   7.740   3.588  0.2654  2.9250 -1.5906
   18MOL   H143 2897   0.449   7.730   3.591 -0.1706  0.3709 -0.0002
   18MOL   H144 2898   0.430   7.849   3.422 -1.0650 -2.8529  1.7975
   18MOL   H145 2899   0.505   7.724   3.326  0.7796  0.7089 -0.5942
   18MOL   C146 2900   0.624   0.161   3.325 -0.2721 -0.5902 -0.3510
   18MOL   C147 2901   0.742   0.250   3.286 -0.0188  0.1496 -0.1845
   18MOL   C148 2902   0.734   0.326   3.152 -0.2216 -0.2919  0.3768
   18MOL   O149 2903   0.631   0.370   3.104  0.4068 -0.0022 -0.1267
   18MOL   H150 2904   0.550   0.204   3.392  0.0917 -0.4815 -0.0184
   18MOL   H151 2905   0.559   0.142   3.239  0.3286 -0.6470 -0.7930
   18MOL   H152 2906   0.821   0.177   3.270  0.8263  1.2701 -1.2484
   18MOL   H153 2907   0.778   0.313   3.368  1.0463 -0.9461  0.2065
   18MOL   C154 2908   0.869   0.342   3.075  0.0740  0.5915 -0.0198
   18MOL   C155 2909   0.914   0.489   3.057 -0.4751  0.7671 -0.1532
   18MOL   C156 2910   1.039   0.522   3.144  0.1529 -0.3288 -0.6963
   18MOL   O157 2911   1.118   0.614   3.111  0.0609  0.1896  0.1598
   18MOL   H158 2912   0.858   0.289   2.980  0.7975 -0.1048  0.2820
   18MOL   H159 2913   0.946   0.293   3.134 -0.0885  0.4320  0.0604
   18MOL   H160 2914   0.829   0.555   3.076  0.0152  0.9354  1.5048
   18MOL   H161 2915   0.924   0.499   2.949 -1.0316 -1.5129 -0.4323
   18MOL   H162 2916   1.042   0.459   3.233 -0.2103 -1.1496 -1.2587
   19MOL     C1 2917   5.891   4.184   5.903 -0.6132  0.0488  0.3393
   19MOL     C2 2918   5.796   4.073   5.949  0.2093  0.3080  0.9778
   19MOL     C3 2919   5.734   4.108   6.083 -0.3991  0.2523 -0.0979
   19MOL     O4 2920   5.787   4.075   6.192  0.9205 -0.0993  0.1229
   19MOL     H5 2921   5.972   4.195   5.974 -1.3707  0.3650  1.1584
   19MOL     H6 2922   5.924   4.165   5.800  2.2171  1.7449  0.8699
   19MOL     H7 2923   5.846   3.977   5.958  3.1225  1.7922  1.2198
   19MOL     H8 2924   5.712   4.066   5.880 -1.0281  1.3438  2.3405
   19MOL     H9 2925   5.836   4.276   5.884  1.0558  0.8488 -0.7550
   19MOL    C10 2926   5.611   4.195   6.079 -0.4070  0.4161  0.1852
   19MOL    C11 2927   5.498   4.150   6.176 -0.4162 -0.1923 -0.3256
   19MOL    C12 2928   5.367   4.201   6.118  0.6539  0.9555 -0.0130
   19MOL    O13 2929   5.355   4.299   6.042  0.1069  0.1306 -0.1048
   19MOL    H14 2930   5.586   4.210   5.974  0.5714  0.6055 -0.0301
   19MOL    H15 2931   5.643   4.297   6.101 -0.6643  0.8756 -1.5243
   19MOL    H16 2932   5.502   4.185   6.280  0.8476  0.3850 -0.5572
   19MOL    H17 2933   5.501   4.042   6.188  1.4868 -0.3002 -1.6229
   19MOL    C18 2934   5.242   4.128   6.156 -0.0901 -0.0833  0.5524
   19MOL    C19 2935   5.186   4.044   6.037  0.4577 -0.4223  0.0332
   19MOL    C20 2936   5.030   4.028   6.051 -0.1643  1.0436 -0.1753
   19MOL    O21 2937   4.954   4.103   6.103  0.5274  0.1082  0.3266
   19MOL    H22 2938   5.164   4.197   6.185 -0.5731 -1.0046  1.4903
   19MOL    H23 2939   5.269   4.065   6.241 -3.0053 -1.7416  0.3298
   19MOL    H24 2940   5.229   3.945   6.052 -2.1076 -1.8131 -1.3718
   19MOL    H25 2941   5.206   4.072   5.934  1.0287  0.9813  0.5034
   19MOL    C26 2942   4.969   3.911   5.973 -0.6435 -0.7195  0.2512
   19MOL    C27 2943   4.993   3.781   6.056 -0.4468 -0.0696  0.4966
   19MOL    C28 2944   4.880   3.684   6.061  0.0699  0.4066 -0.0551
   19MOL    O29 2945   4.776   3.708   6.003  0.2640  0.1692 -0.1762
   19MOL    H30 2946   4.989   3.910   5.865  0.3690  0.8600  0.4070
   19MOL    H31 2947   4.861   3.924   5.975 -0.6390 -0.6205 -0.0533
   19MOL    H32 2948   5.001   3.803   6.163  1.5564 -0.5657  0.4762
   19MOL    H33 2949   5.087   3.732   6.032 -2.3866 -2.1955 -3.1570
   19MOL    C34 2950   4.920   3.542   6.112  0.3021 -0.6046 -0.1363
   19MOL    C35 2951   4.795   3.452   6.149 -0.3435  0.2253 -0.6254
   19MOL    C36 2952   4.799   3.401   6.292 -0.3262 -0.2874 -0.1221
   19MOL    O37 2953   4.864   3.461   6.376  0.6265 -0.1095 -0.4132
   19MOL    H38 2954   4.988   3.548   6.198 -1.2595 -3.2795  1.3701
   19MOL    H39 2955   4.985   3.483   6.048 -2.0163 -0.8519 -2.3277
   19MOL    H40 2956   4.785   3.366   6.083 -0.5038 -0.1607 -0.1014
   19MOL    H41 2957   4.705   3.513   6.145 -1.1935 -1.0612 -1.2559
   19MOL    C42 2958   4.729   3.272   6.322 -0.0248  0.3910 -0.0880
   19MOL    C43 2959   4.701   3.258   6.476  0.6099 -0.2924 -0.5675
   19MOL    C44 2960   4.813   3.182   6.544  0.1607 -0.0589 -0.0124
   19MOL    O45 2961   4.899   3.120   6.483  0.5680 -0.1222  0.0769
   19MOL    H46 2962   4.785   3.186   6.285 -0.3306 -0.2201  0.8313
   19MOL    H47 2963   4.643   3.281   6.256 -0.9636  0.4094  1.1152
   19MOL    H48 2964   4.621   3.191   6.508  1.1426 -1.2825 -1.2838
   19MOL    H49 2965   4.690   3.354   6.527 -0.3449  0.5691 -2.3323
   19MOL    C50 2966   4.825   3.185   6.697  0.0642 -0.1607 -0.1734
   19MOL    C51 2967   4.925   3.085   6.770  0.0004 -1.0936  0.0012
   19MOL    C52 2968   4.957   3.128   6.915  0.5833  0.1820  0.1904
   19MOL    O53 2969   4.913   3.233   6.964 -0.2428  0.0098  0.1575
   19MOL    H54 2970   4.724   3.180   6.738  0.9842 -0.9241  2.0546
   19MOL    H55 2971   4.850   3.290   6.717 -2.4359  0.0917  1.9654
   19MOL    H56 2972   5.018   3.093   6.714  0.7372 -0.3543  1.2995
   19MOL    H57 2973   4.902   2.979   6.758 -2.0686 -0.7886  1.0253
   19MOL    C58 2974   5.054   3.042   6.997 -0.6207 -0.0004  0.1522
   19MOL    C59 2975   5.164   3.122   7.062 -0.6542  0.1555 -0.5249
   19MOL    C60 2976   5.297   3.067   7.022 -0.4375  0.1169  0.1676
   19MOL    O61 2977   5.334   2.957   7.065 -0.0463 -0.0621  0.0229
   19MOL    H62 2978   5.085   2.954   6.941 -0.5861 -0.4220  0.8291
   19MOL    H63 2979   5.003   3.002   7.085 -1.5613 -1.1885 -0.9014
   19MOL    H64 2980   5.164   3.102   7.169  0.1444  0.4679 -0.4618
   19MOL    H65 2981   5.161   3.229   7.039  0.3871  0.3436  0.2187
   19MOL    C66 2982   5.381   3.163   6.934  0.4567 -0.2365 -0.3010
   19MOL    C67 2983   5.445   3.098   6.809  0.2230  0.6176  0.0065
   19MOL    C68 2984   5.345   3.087   6.692  0.2679 -0.2136 -0.7757
   19MOL    O69 2985   5.239   3.147   6.699 -0.1031  0.4136  0.4995
   19MOL    H70 2986   5.468   3.189   6.995 -0.0657  0.8900 -0.0244
   19MOL    H71 2987   5.318   3.249   6.913  1.0160  0.2228 -0.1224
   19MOL    H72 2988   5.487   2.998   6.821 -0.5919 -0.0815 -2.6248
   19MOL    H73 2989   5.530   3.160   6.779  1.8726 -2.3503 -1.7184
   19MOL    C74 2990   5.390   3.000   6.574  0.4540  0.1837  0.2923
   19MOL    C75 2991   5.284   2.986   6.457 -0.0318  0.1490 -0.4668
   19MOL    C76 2992   5.279   3.106   6.363  0.9961 -0.5863  0.1526
   19MOL    O77 2993   5.349   3.205   6.382 -0.6314  0.5198  0.0431
   19MOL    H78 2994   5.419   2.903   6.614  1.0639  1.6505  3.5428
   19MOL    H79 2995   5.485   3.036   6.535 -0.1107  1.8434  0.3738
   19MOL    H80 2996   5.184   2.963   6.494  0.4651  0.1854  0.9142
   19MOL    H81 2997   5.316   2.905   6.393 -0.7241 -1.0215  0.6554
   19MOL    C82 2998   5.170   3.094   6.250  0.0006  0.4126 -0.0965
   19MOL    C83 2999   5.149   3.216   6.160 -0.4707  0.6159  0.7202
   19MOL    C84 3000   5.247   3.214   6.047  0.5749  0.0533 -0.3894
   19MOL    O85 3001   5.357   3.160   6.048  0.4148  0.2156 -0.3313
   19MOL    H86 3002   5.071   3.083   6.295 -0.9459 -1.4083 -2.5178
   19MOL    H87 3003   5.180   2.999   6.198  1.6604  1.9260 -2.6724
   19MOL    H88 3004   5.186   3.308   6.204  2.5199  0.3330 -1.1146
   19MOL    H89 3005   5.045   3.233   6.131 -0.8325 -0.0574  1.5943
   19MOL    C90 3006   5.199   3.301   5.928 -0.7751  0.0739  0.7845
   19MOL    C91 3007   5.293   3.290   5.799  0.2790 -0.1536 -0.8132
   19MOL    C92 3008   5.222   3.206   5.693  0.5515  0.4276  0.2014
   19MOL    O93 3009   5.111   3.237   5.651 -0.1732 -0.0354 -0.5017
   19MOL    H94 3010   5.189   3.405   5.961  1.0641 -0.2262  2.3483
   19MOL    H95 3011   5.096   3.276   5.902 -1.1021 -0.5151  2.6018
   19MOL    H96 3012   5.391   3.244   5.816 -0.7031 -2.6490 -1.7084
   19MOL    H97 3013   5.300   3.386   5.747 -0.5106  1.2896  1.6679
   19MOL    C98 3014   5.279   3.068   5.669 -0.1948 -0.4798  0.4340
   19MOL    C99 3015   5.362   3.067   5.541  0.6289 -0.1064 -0.3246
   19MOL   C100 3016   5.352   2.930   5.474 -0.2979 -0.2745  0.6438
   19MOL   O101 3017   5.394   2.830   5.541  0.3753 -0.8907  0.2178
   19MOL   H102 3018   5.192   3.003   5.658 -0.2504 -0.4882  0.9271
   19MOL   H103 3019   5.355   3.051   5.745  0.5852  1.5550  0.1480
   19MOL   H104 3020   5.462   3.100   5.570  0.4686 -1.8848  2.5157
   19MOL   H105 3021   5.317   3.140   5.474  0.3954  0.7983  0.7983
   19MOL   C106 3022   5.335   2.908   5.327  0.0526 -0.1352 -0.5245
   19MOL   C107 3023   5.423   2.787   5.277  0.5131  0.0576  0.1328
   19MOL   C108 3024   5.449   2.809   5.128  0.4196  0.7828 -0.5642
   19MOL   O109 3025   5.389   2.900   5.066 -0.1390 -0.1189 -0.8209
   19MOL   H110 3026   5.365   2.998   5.273 -1.4911  0.2391 -0.8013
   19MOL   H111 3027   5.228   2.895   5.309 -0.7408 -0.0712  3.6864
   19MOL   H112 3028   5.372   2.693   5.299 -0.0977  0.2455 -0.4755
   19MOL   H113 3029   5.516   2.780   5.333 -1.0073 -0.8376  2.6138
   19MOL   C114 3030   5.564   2.733   5.060 -0.0917 -0.1795 -0.2225
   19MOL   C115 3031   5.517   2.613   4.977  0.5228  0.2617  0.7813
   19MOL   C116 3032   5.577   2.590   4.841  0.1437 -0.2048 -0.5025
   19MOL   O117 3033   5.630   2.682   4.784  0.1465  0.3309  0.0955
   19MOL   H118 3034   5.619   2.697   5.147 -0.3405  0.9625  0.4331
   19MOL   H119 3035   5.630   2.798   5.003  1.4486 -1.6797 -0.1882
   19MOL   H120 3036   5.409   2.627   4.968  0.5314 -0.3849 -0.5609
   19MOL   H121 3037   5.528   2.529   5.044 -1.0755 -1.1247 -0.6326
   19MOL   C122 3038   5.578   2.451   4.790  0.9387 -0.1033  0.1008
   19MOL   C123 3039   5.503   2.448   4.656  0.8308  1.4645 -0.0638
   19MOL   C124 3040   5.501   2.306   4.593 -0.3801  0.2145  0.0732
   19MOL   O125 3041   5.548   2.210   4.657 -0.4229 -0.2554  0.2883
   19MOL   H126 3042   5.529   2.399   4.872  2.6110  0.0998  1.2445
   19MOL   H127 3043   5.681   2.417   4.787  1.2012  0.5865  0.8941
   19MOL   H128 3044   5.559   2.497   4.576  1.1113 -1.0621 -1.4710
   19MOL   H129 3045   5.401   2.478   4.678 -0.2074 -2.6971  1.1693
   19MOL   C130 3046   5.455   2.278   4.449 -0.2440 -1.1738  0.6827
   19MOL   C131 3047   5.463   2.135   4.393  0.1324 -0.2230 -0.7520
   19MOL   C132 3048   5.617   2.100   4.370 -0.4168 -0.3038  0.2730
   19MOL   O133 3049   5.705   2.185   4.347 -0.0361  0.1641 -0.5145
   19MOL   H134 3050   5.514   2.346   4.389 -3.1387  1.1326  0.3397
   19MOL   H135 3051   5.351   2.306   4.432  0.0971 -0.1308  0.2560
   19MOL   H136 3052   5.409   2.125   4.299  1.0420  0.0697 -1.3142
   19MOL   H137 3053   5.418   2.061   4.458  0.5513  2.1480  2.3476
   19MOL   C138 3054   5.653   1.953   4.372 -0.7201  0.3100 -0.3076
   19MOL   C139 3055   5.730   1.919   4.244  0.6894  0.6894  0.2587
   19MOL   C140 3056   5.840   1.817   4.278  0.3913  0.0814  0.5187
   19MOL   O141 3057   5.815   1.698   4.277 -0.2880  0.5213  0.2733
   19MOL   H142 3058   5.572   1.885   4.399 -1.1443  0.8036 -0.3284
   19MOL   H143 3059   5.715   1.940   4.460 -1.3739  0.8608  0.2455
   19MOL   H144 3060   5.775   1.998   4.184  1.6041 -0.8992 -1.1802
   19MOL   H145 3061   5.664   1.856   4.184  0.4074  0.4084  0.8475
   19MOL   C146 3062   5.979   1.873   4.322  0.9193 -0.2457 -0.5517
   19MOL   C147 3063   6.102   1.795   4.264 -0.0927 -0.6532  0.6577
   19MOL   C148 3064   6.192   1.886   4.185 -0.9918 -0.0644  0.3759
   19MOL   O149 3065   6.213   2.005   4.216 -0.2404 -0.6015  0.0456
   19MOL   H150 3066   5.993   1.878   4.430  1.5438  0.2603 -0.6483
   19MOL   H151 3067   5.978   1.975   4.283  0.2928  0.7578  2.0181
   19MOL   H152 3068   6.073   1.702   4.215 -0.1221  0.9628 -2.4918
   19MOL   H153 3069   6.160   1.772   4.353  1.0262 -0.5976 -0.0408
   19MOL   C154 3070   6.253   1.816   4.062  0.4086  0.5107  0.1902
   19MOL   C155 3071   6.377   1.725   4.092 -0.0680  0.7786 -0.3088
   19MOL   C156 3072   6.499   1.771   4.025  0.4627  0.1802  0.2669
   19MOL   O157 3073   6.508   1.876   3.966 -0.8650 -0.8377 -1.0309
   19MOL   H158 3074   6.274   1.891   3.986 -1.8810 -0.4023 -1.4219
   19MOL   H159 3075   6.176   1.756   4.014 -1.1367  2.1622  0.5696
   19MOL   H160 3076   6.359   1.619   4.078 -0.1632  0.7966 -0.3253
   19MOL   H161 3077   6.386   1.747   4.199 -1.6956 -2.1368  0.4975
   19MOL   H162 3078   6.583   1.701   4.021  0.5709  0.2900  0.6049
   20MOL     C1 3079   5.889   6.326   4.997  0.3549  0.4985 -0.2603
   20MOL     C2 3080   5.985   6.446   4.988 -0.0920  0.0934  0.1911
   20MOL     C3 3081   5.977   6.531   4.858 -0.6279 -0.3999 -0.0872
   20MOL     O4 3082   6.077   6.584   4.814 -0.3484  0.3717 -0.1570
   20MOL     H5 3083   5.903   6.252   4.918 -0.3391 -2.0077  1.8489
   20MOL     H6 3084   5.897   6.263   5.086 -1.7636  0.7682  0.1440
   20MOL     H7 3085   6.092   6.428   5.005 -0.2391  0.0006  1.0126
   20MOL     H8 3086   5.965   6.512   5.072  1.6114  0.7219  0.1303
   20MOL     H9 3087   5.786   6.356   4.982 -0.3354 -1.3289  0.6041
   20MOL    C10 3088   5.837   6.562   4.800 -0.4195 -0.4171 -0.0216
   20MOL    C11 3089   5.839   6.657   4.685  0.1828 -0.7646 -0.1218
   20MOL    C12 3090   5.773   6.606   4.559 -0.4053  0.0655  0.1579
   20MOL    O13 3091   5.672   6.530   4.559 -0.4594 -0.0225 -0.2141
   20MOL    H14 3092   5.773   6.600   4.880 -0.2930 -3.7420  1.7466
   20MOL    H15 3093   5.797   6.466   4.767 -0.2244  0.1415 -2.0073
   20MOL    H16 3094   5.942   6.686   4.662  0.1755 -1.7325 -1.4311
   20MOL    H17 3095   5.781   6.747   4.701 -0.9426 -1.5998  0.5381
   20MOL    C18 3096   5.854   6.651   4.435  0.3647 -0.4857  0.0429
   20MOL    C19 3097   5.790   6.597   4.309  1.0855 -0.4659  0.0484
   20MOL    C20 3098   5.898   6.568   4.202  0.1570  0.0506  1.3808
   20MOL    O21 3099   6.014   6.537   4.227  0.5231 -0.5648 -0.1197
   20MOL    H22 3100   5.957   6.617   4.448 -0.5011 -2.8062  1.2814
   20MOL    H23 3101   5.853   6.759   4.427 -0.1568 -0.6418 -2.2471
   20MOL    H24 3102   5.718   6.671   4.274 -0.0315 -1.2383  0.7002
   20MOL    H25 3103   5.747   6.498   4.324  0.8179 -0.4479 -0.6062
   20MOL    C26 3104   5.844   6.574   4.062 -0.1373  0.7823 -0.0401
   20MOL    C27 3105   5.936   6.600   3.944  0.4989 -0.2957  0.7405
   20MOL    C28 3106   5.957   6.746   3.903 -0.2892  0.5565  0.1120
   20MOL    O29 3107   5.883   6.807   3.829 -1.0253  0.2955 -0.0695
   20MOL    H30 3108   5.787   6.666   4.063  1.1831  1.6233 -0.2818
   20MOL    H31 3109   5.780   6.489   4.040 -1.0336  0.7387  2.5330
   20MOL    H32 3110   5.887   6.559   3.856 -1.8426  1.8694  0.9799
   20MOL    H33 3111   6.033   6.552   3.962  0.9951  0.8579  1.1887
   20MOL    C34 3112   6.083   6.813   3.944  0.7853 -0.8593 -0.2638
   20MOL    C35 3113   6.105   6.955   3.883 -0.7526 -0.3528  0.4947
   20MOL    C36 3114   6.250   6.972   3.832  0.1692  0.1610  0.5799
   20MOL    O37 3115   6.339   6.964   3.907 -0.1263  1.1837  0.0589
   20MOL    H38 3116   6.155   6.748   3.894  0.2898 -1.6784  0.0734
   20MOL    H39 3117   6.102   6.798   4.050  1.5913 -0.3770 -0.3319
   20MOL    H40 3118   6.079   7.031   3.957  0.8568 -0.5687  1.3134
   20MOL    H41 3119   6.035   6.972   3.801  0.8242  1.7819 -0.4613
   20MOL    C42 3120   6.272   7.012   3.693  0.0149  0.0923 -0.1382
   20MOL    C43 3121   6.227   7.157   3.662  0.5849  0.2150 -0.6054
   20MOL    C44 3122   6.330   7.230   3.576  0.0357  0.7860 -0.1354
   20MOL    O45 3123   6.366   7.338   3.626  0.0033  0.1253 -0.1345
   20MOL    H46 3124   6.213   6.940   3.637  0.2564  0.2147 -0.5527
   20MOL    H47 3125   6.375   6.985   3.667 -0.5595 -1.3701 -0.9735
   20MOL    H48 3126   6.215   7.213   3.755  0.1515  2.9107 -2.2243
   20MOL    H49 3127   6.127   7.145   3.620 -0.3151  0.7604  1.2865
   20MOL    C50 3128   6.374   7.185   3.442 -0.5227  0.8555 -0.2438
   20MOL    C51 3129   6.478   7.273   3.370 -0.2476 -0.2556 -0.8306
   20MOL    C52 3130   6.427   7.416   3.336  0.0596 -0.4387 -0.4799
   20MOL    O53 3131   6.364   7.422   3.230 -0.1065  0.0009 -0.1965
   20MOL    H54 3132   6.284   7.186   3.379 -1.5018 -0.5853  1.0861
   20MOL    H55 3133   6.404   7.081   3.456 -1.1858  0.6520 -0.2831
   20MOL    H56 3134   6.514   7.229   3.277  1.1176 -0.4074 -0.2463
   20MOL    H57 3135   6.569   7.281   3.430 -0.9048 -1.9666  0.4694
   20MOL    C58 3136   6.465   7.538   3.422  0.3432  1.1217  0.3307
   20MOL    C59 3137   6.430   7.677   3.359  0.4746  1.0989  0.0777
   20MOL    C60 3138   6.525   7.795   3.373  0.5580  0.5364 -0.1954
   20MOL    O61 3139   6.482   0.053   3.372  0.1185  0.2405 -0.1289
   20MOL    H62 3140   6.571   7.534   3.449  1.2270  0.9124 -2.9434
   20MOL    H63 3141   6.406   7.539   3.513 -1.8113  2.3887 -1.0489
   20MOL    H64 3142   6.338   7.700   3.413  0.7598 -0.1525  1.1209
   20MOL    H65 3143   6.420   7.691   3.252 -0.0154  1.2522  0.1403
   20MOL    C66 3144   6.676   7.762   3.373 -0.7703 -0.2882  0.2964
   20MOL    C67 3145   6.763   0.034   3.365 -0.3502 -0.3690  0.5038
   20MOL    C68 3146   6.909   0.008   3.341 -0.3003 -0.2075 -0.1273
   20MOL    O69 3147   6.936   7.818   3.233 -0.2330  0.2495 -0.9964
   20MOL    H70 3148   6.688   7.717   3.275  0.0396 -1.6568  1.0033
   20MOL    H71 3149   6.704   7.700   3.459  1.4721 -0.7533 -0.7147
   20MOL    H72 3150   6.749   0.101   3.450  0.8028 -2.3548  2.2903
   20MOL    H73 3151   6.727   0.080   3.273  0.5888 -0.9055 -0.1347
   20MOL    C74 3152   7.001   0.063   3.449  0.4833  0.5550 -0.5632
   20MOL    C75 3153   7.145   0.058   3.409 -0.1279 -0.1886  0.6637
   20MOL    C76 3154   7.202   7.776   3.385  0.9629 -0.4084 -0.4927
   20MOL    O77 3155   7.192   7.682   3.466  0.0399 -0.9539 -0.3534
   20MOL    H78 3156   6.975   0.018   3.545  2.3847  0.9041  0.1394
   20MOL    H79 3157   6.968   0.167   3.462 -2.3179 -0.5194  1.3162
   20MOL    H80 3158   7.195   0.109   3.491  1.3114 -0.2997 -0.1332
   20MOL    H81 3159   7.173   0.121   3.325 -0.0684  1.6934  2.0561
   20MOL    C82 3160   7.274   7.756   3.254  0.1737  0.3685 -0.0776
   20MOL    C83 3161   7.272   7.602   3.206 -0.2597 -1.0740 -0.2599
   20MOL    C84 3162   7.172   7.588   3.091 -0.8894  0.0030 -0.3343
   20MOL    O85 3163   7.210   7.618   2.974  0.0259 -0.5098 -0.0009
   20MOL    H86 3164   7.376   7.793   3.260  0.1496  0.1470  7.0293
   20MOL    H87 3165   7.222   7.824   3.188 -1.2414 -1.8182 -1.2832
   20MOL    H88 3166   7.250   7.533   3.288  0.2373 -1.9163 -0.8354
   20MOL    H89 3167   7.373   7.587   3.170 -0.2606 -1.5933 -0.0519
   20MOL    C90 3168   7.039   7.529   3.123  1.1118 -0.0470 -0.6994
   20MOL    C91 3169   6.968   7.473   2.994 -0.0228 -0.9039 -0.3582
   20MOL    C92 3170   6.852   7.388   3.035 -0.9824 -0.4170 -0.2872
   20MOL    O93 3171   6.780   7.422   3.126 -0.0721 -0.2499  0.0029
   20MOL    H94 3172   6.973   7.608   3.159 -0.1327 -1.4610  0.1814
   20MOL    H95 3173   7.056   7.452   3.199  1.0090  0.0063 -0.6223
   20MOL    H96 3174   7.035   7.407   2.940 -0.2541 -2.1327  0.8446
   20MOL    H97 3175   6.918   7.547   2.931 -0.0535 -1.0138 -0.4638
   20MOL    C98 3176   6.826   7.262   2.958 -0.2048 -0.2074 -0.4330
   20MOL    C99 3177   6.682   7.210   2.966 -0.1105 -0.1728 -0.7697
   20MOL   C100 3178   6.662   7.074   3.034  0.6211  0.3406  0.0890
   20MOL   O101 3179   6.635   7.063   3.153  0.0286 -0.2453 -0.2648
   20MOL   H102 3180   6.893   7.189   3.002  1.0603  0.5388 -1.0791
   20MOL   H103 3181   6.858   7.271   2.854  0.1355  1.3221 -0.2105
   20MOL   H104 3182   6.636   7.213   2.867 -1.0768  0.2013 -0.3191
   20MOL   H105 3183   6.629   7.275   3.035  0.7831 -0.3475  0.0765
   20MOL   C106 3184   6.673   6.947   2.948 -0.2164  0.2158 -0.0581
   20MOL   C107 3185   6.717   6.821   3.026 -0.0950  0.2337  0.6849
   20MOL   C108 3186   6.865   6.781   3.016  0.8718 -0.2329  0.2368
   20MOL   O109 3187   6.956   6.863   3.020  0.6987 -0.1056  0.8979
   20MOL   H110 3188   6.729   6.970   2.857  0.7720  1.7624  0.9103
   20MOL   H111 3189   6.571   6.931   2.913  0.0842  1.5722 -1.6494
   20MOL   H112 3190   6.653   6.740   2.992  1.2091 -0.1778 -0.8851
   20MOL   H113 3191   6.698   6.832   3.133 -3.0852 -0.7980  0.3088
   20MOL   C114 3192   6.907   6.636   3.014 -0.2806  0.9037  0.0212
   20MOL   C115 3193   7.049   6.612   2.956  0.1653 -0.2259 -0.2326
   20MOL   C116 3194   7.111   6.479   3.003  0.3563  1.1551  0.1295
   20MOL   O117 3195   7.053   6.399   3.075  0.4489 -0.4376  0.0734
   20MOL   H118 3196   6.835   6.586   2.949 -0.7374 -1.7249  2.4492
   20MOL   H119 3197   6.906   6.603   3.118  0.4814 -1.6738 -0.7334
   20MOL   H120 3198   7.122   6.689   2.984  2.2303 -2.0755 -0.3888
   20MOL   H121 3199   7.034   6.611   2.848 -0.7487 -2.0728 -0.1001
   20MOL   C122 3200   7.255   6.437   2.948 -0.0138  0.4585  0.1188
   20MOL   C123 3201   7.283   6.282   2.945 -0.1622  0.7437 -0.0755
   20MOL   C124 3202   7.223   6.211   2.823  0.3550 -0.3226 -0.2836
   20MOL   O125 3203   7.134   6.268   2.756  0.2721 -0.7496 -0.2040
   20MOL   H126 3204   7.331   6.479   3.014  0.1411 -0.3812  0.4801
   20MOL   H127 3205   7.261   6.478   2.847 -0.3069 -2.0279 -0.9539
   20MOL   H128 3206   7.243   6.238   3.036 -0.7643  1.7857  0.1705
   20MOL   H129 3207   7.391   6.266   2.947  0.0598  1.1065 -4.5856
   20MOL   C130 3208   7.264   6.069   2.805 -0.1660  0.6938 -0.3575
   20MOL   C131 3209   7.201   5.999   2.686  0.0832 -1.0538 -0.2366
   20MOL   C132 3210   7.173   5.844   2.697  0.6837 -0.8360  0.4414
   20MOL   O133 3211   7.254   5.773   2.758 -0.3516  0.0724  0.2894
   20MOL   H134 3212   7.262   6.010   2.896 -3.1179 -0.8264 -1.3401
   20MOL   H135 3213   7.371   6.074   2.785 -0.4684  1.0011 -1.9817
   20MOL   H136 3214   7.256   6.017   2.593  2.7487 -3.5045  0.8074
   20MOL   H137 3215   7.104   6.049   2.675 -0.2107 -1.7384 -0.8316
   20MOL   C138 3216   7.047   5.783   2.633 -0.0761 -0.8779 -0.3392
   20MOL   C139 3217   7.078   5.715   2.500  0.5234  0.8706 -0.1705
   20MOL   C140 3218   7.069   5.805   2.381 -0.8990  0.0363 -0.2271
   20MOL   O141 3219   7.096   5.923   2.390 -0.0064  0.5974  0.6703
   20MOL   H142 3220   6.981   5.868   2.617  0.0076 -1.2126 -2.4967
   20MOL   H143 3221   6.991   5.723   2.705  2.2436 -0.6286  1.7691
   20MOL   H144 3222   7.015   5.629   2.477  1.8818  0.1865 -1.3679
   20MOL   H145 3223   7.180   5.677   2.499  0.5071  0.6745  1.7476
   20MOL   C146 3224   7.044   5.729   2.245  0.7978  0.5580  0.2110
   20MOL   C147 3225   6.956   5.821   2.168  0.4728  0.2506  0.5627
   20MOL   C148 3226   6.908   5.754   2.037  0.6680 -0.4852 -0.8510
   20MOL   O149 3227   6.980   5.685   1.968 -0.0752 -0.2844  0.1912
   20MOL   H150 3228   6.973   5.648   2.261  1.9458 -0.3139  0.9083
   20MOL   H151 3229   7.131   5.693   2.191  0.1423 -0.4684 -0.1835
   20MOL   H152 3230   7.011   5.913   2.145  1.7353 -0.3528  1.1017
   20MOL   H153 3231   6.876   5.866   2.227 -0.2608  0.3561 -0.4879
   20MOL   C154 3232   6.764   5.787   1.999 -0.1918 -0.6309  0.2018
   20MOL   C155 3233   6.742   5.798   1.849 -0.1897  0.1995  0.0801
   20MOL   C156 3234   6.598   5.807   1.804 -0.2442 -0.5606  0.3800
   20MOL   O157 3235   6.503   5.844   1.876  0.2182 -0.8979 -0.0164
   20MOL   H158 3236   6.722   5.872   2.053  0.5641  0.2815 -0.5953
   20MOL   H159 3237   6.708   5.702   2.035 -0.1334  1.3270  5.2467
   20MOL   H160 3238   6.779   5.709   1.798 -1.1324 -0.3063  0.2569
   20MOL   H161 3239   6.792   5.883   1.804  0.6696  1.7483  3.7860
   20MOL   H162 3240   6.573   5.788   1.700 -0.3572  0.5485  0.1983
   21MOL     C1 3241   3.669   3.153   5.276  0.0465 -0.0147 -0.1467
   21MOL     C2 3242   3.681   3.289   5.204  0.2573 -0.1588 -0.0111
   21MOL     C3 3243   3.660   3.278   5.056  0.4238  0.5469 -0.1235
   21MOL     O4 3244   3.593   3.182   5.013  0.2781 -0.6824  0.5794
   21MOL     H5 3245   3.564   3.122   5.278 -0.1872  0.8131  0.7794
   21MOL     H6 3246   3.718   3.069   5.226  1.8761  0.5569  0.6328
   21MOL     H7 3247   3.780   3.332   5.222  0.8844 -2.5678  2.8716
   21MOL     H8 3248   3.608   3.359   5.243  1.9244  0.9573  1.1475
   21MOL     H9 3249   3.699   3.157   5.381 -0.1234  0.2599 -0.1081
   21MOL    C10 3250   3.705   3.398   4.973 -0.4063 -0.6853  0.1557
   21MOL    C11 3251   3.581   3.465   4.900 -0.0587 -0.3509  0.4519
   21MOL    C12 3252   3.513   3.573   4.986 -0.2529  0.2524  0.0878
   21MOL    O13 3253   3.557   3.600   5.099  0.9293  0.0076 -0.0984
   21MOL    H14 3254   3.780   3.360   4.903  1.1371  0.7401  1.0395
   21MOL    H15 3255   3.740   3.472   5.044 -0.0384  2.3848 -3.0700
   21MOL    H16 3256   3.513   3.385   4.868 -2.9761  1.0209  3.0309
   21MOL    H17 3257   3.612   3.517   4.809 -1.1551  0.2688  0.4370
   21MOL    C18 3258   3.394   3.651   4.921  0.5317 -0.0772 -0.5617
   21MOL    C19 3259   3.340   3.774   4.996  0.3581  0.1532  0.3671
   21MOL    C20 3260   3.250   3.862   4.916  0.1186 -0.0874 -0.3133
   21MOL    O21 3261   3.129   3.834   4.908  0.4202 -0.5029  0.3245
   21MOL    H22 3262   3.315   3.581   4.893  2.6317 -1.2965 -3.8492
   21MOL    H23 3263   3.432   3.683   4.824  1.0717 -0.7926 -0.5936
   21MOL    H24 3264   3.424   3.824   5.046  1.1519 -1.2308  0.4343
   21MOL    H25 3265   3.294   3.727   5.082 -2.9766  0.6516 -1.0675
   21MOL    C26 3266   3.307   3.992   4.865  0.0488 -0.4803  0.1690
   21MOL    C27 3267   3.214   4.037   4.752 -0.1197  0.1692  0.4800
   21MOL    C28 3268   3.277   4.133   4.657 -0.7343  0.3036  0.4899
   21MOL    O29 3269   3.376   4.198   4.691  0.0304  0.0865 -0.4880
   21MOL    H30 3270   3.401   3.962   4.817  1.6595  1.8908  1.7306
   21MOL    H31 3271   3.314   4.067   4.943 -0.3270  0.8526 -1.0609
   21MOL    H32 3272   3.125   4.072   4.805 -0.3225  0.1513  0.1556
   21MOL    H33 3273   3.177   3.953   4.694 -2.7526  0.8858  1.0488
   21MOL    C34 3274   3.200   4.158   4.527 -0.3021  0.4433 -0.2170
   21MOL    C35 3275   3.106   4.282   4.551 -0.6334 -0.2199 -0.7642
   21MOL    C36 3276   2.980   4.259   4.473 -0.0014  0.0574  0.4800
   21MOL    O37 3277   2.944   4.154   4.430  0.6283 -0.0421 -0.5076
   21MOL    H38 3278   3.150   4.071   4.486 -1.8827  1.3795 -0.3142
   21MOL    H39 3279   3.279   4.178   4.455 -1.2079  0.2792 -1.2547
   21MOL    H40 3280   3.149   4.380   4.531 -1.4794  0.7114  1.8844
   21MOL    H41 3281   3.074   4.275   4.655  0.3716 -0.6694 -0.4771
   21MOL    C42 3282   2.897   4.380   4.431 -0.5138  0.0450 -0.2265
   21MOL    C43 3283   2.799   4.354   4.318  0.1142  0.5759  0.6629
   21MOL    C44 3284   2.779   4.478   4.238  0.1415 -0.3900 -0.0166
   21MOL    O45 3285   2.824   4.589   4.267  0.3000 -0.4714 -0.2727
   21MOL    H46 3286   2.962   4.453   4.383  0.5885 -0.0258  1.1153
   21MOL    H47 3287   2.853   4.424   4.521 -0.3994  0.4698 -0.3801
   21MOL    H48 3288   2.704   4.319   4.357 -0.6810  1.7365 -0.1893
   21MOL    H49 3289   2.831   4.274   4.252 -1.5704  0.8694 -0.5541
   21MOL    C50 3290   2.697   4.456   4.111 -0.2698  0.8149  0.8991
   21MOL    C51 3291   2.790   4.464   3.986  0.0526  0.4992 -0.3021
   21MOL    C52 3292   2.836   4.332   3.930  0.3022  0.6937 -0.0031
   21MOL    O53 3293   2.763   4.227   3.926 -0.2116 -0.7741 -0.4412
   21MOL    H54 3294   2.622   4.532   4.094 -0.9860 -0.2367 -0.7726
   21MOL    H55 3295   2.647   4.360   4.100 -1.8493  1.5784  1.3790
   21MOL    H56 3296   2.872   4.533   4.005  0.9605 -0.6837  0.1509
   21MOL    H57 3297   2.722   4.508   3.913  1.2780  1.9415 -0.5996
   21MOL    C58 3298   2.981   4.315   3.891 -0.2447 -0.0175  0.4941
   21MOL    C59 3299   3.050   4.179   3.887 -0.0501 -0.1735  0.0044
   21MOL    C60 3300   3.092   4.128   4.024 -0.2988  0.1212  0.5318
   21MOL    O61 3301   3.034   4.175   4.125 -0.0732  0.4351  0.5345
   21MOL    H62 3302   3.035   4.379   3.960 -1.7408  1.1126  0.6537
   21MOL    H63 3303   2.999   4.366   3.797 -0.8860 -0.0002  0.3784
   21MOL    H64 3304   3.132   4.172   3.815 -0.8581 -1.6897 -0.7783
   21MOL    H65 3305   2.973   4.114   3.845 -0.8044  0.5444  0.2732
   21MOL    C66 3306   3.193   4.015   4.040 -0.2825 -1.0337 -0.2869
   21MOL    C67 3307   3.294   4.064   4.135  0.2290 -0.3606 -0.1131
   21MOL    C68 3308   3.395   3.961   4.181  0.1219 -0.2232  0.1954
   21MOL    O69 3309   3.460   3.896   4.097  0.6596 -0.0236  0.1499
   21MOL    H70 3310   3.244   3.999   3.945 -2.0719  0.9361 -1.6095
   21MOL    H71 3311   3.131   3.929   4.065 -1.8955  0.8494  2.5499
   21MOL    H72 3312   3.240   4.102   4.222 -0.3372  1.6363 -1.3070
   21MOL    H73 3313   3.342   4.149   4.087  0.5599  0.6337  1.9300
   21MOL    C74 3314   3.434   3.952   4.329 -0.0469 -0.7161  0.4396
   21MOL    C75 3315   3.581   3.897   4.350  0.1414  0.5076  0.1775
   21MOL    C76 3316   3.603   3.816   4.482  0.0005  0.6378 -0.0690
   21MOL    O77 3317   3.514   3.786   4.562 -0.0469  0.6419  0.4466
   21MOL    H78 3318   3.368   3.874   4.368  0.1374 -1.5618 -0.8995
   21MOL    H79 3319   3.428   4.053   4.370 -3.0223 -1.7138  2.6491
   21MOL    H80 3320   3.656   3.975   4.340 -1.4627  2.0177 -0.3038
   21MOL    H81 3321   3.604   3.828   4.269 -3.2397 -1.5919  0.8952
   21MOL    C82 3322   3.743   3.781   4.513  0.1443 -0.6506 -0.4626
   21MOL    C83 3323   3.756   3.651   4.602 -0.0807 -0.1735  0.2942
   21MOL    C84 3324   3.896   3.591   4.598 -0.1499  0.3405 -0.1230
   21MOL    O85 3325   3.981   3.616   4.685  0.4271  0.6476  0.3136
   21MOL    H86 3326   3.790   3.870   4.555 -1.0003 -0.2363 -0.0194
   21MOL    H87 3327   3.796   3.756   4.422  1.3922  1.3093 -0.2921
   21MOL    H88 3328   3.678   3.576   4.590  0.1430 -0.4626  0.6534
   21MOL    H89 3329   3.724   3.669   4.705  1.5704 -0.0649  0.7958
   21MOL    C90 3330   3.926   3.502   4.476 -0.0239  0.1666 -0.2360
   21MOL    C91 3331   3.985   3.365   4.520  0.0074 -0.1853  0.1330
   21MOL    C92 3332   4.128   3.347   4.465 -0.4082  0.1445  0.8951
   21MOL    O93 3333   4.181   3.425   4.391  0.2654  0.7387  0.3770
   21MOL    H94 3334   3.977   3.568   4.406 -1.5353  0.0511 -1.4742
   21MOL    H95 3335   3.834   3.483   4.422 -0.8659 -1.0219  1.5618
   21MOL    H96 3336   3.923   3.285   4.480  0.0810 -0.2756  0.1971
   21MOL    H97 3337   3.983   3.361   4.629 -0.5286  1.4980  0.1807
   21MOL    C98 3338   4.189   3.216   4.515  0.1825 -0.3025  0.2803
   21MOL    C99 3339   4.225   3.233   4.658 -0.5336 -0.1081  0.3219
   21MOL   C100 3340   4.239   3.101   4.729  0.0486  0.3667 -0.0794
   21MOL   O101 3341   4.161   3.001   4.723 -0.6051  0.6959  0.0881
   21MOL   H102 3342   4.285   3.209   4.464  0.0709  1.6558 -0.2196
   21MOL   H103 3343   4.113   3.137   4.509 -1.6479  1.5229 -1.5395
   21MOL   H104 3344   4.163   3.299   4.718 -0.3413 -0.0949  0.5060
   21MOL   H105 3345   4.323   3.280   4.646 -0.3158 -0.4745  0.6447
   21MOL   C106 3346   4.368   3.092   4.814  0.0977 -0.0759 -0.0305
   21MOL   C107 3347   4.363   2.990   4.936  0.9606  0.1552 -0.6145
   21MOL   C108 3348   4.471   2.885   4.929 -0.1271 -0.3373 -0.2243
   21MOL   O109 3349   4.554   2.891   4.840  0.0317 -0.1592  0.3424
   21MOL   H110 3350   4.374   3.192   4.857 -0.8105  0.5876 -1.4243
   21MOL   H111 3351   4.451   3.073   4.746  1.3062  1.6356  0.9305
   21MOL   H112 3352   4.270   2.934   4.936  0.1603  1.4423 -0.5112
   21MOL   H113 3353   4.388   3.039   5.030  2.4045  0.0742 -0.9513
   21MOL   C114 3354   4.487   2.794   5.051  0.1319  0.0912 -0.0996
   21MOL   C115 3355   4.624   2.811   5.121 -0.2953  0.1294  0.5415
   21MOL   C116 3356   4.610   2.842   5.270 -0.0130 -0.1295 -0.3939
   21MOL   O117 3357   4.543   2.767   5.338  0.1521 -0.3005  0.6384
   21MOL   H118 3358   4.468   2.692   5.017  2.2119 -0.1907 -0.4743
   21MOL   H119 3359   4.405   2.790   5.123 -0.7062 -0.4292 -1.0556
   21MOL   H120 3360   4.695   2.882   5.077 -0.6919 -0.2922 -0.7975
   21MOL   H121 3361   4.688   2.724   5.108  2.3453  1.8349  1.7619
   21MOL   C122 3362   4.669   2.975   5.327 -0.6412 -0.9439 -0.0210
   21MOL   C123 3363   4.577   3.038   5.441 -0.0695 -0.1276  0.2786
   21MOL   C124 3364   4.482   3.139   5.378 -0.4755  0.0696 -0.2985
   21MOL   O125 3365   4.472   3.145   5.257  0.2671  0.5899 -0.3138
   21MOL   H126 3366   4.698   3.041   5.245  0.6642 -0.9757  0.4051
   21MOL   H127 3367   4.760   2.943   5.378 -1.4942  1.0933  2.9462
   21MOL   H128 3368   4.629   3.101   5.513  0.7788 -1.6141  0.9904
   21MOL   H129 3369   4.534   2.950   5.490  1.5916 -0.6046  0.9138
   21MOL   C130 3370   4.398   3.217   5.468  0.5179  0.7958  0.1483
   21MOL   C131 3371   4.451   3.347   5.532  0.4171  0.7843  0.2208
   21MOL   C132 3372   4.474   3.466   5.439 -0.1307  0.7795  0.2737
   21MOL   O133 3373   4.429   3.466   5.324 -0.4145 -0.2429  0.2364
   21MOL   H134 3374   4.365   3.148   5.545  2.7010  0.2307  0.6089
   21MOL   H135 3375   4.305   3.241   5.415 -0.9675 -2.9266  0.9285
   21MOL   H136 3376   4.541   3.318   5.587 -0.3039 -1.6180  0.2067
   21MOL   H137 3377   4.378   3.380   5.605 -0.5275 -1.2418  0.2276
   21MOL   C138 3378   4.533   3.588   5.502  0.6455 -0.2497 -0.0444
   21MOL   C139 3379   4.495   3.710   5.429  0.9190  0.3547 -0.6013
   21MOL   C140 3380   4.360   3.777   5.461  0.2952 -0.3551  0.2726
   21MOL   O141 3381   4.293   3.736   5.556  0.5399  0.0846  0.2579
   21MOL   H142 3382   4.642   3.588   5.499  0.6269 -0.5128 -1.0350
   21MOL   H143 3383   4.514   3.603   5.608  1.4228 -3.0873  0.5496
   21MOL   H144 3384   4.495   3.693   5.322 -1.5940  0.9404 -0.7169
   21MOL   H145 3385   4.575   3.784   5.443  0.5406  0.1084  3.6572
   21MOL   C146 3386   4.312   3.893   5.370  0.1598 -0.2766  1.3115
   21MOL   C147 3387   4.315   4.029   5.436 -0.5407  0.0199  0.8553
   21MOL   C148 3388   4.424   4.114   5.371 -0.0861  0.3083  0.4264
   21MOL   O149 3389   4.534   4.069   5.372 -0.0663  0.5973  0.0817
   21MOL   H150 3390   4.212   3.866   5.336  0.7288  0.3166 -0.9011
   21MOL   H151 3391   4.378   3.895   5.283 -0.9233  2.2131  0.5051
   21MOL   H152 3392   4.317   4.039   5.545 -3.5257  2.7034  0.7779
   21MOL   H153 3393   4.219   4.076   5.414 -0.5291 -1.1592 -1.8890
   21MOL   C154 3394   4.401   4.266   5.345 -0.1763  0.0406 -0.0105
   21MOL   C155 3395   4.519   4.334   5.275  0.6593  0.6927  0.2257
   21MOL   C156 3396   4.521   4.481   5.320 -0.0297 -0.5362  0.1419
   21MOL   O157 3397   4.425   4.552   5.328  0.6233 -0.3460 -0.0564
   21MOL   H158 3398   4.370   4.303   5.443  0.8302  0.2919  0.2182
   21MOL   H159 3399   4.310   4.280   5.287 -0.9765 -1.1896  0.9042
   21MOL   H160 3400   4.506   4.324   5.167 -0.6634  1.6100  0.2906
   21MOL   H161 3401   4.610   4.278   5.297 -0.5049 -1.1512  0.5185
   21MOL   H162 3402   4.618   4.514   5.359 -1.4084  0.0744  3.2236
   22MOL     C1 3403   5.462   2.628   4.268 -0.2929 -0.5708 -0.0039
   22MOL     C2 3404   5.482   2.784   4.255 -0.4419  0.1788  0.1593
   22MOL     C3 3405   5.548   2.818   4.118 -0.1407  0.2195 -0.6051
   22MOL     O4 3406   5.517   2.748   4.024  0.6651 -0.0181 -0.0107
   22MOL     H5 3407   5.365   2.592   4.231 -0.1951 -0.0031 -0.8270
   22MOL     H6 3408   5.542   2.571   4.221  0.5305  0.7557 -0.2230
   22MOL     H7 3409   5.565   2.810   4.321 -0.4876  0.1230  0.2382
   22MOL     H8 3410   5.392   2.837   4.283  1.2167  1.8493  2.4866
   22MOL     H9 3411   5.471   2.600   4.373  1.6955  1.5699  0.4209
   22MOL    C10 3412   5.652   2.931   4.107  0.2009 -0.2795 -0.2726
   22MOL    C11 3413   5.665   2.981   3.962  0.5258 -0.4315 -1.4775
   22MOL    C12 3414   5.539   3.042   3.903  0.9193 -0.3108 -0.2975
   22MOL    O13 3415   5.506   3.157   3.929  0.5241 -0.1956  0.5076
   22MOL    H14 3416   5.744   2.892   4.152  0.3560  0.0165 -0.3291
   22MOL    H15 3417   5.612   3.009   4.171  2.0469 -0.4098  1.0828
   22MOL    H16 3418   5.691   2.895   3.900  0.6583 -0.7773 -0.9432
   22MOL    H17 3419   5.741   3.059   3.959 -0.5311  0.8561  2.3689
   22MOL    C18 3420   5.456   2.966   3.806 -0.0670 -0.1205  0.6562
   22MOL    C19 3421   5.315   2.954   3.853  0.5965 -0.1602  0.6040
   22MOL    C20 3422   5.219   3.058   3.794 -0.7787 -0.2636 -1.1914
   22MOL    O21 3423   5.164   3.053   3.685  0.1253 -0.5055 -0.3400
   22MOL    H22 3424   5.508   2.871   3.792  2.8440  1.3629  1.0676
   22MOL    H23 3425   5.472   3.030   3.719  0.4731  2.8380  2.8673
   22MOL    H24 3426   5.306   2.961   3.962 -1.9608 -0.4031  0.4391
   22MOL    H25 3427   5.279   2.858   3.816  1.3151 -0.9306  1.8631
   22MOL    C26 3428   5.188   3.171   3.891  0.2234 -0.6279  0.1309
   22MOL    C27 3429   5.222   3.310   3.831 -0.7972  0.0058  0.2565
   22MOL    C28 3430   5.146   3.424   3.901  0.3203 -0.2003  0.4267
   22MOL    O29 3431   5.048   3.395   3.968 -0.2433  0.2682 -0.1713
   22MOL    H30 3432   5.225   3.163   3.993  2.0758 -1.1993 -0.5514
   22MOL    H31 3433   5.080   3.179   3.883  0.4567  4.6035  0.6853
   22MOL    H32 3434   5.231   3.322   3.723 -0.4885 -0.9335  0.1760
   22MOL    H33 3435   5.325   3.322   3.865 -0.5469  0.2181 -0.5569
   22MOL    C34 3436   5.198   3.570   3.878 -0.2358  0.0599 -0.0569
   22MOL    C35 3437   5.096   3.668   3.812  0.2776 -0.9794  0.8214
   22MOL    C36 3438   5.039   3.613   3.680  0.0168 -0.2435 -1.1503
   22MOL    O37 3439   5.094   3.521   3.619  0.1796  0.5787  0.4549
   22MOL    H38 3440   5.287   3.567   3.816 -0.2477  2.3498 -0.2084
   22MOL    H39 3441   5.226   3.612   3.974 -1.2123 -1.5413  0.9489
   22MOL    H40 3442   5.141   3.766   3.797  0.5154 -1.3916 -1.3416
   22MOL    H41 3443   5.008   3.689   3.873 -1.1492 -1.5995 -0.9494
   22MOL    C42 3444   4.923   3.684   3.611  0.4968  0.8851  0.4705
   22MOL    C43 3445   4.878   3.626   3.475  0.9510 -0.6914  0.2049
   22MOL    C44 3446   4.734   3.575   3.491 -0.5230  0.8326 -0.0641
   22MOL    O45 3447   4.715   3.454   3.511 -0.0539 -0.4725  0.7391
   22MOL    H46 3448   4.961   3.782   3.581 -0.9335  0.9544 -1.1854
   22MOL    H47 3449   4.845   3.705   3.684 -0.1144 -1.5422  0.5578
   22MOL    H48 3450   4.952   3.554   3.440  0.9240 -0.9036  0.5813
   22MOL    H49 3451   4.893   3.700   3.396  0.0002  0.6570  1.2634
   22MOL    C50 3452   4.619   3.683   3.482 -0.4281  1.5078 -0.1825
   22MOL    C51 3453   4.489   3.619   3.521 -0.0308 -0.1763 -0.5984
   22MOL    C52 3454   4.408   3.568   3.408  0.2213  0.1602  0.0386
   22MOL    O53 3455   4.386   3.639   3.309 -0.2894 -0.4586 -0.4943
   22MOL    H54 3456   4.609   3.719   3.380  0.0559  1.8389 -0.1131
   22MOL    H55 3457   4.647   3.773   3.537 -2.0594  1.5605  0.6022
   22MOL    H56 3458   4.430   3.702   3.560 -0.4692 -0.5942 -0.3681
   22MOL    H57 3459   4.496   3.551   3.607 -1.3810  1.2610  0.6824
   22MOL    C58 3460   4.353   3.430   3.414 -0.0868  0.2546  0.4391
   22MOL    C59 3461   4.238   3.423   3.514  0.4404 -0.8417  0.2347
   22MOL    C60 3462   4.211   3.280   3.558 -0.4642  0.3177 -0.1707
   22MOL    O61 3463   4.157   3.202   3.481 -0.5574  0.1057  0.3145
   22MOL    H62 3464   4.442   3.367   3.428 -1.6914 -1.5264  3.0663
   22MOL    H63 3465   4.323   3.422   3.309 -3.2642  1.4646  1.2157
   22MOL    H64 3466   4.145   3.465   3.476  0.5948 -0.1987  0.5551
   22MOL    H65 3467   4.269   3.483   3.600  0.5560  2.0032 -1.7024
   22MOL    C66 3468   4.290   3.228   3.684 -0.0073  0.2274 -0.0305
   22MOL    C67 3469   4.372   3.096   3.659  0.1054  0.2312  0.2969
   22MOL    C68 3470   4.314   2.979   3.728 -0.6878 -0.2387  0.3205
   22MOL    O69 3471   4.237   2.987   3.821 -0.3102  0.2035 -0.2596
   22MOL    H70 3472   4.213   3.197   3.755 -0.1551 -0.0364 -0.3079
   22MOL    H71 3473   4.351   3.306   3.730 -0.6329 -0.2512  1.6378
   22MOL    H72 3474   4.476   3.108   3.691  1.5651  0.4367 -4.1855
   22MOL    H73 3475   4.373   3.062   3.555 -1.8946 -0.6077  0.5371
   22MOL    C74 3476   4.338   2.845   3.668 -0.0271  0.3993 -0.2780
   22MOL    C75 3477   4.278   2.732   3.746 -0.6492  0.1438 -0.2244
   22MOL    C76 3478   4.147   2.695   3.684  0.4910 -0.3552 -0.4631
   22MOL    O77 3479   4.124   2.694   3.563 -0.2729  0.1307  0.1938
   22MOL    H78 3480   4.447   2.836   3.666 -0.1055 -0.9239  0.7067
   22MOL    H79 3481   4.317   2.852   3.561  0.5562 -1.2832 -0.5227
   22MOL    H80 3482   4.272   2.748   3.854  1.0108 -1.5874  0.1345
   22MOL    H81 3483   4.341   2.644   3.745 -5.6552 -3.6710  1.5306
   22MOL    C82 3484   4.040   2.656   3.787  0.8255  0.9977  1.0088
   22MOL    C83 3485   3.905   2.619   3.729 -0.6313  0.1541  0.0332
   22MOL    C84 3486   3.787   2.676   3.798 -1.0452  0.0166  0.3123
   22MOL    O85 3487   3.797   2.775   3.872 -0.5005 -0.4544  0.3168
   22MOL    H86 3488   4.045   2.750   3.842 -0.6873  1.5278  0.2539
   22MOL    H87 3489   4.089   2.574   3.839  0.2557 -0.8562 -1.2707
   22MOL    H88 3490   3.897   2.511   3.745  2.3431  0.0004  0.8303
   22MOL    H89 3491   3.896   2.631   3.621 -1.4345  1.8206  0.2798
   22MOL    C90 3492   3.648   2.613   3.779  0.1000  0.4241 -0.6987
   22MOL    C91 3493   3.606   2.545   3.908 -0.1184  0.1547  0.7391
   22MOL    C92 3494   3.458   2.505   3.903 -0.4654 -0.2987  0.1765
   22MOL    O93 3495   3.377   2.573   3.964 -0.0496 -0.3555  0.0810
   22MOL    H94 3496   3.663   2.544   3.695 -0.1974  0.5606 -0.8640
   22MOL    H95 3497   3.581   2.686   3.734 -1.5748 -0.6182  0.0531
   22MOL    H96 3498   3.608   2.620   3.987  0.0937  0.2577  0.6388
   22MOL    H97 3499   3.679   2.470   3.938 -0.9319 -1.3002 -0.8245
   22MOL    C98 3500   3.413   2.380   3.835 -0.2172 -0.1308  0.3813
   22MOL    C99 3501   3.255   2.355   3.830  0.8683 -0.1631  0.4301
   22MOL   C100 3502   3.198   2.251   3.922 -0.3071 -0.8477 -0.0767
   22MOL   O101 3503   3.272   2.173   3.980  0.2508  0.7651 -0.0819
   22MOL   H102 3504   3.462   2.298   3.887 -0.9481 -1.3186 -0.7795
   22MOL   H103 3505   3.464   2.379   3.738 -0.7731  0.2004  0.0798
   22MOL   H104 3506   3.236   2.317   3.729 -2.2997  1.4050  0.3751
   22MOL   H105 3507   3.199   2.446   3.855  2.0832  0.4201  1.0605
   22MOL   C106 3508   3.055   2.269   3.957  0.0251 -0.2250  0.6514
   22MOL   C107 3509   3.003   2.151   4.034 -0.3262 -0.7917 -0.1512
   22MOL   C108 3510   2.853   2.127   4.012  0.0318 -0.4029  0.0259
   22MOL   O109 3511   2.795   2.174   3.913 -0.1562 -0.0879 -0.0547
   22MOL   H110 3512   2.990   2.297   3.874  0.3626 -0.1136  0.4251
   22MOL   H111 3513   3.041   2.359   4.016 -0.5914  1.3006 -1.7319
   22MOL   H112 3514   3.032   2.167   4.138  0.4957  2.8005 -0.8668
   22MOL   H113 3515   3.051   2.061   3.997  0.1266 -0.5699 -0.1058
   22MOL   C114 3516   2.769   2.065   4.124 -0.5525 -0.0909 -0.8945
   22MOL   C115 3517   2.800   1.917   4.142 -0.1267  0.3626  0.4712
   22MOL   C116 3518   2.897   1.890   4.259 -0.6252 -0.2861  0.7832
   22MOL   O117 3519   2.935   1.982   4.340  0.4610 -0.6949 -0.2399
   22MOL   H118 3520   2.665   2.087   4.102 -0.2361  0.8759 -1.4462
   22MOL   H119 3521   2.764   2.114   4.221  1.1722  0.5831 -1.1226
   22MOL   H120 3522   2.840   1.871   4.052  0.2424  3.0202 -0.7681
   22MOL   H121 3523   2.713   1.851   4.147  2.3288 -3.1467 -1.4495
   22MOL   C122 3524   2.925   1.746   4.280 -0.6924 -0.0576  0.0775
   22MOL   C123 3525   3.042   1.726   4.381  0.4397 -0.6865  0.2090
   22MOL   C124 3526   3.148   1.625   4.328  0.4550 -0.3666 -0.0632
   22MOL   O125 3527   3.208   1.646   4.220 -0.3741 -0.0947 -0.1324
   22MOL   H126 3528   2.938   1.694   4.186 -0.2265 -0.7717  0.5309
   22MOL   H127 3529   2.834   1.697   4.314 -0.8648  1.3944  1.8240
   22MOL   H128 3530   3.014   1.686   4.479  0.7269  1.9509  1.4039
   22MOL   H129 3531   3.104   1.815   4.391 -1.4254  0.6732 -0.0094
   22MOL   C130 3532   3.173   1.500   4.417 -0.5400  0.2931 -0.0466
   22MOL   C131 3533   3.288   1.412   4.358 -0.0908 -1.0581 -0.1916
   22MOL   C132 3534   3.374   1.348   4.466 -0.2371  1.0275 -0.5408
   22MOL   O133 3535   3.408   1.409   4.573 -0.1596  0.6870  0.6355
   22MOL   H134 3536   3.078   1.447   4.412 -0.7933  0.9468 -2.7634
   22MOL   H135 3537   3.196   1.524   4.521  0.4747 -0.4502 -0.0909
   22MOL   H136 3538   3.353   1.474   4.296 -0.2687  0.0815  0.7607
   22MOL   H137 3539   3.246   1.335   4.293  0.3136 -0.3473 -1.3121
   22MOL   C138 3540   3.416   1.203   4.444 -0.3703  0.1411 -0.1460
   22MOL   C139 3541   3.498   1.136   4.558 -0.0119  0.0827  0.1891
   22MOL   C140 3542   3.627   1.078   4.510  0.0373 -0.1859 -0.2891
   22MOL   O141 3543   3.716   1.147   4.460  0.3133  0.3604 -0.5198
   22MOL   H142 3544   3.476   1.201   4.353 -2.2453 -0.2026 -1.3975
   22MOL   H143 3545   3.326   1.144   4.424  0.0591 -0.5972  0.0506
   22MOL   H144 3546   3.447   1.044   4.585 -0.0466 -0.2405 -0.9792
   22MOL   H145 3547   3.495   1.182   4.657 -1.1448  1.0680 -0.3011
   22MOL   C146 3548   3.658   0.934   4.548 -0.2489 -0.7223  0.0133
   22MOL   C147 3549   3.783   0.866   4.483 -0.6194 -1.0535 -0.6887
   22MOL   C148 3550   3.759   0.739   4.408 -0.3868  0.3435 -0.4048
   22MOL   O149 3551   3.651   0.678   4.408  0.0419 -0.5282 -0.4783
   22MOL   H150 3552   3.565   0.878   4.547 -1.0955  0.6621  0.1044
   22MOL   H151 3553   3.671   0.949   4.656 -0.9001 -1.1903  0.1569
   22MOL   H152 3554   3.858   0.854   4.561  0.4218  0.9730 -1.3519
   22MOL   H153 3555   3.832   0.928   4.408 -1.7242 -0.8343 -1.2474
   22MOL   C154 3556   3.879   0.695   4.326 -0.5573 -0.0370  0.6391
   22MOL   C155 3557   3.968   0.598   4.403  0.6034  0.1786 -0.1518
   22MOL   C156 3558   3.957   0.457   4.350  0.1413  0.3432  0.0140
   22MOL   O157 3559   3.867   0.385   4.388  0.2405 -0.2954  0.1209
   22MOL   H158 3560   3.927   0.790   4.302 -0.5416 -0.5757 -1.5122
   22MOL   H159 3561   3.829   0.669   4.232  1.6154 -2.2650  0.0852
   22MOL   H160 3562   3.951   0.602   4.510  1.7109 -0.9745  0.0691
   22MOL   H161 3563   4.074   0.623   4.407 -0.0513  2.7792  2.6638
   22MOL   H162 3564   4.037   0.416   4.288 -0.8590 -1.6983  0.0224
   23MOL     C1 3565   1.441   6.678   0.099 -0.2092 -0.3815  0.2405
   23MOL     C2 3566   1.415   6.718   7.812  0.2410 -0.6887  0.2607
   23MOL     C3 3567   1.513   6.815   7.742 -0.5882  0.7592 -0.2370
   23MOL     O4 3568   1.634   6.827   7.772 -0.1488 -0.0765 -0.0149
   23MOL     H5 3569   1.388   6.738   0.173  0.1838 -0.9925  1.0247
   23MOL     H6 3570   1.408   6.577   0.125  1.9025 -0.8476  1.2467
   23MOL     H7 3571   1.326   6.780   7.821  1.0359  0.5182 -0.0140
   23MOL     H8 3572   1.381   6.633   7.753  0.0522  1.2058 -2.4585
   23MOL     H9 3573   1.546   6.684   0.127 -0.1834  1.4057 -0.1605
   23MOL    C10 3574   1.443   6.909   7.647  0.1696  0.0985 -0.2618
   23MOL    C11 3575   1.546   6.980   7.556 -0.1379 -0.4237 -0.1523
   23MOL    C12 3576   1.556   7.130   7.591  0.1578  0.0147  0.3109
   23MOL    O13 3577   1.468   7.212   7.555  0.1834 -0.8398 -0.1822
   23MOL    H14 3578   1.371   6.977   7.692  2.6393  2.0470  0.8522
   23MOL    H15 3579   1.380   6.856   7.576  1.4421 -0.7497 -0.7727
   23MOL    H16 3580   1.515   6.967   7.453 -0.5457  3.2615 -0.5759
   23MOL    H17 3581   1.646   6.936   7.563  1.5142  3.1644  0.0837
   23MOL    C18 3582   1.680   7.161   7.669 -0.7615  0.1089  0.7944
   23MOL    C19 3583   1.711   7.319   7.677 -0.0732 -0.4569  0.7988
   23MOL    C20 3584   1.795   7.371   7.557 -0.4726 -0.0805 -0.1969
   23MOL    O21 3585   1.899   7.317   7.531 -0.0628 -0.2685 -0.5014
   23MOL    H22 3586   1.767   7.113   7.624  0.2145 -0.0361  2.7576
   23MOL    H23 3587   1.661   7.119   7.768  0.0275 -0.8459  0.5506
   23MOL    H24 3588   1.759   7.336   7.773 -0.3530 -0.1830  0.8923
   23MOL    H25 3589   1.617   7.374   7.675  0.5102  0.5999  1.6435
   23MOL    C26 3590   1.746   7.486   7.476  0.0210  0.7225 -0.2765
   23MOL    C27 3591   1.672   7.440   7.353  0.2925 -0.4052 -0.2033
   23MOL    C28 3592   1.540   7.519   7.338  0.4385  0.8095  0.6873
   23MOL    O29 3593   1.524   7.633   7.380 -0.5661 -0.1694  0.7156
   23MOL    H30 3594   1.831   7.545   7.442  0.5116  2.1724  3.3188
   23MOL    H31 3595   1.685   7.550   7.540 -1.7308 -0.4855 -0.6774
   23MOL    H32 3596   1.633   7.338   7.355 -4.4155  1.2630 -0.4234
   23MOL    H33 3597   1.736   7.440   7.264 -0.2279 -0.2830 -0.5774
   23MOL    C34 3598   1.425   7.441   7.274 -0.1920 -0.8585  0.4064
   23MOL    C35 3599   1.287   7.489   7.317 -0.5976 -0.1176 -0.3670
   23MOL    C36 3600   1.165   7.456   7.225  0.0013  0.1554 -0.1191
   23MOL    O37 3601   1.187   7.396   7.118  0.5424 -0.4755  0.1360
   23MOL    H38 3602   1.423   7.336   7.304 -2.8090 -0.6591  1.0282
   23MOL    H39 3603   1.433   7.430   7.165  0.4467  0.0722  0.3504
   23MOL    H40 3604   1.284   7.598   7.316 -3.5999 -0.1438 -3.1018
   23MOL    H41 3605   1.263   7.444   7.414  1.2604 -1.3009 -0.4430
   23MOL    C42 3606   1.019   7.489   7.265 -0.2841 -0.0505  0.5050
   23MOL    C43 3607   0.959   7.607   7.190  0.0589  0.1786 -0.2320
   23MOL    C44 3608   0.876   7.708   7.267 -0.0706 -0.5519  0.2835
   23MOL    O45 3609   0.912   7.819   7.273 -0.1904  0.1289 -0.0829
   23MOL    H46 3610   1.017   7.512   7.371  0.5845  1.1165  0.2732
   23MOL    H47 3611   0.957   7.400   7.254  2.6322 -1.8731 -1.8853
   23MOL    H48 3612   0.886   7.567   7.120 -1.9709  0.6734  1.5279
   23MOL    H49 3613   1.031   7.667   7.134  0.5700  0.6705  0.9118
   23MOL    C50 3614   0.759   7.661   7.349  0.0431  0.8771 -0.1471
   23MOL    C51 3615   0.696   7.768   7.443 -0.0792  0.5929  0.4550
   23MOL    C52 3616   0.574   7.718   7.515  0.2312  0.1582 -0.0068
   23MOL    O53 3617   0.581   7.625   7.592 -0.5383 -0.4017 -0.2203
   23MOL    H54 3618   0.789   7.575   7.407  1.3776  1.9668  0.8074
   23MOL    H55 3619   0.691   7.615   7.277 -0.2019  0.8678  0.0875
   23MOL    H56 3620   0.654   7.844   7.376 -1.7951 -1.3230 -0.7104
   23MOL    H57 3621   0.765   7.819   7.510 -0.7355  2.6465 -0.3986
   23MOL    C58 3622   0.444   7.792   7.472  0.1993  0.4666  0.1698
   23MOL    C59 3623   0.341   7.683   7.433  0.3177  0.1660 -0.4859
   23MOL    C60 3624   0.194   7.722   7.445 -0.8856  0.1219 -0.1571
   23MOL    O61 3625   0.150   7.725   7.564 -0.0059  0.0385  0.6906
   23MOL    H62 3626   0.463   0.016   7.404  0.8183  2.7325  3.0083
   23MOL    H63 3627   0.411   7.847   7.561 -2.4249  0.3574 -0.6923
   23MOL    H64 3628   0.352   7.596   7.499  0.4564 -0.1249 -0.8916
   23MOL    H65 3629   0.370   7.643   7.336 -0.0042  0.5700 -0.7503
   23MOL    C66 3630   0.115   7.744   7.322  0.5220  0.9629  0.3359
   23MOL    C67 3631   7.832   7.709   7.325  0.1160 -0.1731  0.8006
   23MOL    C68 3632   7.738   7.816   7.379  0.8399 -0.2260 -0.1907
   23MOL    O69 3633   7.707   0.066   7.319  0.4295  0.1446 -0.3934
   23MOL    H70 3634   0.156   7.686   7.239 -2.0918 -0.6818  0.1505
   23MOL    H71 3635   0.118   7.848   7.291  1.8964  0.9417  0.3643
   23MOL    H72 3636   7.809   7.608   7.360 -0.1173 -0.1400  0.7396
   23MOL    H73 3637   7.795   7.697   7.224  0.6567  1.3927  0.4030
   23MOL    C74 3638   7.669   7.783   7.508  0.0625  0.2153 -0.4508
   23MOL    C75 3639   7.523   7.818   7.520 -0.4978 -0.5585 -0.4452
   23MOL    C76 3640   7.432   7.703   7.503 -0.2432  0.0652  0.1769
   23MOL    O77 3641   7.474   7.607   7.439  0.2642 -0.1850  0.0134
   23MOL    H78 3642   7.714   7.841   7.589  1.1994 -1.0926 -0.1164
   23MOL    H79 3643   7.685   7.676   7.520  2.3078  0.5391 -0.3224
   23MOL    H80 3644   7.493   0.010   7.428 -0.7352  0.9069  0.4247
   23MOL    H81 3645   7.500   0.025   7.604  0.1378 -1.0085  0.0775
   23MOL    C82 3646   7.293   7.700   7.567  0.4032  0.2725 -0.6805
   23MOL    C83 3647   7.190   7.643   7.466  0.0164 -0.1855  0.0709
   23MOL    C84 3648   7.054   7.628   7.533 -0.0497  0.1658  0.2653
   23MOL    O85 3649   7.017   7.698   7.631 -0.6964  0.0198 -0.0609
   23MOL    H86 3650   7.260   7.800   7.596 -0.9764 -0.0819 -0.9932
   23MOL    H87 3651   7.301   7.645   7.661  0.7356  2.6135  0.7072
   23MOL    H88 3652   7.213   7.540   7.440  0.9737  0.3809 -1.4145
   23MOL    H89 3653   7.184   7.692   7.369 -0.3395  1.4530  0.8984
   23MOL    C90 3654   6.977   7.508   7.482  0.4190  0.2148  0.4052
   23MOL    C91 3655   6.829   7.515   7.515  0.7151  0.2522 -0.1484
   23MOL    C92 3656   6.735   7.553   7.394 -0.0580 -0.3042 -0.4480
   23MOL    O93 3657   6.783   7.589   7.290 -0.0385 -0.8277 -0.1949
   23MOL    H94 3658   7.012   7.413   7.521 -2.8701 -1.8677 -1.4515
   23MOL    H95 3659   6.989   7.503   7.373 -0.4773  1.9036  0.2069
   23MOL    H96 3660   6.825   7.583   7.600  2.8133 -1.4821  1.4089
   23MOL    H97 3661   6.817   7.414   7.556  1.7238 -0.6430 -2.0192
   23MOL    C98 3662   6.586   7.551   7.417 -0.0344  0.3110 -0.2790
   23MOL    C99 3663   6.511   7.417   7.408 -0.2942 -0.1684 -0.5752
   23MOL   C100 3664   6.371   7.418   7.454  0.4781  0.4184  0.3216
   23MOL   O101 3665   6.326   7.500   7.534 -0.1845 -0.3348  0.9557
   23MOL   H102 3666   6.538   7.598   7.331 -0.1078 -0.0765 -0.4506
   23MOL   H103 3667   6.553   7.608   7.503 -0.8103  0.0427 -0.3964
   23MOL   H104 3668   6.558   7.339   7.469  2.2658  1.3477 -0.5724
   23MOL   H105 3669   6.519   7.360   7.315 -2.2027  0.9892 -1.4763
   23MOL   C106 3670   6.276   7.324   7.386  0.1612 -0.1055  0.1558
   23MOL   C107 3671   6.145   7.383   7.335  0.0209 -0.2580  0.5797
   23MOL   C108 3672   6.139   7.420   7.186  0.3866 -0.4682  0.1449
   23MOL   O109 3673   6.236   7.401   7.113  0.2469  0.5949  0.1907
   23MOL   H110 3674   6.257   7.242   7.456  1.8776 -0.2907  0.4347
   23MOL   H111 3675   6.325   7.266   7.307 -1.3176 -1.3396  0.1163
   23MOL   H112 3676   6.123   7.472   7.394 -0.0886 -0.6753  1.1728
   23MOL   H113 3677   6.070   7.305   7.349 -1.2290  0.8056 -0.0613
   23MOL   C114 3678   6.012   7.487   7.127 -0.1452  0.3771 -0.0304
   23MOL   C115 3679   5.941   7.396   7.032  0.8295 -0.0112 -0.3138
   23MOL   C116 3680   5.867   7.287   7.102  0.4518  0.9237  0.1718
   23MOL   O117 3681   5.883   7.266   7.223 -0.2142 -0.1301  0.6102
   23MOL   H118 3682   6.050   7.573   7.073  0.6500  1.1979  1.7911
   23MOL   H119 3683   5.958   7.530   7.212  0.0640 -0.2129  0.4018
   23MOL   H120 3684   6.016   7.343   6.973  0.0780 -1.6835  0.2071
   23MOL   H121 3685   5.872   7.442   6.961  2.9507  1.1982 -1.6598
   23MOL   C122 3686   5.782   7.188   7.022  0.3698 -0.2695 -0.0232
   23MOL   C123 3687   5.663   7.116   7.101 -0.2793 -0.0177 -0.3731
   23MOL   C124 3688   5.661   6.964   7.105  0.1619  0.2273  0.8045
   23MOL   O125 3689   5.744   6.906   7.045  0.1854 -0.8445  0.4732
   23MOL   H126 3690   5.850   7.113   6.983  0.1433 -0.1128 -0.7289
   23MOL   H127 3691   5.735   7.251   6.946  1.5575 -0.2101 -0.7307
   23MOL   H128 3692   5.572   7.152   7.053  0.9003  1.8383 -1.2843
   23MOL   H129 3693   5.657   7.142   7.206  0.3451  0.5146 -0.4650
   23MOL   C130 3694   5.569   6.894   7.207  0.4731  0.0949 -0.2040
   23MOL   C131 3695   5.569   6.744   7.218  0.0598  0.3621  0.4282
   23MOL   C132 3696   5.635   6.689   7.342 -0.1573  0.1374  0.3401
   23MOL   O133 3697   5.688   6.761   7.424 -0.3985 -0.5089 -0.6212
   23MOL   H134 3698   5.469   6.926   7.176  0.5888 -0.1746 -0.8673
   23MOL   H135 3699   5.587   6.941   7.303  2.7772 -0.7481 -0.1983
   23MOL   H136 3700   5.616   6.683   7.140 -0.2775  0.4886  0.1244
   23MOL   H137 3701   5.467   6.709   7.203  0.5205 -0.4615 -0.9403
   23MOL   C138 3702   5.627   6.540   7.370 -0.3743  0.3848  0.7434
   23MOL   C139 3703   5.729   6.493   7.473  0.0289  0.3850  0.0986
   23MOL   C140 3704   5.670   6.482   7.614 -0.3723  0.2267 -0.4666
   23MOL   O141 3705   5.570   6.418   7.631 -0.2498 -0.5224  0.2967
   23MOL   H142 3706   5.630   6.494   7.272 -1.9231  0.6528  0.5553
   23MOL   H143 3707   5.527   6.537   7.414 -1.9287  4.0743 -2.2111
   23MOL   H144 3708   5.820   6.554   7.475  1.2752 -1.3874 -0.9450
   23MOL   H145 3709   5.741   6.391   7.437  1.2559  0.8063 -0.7185
   23MOL   C146 3710   5.750   6.541   7.734  0.0251  0.1849 -0.1010
   23MOL   C147 3711   5.662   6.593   7.845  0.0708  0.8160  0.5575
   23MOL   C148 3712   5.655   6.494   0.104 -0.3057 -0.2044 -0.3445
   23MOL   O149 3713   5.756   6.447   0.158  0.0247 -0.3598  0.4704
   23MOL   H150 3714   5.800   6.628   7.692 -0.7176  1.8872  2.4392
   23MOL   H151 3715   5.827   6.469   7.759  1.1872  1.1533 -0.8630
   23MOL   H152 3716   5.564   6.632   7.818 -0.2154 -0.1728  0.1735
   23MOL   H153 3717   5.707   6.681   0.032  0.6419  0.2222  1.1374
   23MOL   C154 3718   5.517   6.468   0.168 -0.2893 -0.5790 -0.3841
   23MOL   C155 3719   5.494   6.320   0.213 -0.3308  0.0661  0.4480
   23MOL   C156 3720   5.408   6.250   0.104 -0.3131  1.0754  0.6196
   23MOL   O157 3721   5.386   6.302   7.854  0.2543  0.9589  0.1160
   23MOL   H158 3722   5.441   6.499   0.097 -0.1366  2.1069  0.5716
   23MOL   H159 3723   5.507   6.532   0.256 -2.6474  0.1653 -1.1757
   23MOL   H160 3724   5.432   6.315   0.302  0.2847 -0.9878  0.8197
   23MOL   H161 3725   5.584   6.260   0.221 -1.3949 -1.8716 -1.5029
   23MOL   H162 3726   5.361   6.155   0.130 -0.8825  1.7686  2.2062
   24MOL     C1 3727   6.079   4.861   2.409 -0.0657  0.4672  0.0834
   24MOL     C2 3728   6.081   4.733   2.320  0.7269 -0.3307  0.1198
   24MOL     C3 3729   6.203   4.719   2.236 -0.3319 -0.9155  0.8420
   24MOL     O4 3730   6.304   4.787   2.237 -0.7300 -0.2446  0.2604
   24MOL     H5 3731   6.136   4.939   2.359  1.2580 -0.6295 -0.1332
   24MOL     H6 3732   5.978   4.898   2.427 -0.5846 -0.8611 -0.0414
   24MOL     H7 3733   5.994   4.736   2.254 -0.0670  0.5305  1.1662
   24MOL     H8 3734   6.057   4.645   2.379 -1.3206  1.2983  1.8156
   24MOL     H9 3735   6.120   4.836   2.507  1.8891  2.6593 -0.1258
   24MOL    C10 3736   6.192   4.611   2.136  0.2127 -0.4836  0.1157
   24MOL    C11 3737   6.299   4.500   2.153  0.8887  0.6491  0.0791
   24MOL    C12 3738   6.238   4.359   2.136  0.2579  0.4863 -0.1698
   24MOL    O13 3739   6.122   4.335   2.188  0.2321  0.3703 -0.5443
   24MOL    H14 3740   6.189   4.653   2.036  0.4887 -2.8165 -0.8877
   24MOL    H15 3741   6.098   4.558   2.153 -0.6257  1.1115  0.6017
   24MOL    H16 3742   6.352   4.501   2.248  1.9367  1.7240 -0.4942
   24MOL    H17 3743   6.371   4.507   2.071  0.2440  0.8115 -0.4767
   24MOL    C18 3744   6.305   4.261   2.035  0.8187  0.3139 -0.5599
   24MOL    C19 3745   6.224   4.141   2.002  0.8780 -0.6611 -0.2800
   24MOL    C20 3746   6.231   4.040   2.112 -0.5280 -0.1147  0.1910
   24MOL    O21 3747   6.343   4.003   2.138 -0.2533  0.2810  0.5616
   24MOL    H22 3748   6.407   4.240   2.067  1.4626  2.6828 -0.9385
   24MOL    H23 3749   6.319   4.315   1.941  2.2544  1.1169  0.1011
   24MOL    H24 3750   6.263   4.094   1.912  1.7897  1.9829 -1.3196
   24MOL    H25 3751   6.122   4.165   1.972 -0.0957 -3.2509  0.8583
   24MOL    C26 3752   6.104   3.989   2.176  0.2416 -0.3406  0.1312
   24MOL    C27 3753   6.125   3.863   2.259 -0.5963  0.1310 -0.0297
   24MOL    C28 3754   6.039   3.748   2.209  0.3713  0.0199 -0.9428
   24MOL    O29 3755   6.082   3.682   2.116  0.5009  0.0369  0.0328
   24MOL    H30 3756   6.034   3.973   2.094 -0.6966  4.4272 -0.1186
   24MOL    H31 3757   6.063   4.076   2.226 -2.6629  0.0676 -2.8074
   24MOL    H32 3758   6.120   3.866   2.368  0.4508  0.6829  0.0076
   24MOL    H33 3759   6.223   3.822   2.236  0.1720  1.5580  0.6583
   24MOL    C34 3760   5.907   3.706   2.277  0.5004 -0.2219  1.1354
   24MOL    C35 3761   5.887   3.552   2.261  0.1264  0.0234 -0.8986
   24MOL    C36 3762   5.763   3.505   2.204  0.7012 -0.1098 -0.3721
   24MOL    O37 3763   5.684   3.574   2.145  0.0006  0.0838  0.0954
   24MOL    H38 3764   5.824   3.763   2.237  0.5146 -0.4867  0.7192
   24MOL    H39 3765   5.930   3.729   2.381 -2.0439  0.8467  1.4891
   24MOL    H40 3766   5.898   3.506   2.359 -1.0402  1.1137 -0.2319
   24MOL    H41 3767   5.962   3.510   2.195  1.4500 -0.4822  0.8710
   24MOL    C42 3768   5.744   3.359   2.228  0.4731  1.1277 -0.4797
   24MOL    C43 3769   5.615   3.294   2.165 -0.2403  0.1796  0.5142
   24MOL    C44 3770   5.494   3.293   2.266 -0.3816  0.0377 -0.5757
   24MOL    O45 3771   5.516   3.274   2.386 -0.4235  0.1360 -0.1649
   24MOL    H46 3772   5.757   3.334   2.333  1.2724  1.2665 -0.5425
   24MOL    H47 3773   5.833   3.310   2.189  0.3310  1.7930 -1.6587
   24MOL    H48 3774   5.633   3.194   2.125 -3.1150 -0.9736  1.9900
   24MOL    H49 3775   5.572   3.345   2.078 -1.4954 -3.5305 -1.1506
   24MOL    C50 3776   5.355   3.278   2.201  0.4369  0.1143  0.3582
   24MOL    C51 3777   5.252   3.196   2.271  0.3072 -0.2891 -0.5415
   24MOL    C52 3778   5.108   3.222   2.211 -0.7978  0.1458  0.1126
   24MOL    O53 3779   5.089   3.268   2.098 -0.7386 -0.0938  0.3372
   24MOL    H54 3780   5.356   3.247   2.096 -3.2968 -0.6618  0.4788
   24MOL    H55 3781   5.306   3.375   2.194  1.2875  0.5259  0.0441
   24MOL    H56 3782   5.274   3.210   2.377 -1.2895 -0.0509 -0.2329
   24MOL    H57 3783   5.275   3.090   2.257  1.6234 -0.0190 -0.4989
   24MOL    C58 3784   4.994   3.184   2.304 -0.2452  0.0944  0.0824
   24MOL    C59 3785   4.942   3.283   2.407  0.3957  0.0788 -0.1089
   24MOL    C60 3786   5.034   3.279   2.525 -0.2705  0.1767  0.6455
   24MOL    O61 3787   5.106   3.181   2.550  0.3552 -0.0118 -0.5653
   24MOL    H62 3788   5.016   3.084   2.340 -1.5215  0.1098  0.9778
   24MOL    H63 3789   4.908   3.164   2.239 -0.3914  0.1505  0.2586
   24MOL    H64 3790   4.842   3.262   2.445  1.2893 -1.8889  1.2080
   24MOL    H65 3791   4.944   3.380   2.357 -1.7770 -0.3564 -1.1048
   24MOL    C66 3792   5.034   3.405   2.611  0.3572 -0.8289 -0.1179
   24MOL    C67 3793   5.112   3.402   2.742  0.8704  0.3813  0.1023
   24MOL    C68 3794   5.054   3.308   2.845  0.0154  0.2910  0.1214
   24MOL    O69 3795   4.935   3.298   2.852  0.1973  0.2030  0.5209
   24MOL    H70 3796   4.928   3.429   2.619  0.2961 -1.5819  1.7514
   24MOL    H71 3797   5.077   3.494   2.565 -2.0361  0.9414  1.0012
   24MOL    H72 3798   5.118   3.501   2.787 -0.0997  0.3256  0.3562
   24MOL    H73 3799   5.217   3.379   2.723  0.6909  0.9847 -1.7486
   24MOL    C74 3800   5.142   3.244   2.945 -0.9798  0.4581  0.1591
   24MOL    C75 3801   5.192   3.101   2.911  0.0339  0.3841  0.3167
   24MOL    C76 3802   5.281   3.037   3.023 -0.3495  0.2983  0.7567
   24MOL    O77 3803   5.238   3.022   3.139 -0.4469 -0.1135  0.1989
   24MOL    H78 3804   5.089   3.229   3.039 -1.9836  1.4873 -0.2374
   24MOL    H79 3805   5.231   3.304   2.963 -1.4437  1.3942 -0.6610
   24MOL    H80 3806   5.248   3.108   2.818  0.9755  0.7122  0.9033
   24MOL    H81 3807   5.109   3.032   2.897  0.7400 -0.3345 -0.3411
   24MOL    C82 3808   5.422   2.998   2.984 -0.3044 -0.5781 -0.0540
   24MOL    C83 3809   5.520   3.025   3.101 -0.9915  0.3626 -0.4682
   24MOL    C84 3810   5.657   3.073   3.058 -0.0025  0.9804  0.3514
   24MOL    O85 3811   5.720   3.016   2.964  0.3694  0.4275 -0.3809
   24MOL    H86 3812   5.453   3.052   2.895 -0.5187 -0.7418 -0.2279
   24MOL    H87 3813   5.426   2.893   2.955 -1.8334 -0.7532  0.3162
   24MOL    H88 3814   5.544   2.942   3.168  1.1308  1.3124 -0.0068
   24MOL    H89 3815   5.488   3.103   3.170  0.0034  0.0200  0.3926
   24MOL    C90 3816   5.722   3.189   3.134  0.6908  0.2405  0.3425
   24MOL    C91 3817   5.863   3.234   3.075 -0.2434  0.1832  0.5514
   24MOL    C92 3818   5.900   3.369   3.144  0.3012 -0.0234 -0.9861
   24MOL    O93 3819   5.819   3.438   3.212  0.0061  0.1782 -0.3475
   24MOL    H94 3820   5.745   3.161   3.236 -0.0563  0.4384  0.5649
   24MOL    H95 3821   5.649   3.269   3.140 -0.3782 -0.8136  1.5224
   24MOL    H96 3822   5.849   3.242   2.967 -2.4350  1.3249  0.8831
   24MOL    H97 3823   5.942   3.159   3.082 -0.1790 -0.0546 -2.1677
   24MOL    C98 3824   6.043   3.418   3.115 -1.0926  0.4225  0.3048
   24MOL    C99 3825   6.074   3.558   3.181  0.3942  0.1322 -0.2201
   24MOL   C100 3826   6.151   3.549   3.318 -0.0661  0.4350  0.0081
   24MOL   O101 3827   6.200   3.438   3.354 -0.2846 -0.1677 -0.3848
   24MOL   H102 3828   6.068   3.422   3.009  0.1844  0.2319  0.5845
   24MOL   H103 3829   6.109   3.339   3.152 -0.1625  0.1906 -1.7827
   24MOL   H104 3830   5.982   3.616   3.178  0.6863  0.6176  0.0562
   24MOL   H105 3831   6.136   3.625   3.121  1.1207  1.1366  1.6112
   24MOL   C106 3832   6.152   3.674   3.411 -0.7177  0.4623 -0.2945
   24MOL   C107 3833   6.022   3.757   3.402  0.2926 -0.3096 -0.9176
   24MOL   C108 3834   5.892   3.709   3.471 -0.2749 -0.0339  0.2805
   24MOL   O109 3835   5.893   3.606   3.544  0.1706 -0.6329  0.0687
   24MOL   H110 3836   6.243   3.731   3.391 -1.1366  1.4621  0.6273
   24MOL   H111 3837   6.156   3.625   3.508  2.0336  0.1728 -0.5129
   24MOL   H112 3838   5.986   3.757   3.299  3.4234 -1.1783 -2.0644
   24MOL   H113 3839   6.037   3.858   3.439  1.3847 -0.6086 -0.5076
   24MOL   C114 3840   5.762   3.796   3.469  0.1820 -0.1593 -0.0161
   24MOL   C115 3841   5.638   3.742   3.530  0.6373  0.1587  0.1319
   24MOL   C116 3842   5.514   3.809   3.470 -0.1481  0.6857 -0.9188
   24MOL   O117 3843   5.519   3.897   3.386 -0.2985  0.0339 -0.3949
   24MOL   H118 3844   5.735   3.819   3.366 -1.4390  2.7531  1.0110
   24MOL   H119 3845   5.782   3.891   3.517  0.6662  1.4688 -3.2660
   24MOL   H120 3846   5.642   3.755   3.638  1.0527  0.0813  0.1259
   24MOL   H121 3847   5.625   3.636   3.506  2.3539 -0.2712  1.0623
   24MOL   C122 3848   5.388   3.768   3.537  0.0117 -0.6792 -0.0098
   24MOL   C123 3849   5.267   3.852   3.494 -0.2341  0.1583  0.3452
   24MOL   C124 3850   5.233   3.964   3.592  0.5913  0.1309 -0.3782
   24MOL   O125 3851   5.283   3.967   3.706  0.3645 -0.7392 -0.0552
   24MOL   H126 3852   5.399   3.766   3.646 -1.3109  0.4544  0.1659
   24MOL   H127 3853   5.360   3.666   3.509 -0.0067 -0.4843 -0.7063
   24MOL   H128 3854   5.179   3.788   3.491  1.1821 -1.7879 -1.0133
   24MOL   H129 3855   5.275   3.891   3.392 -2.4094 -0.1359  0.0304
   24MOL   C130 3856   5.150   4.081   3.540 -0.5786 -0.0785  0.3818
   24MOL   C131 3857   5.090   4.168   3.649 -0.2246 -0.9659  0.1381
   24MOL   C132 3858   4.970   4.118   3.720  0.0039  0.0384 -0.2582
   24MOL   O133 3859   4.926   4.003   3.700  0.2460 -0.4133  0.6905
   24MOL   H134 3860   5.059   4.041   3.494 -1.8157  3.1153 -0.0643
   24MOL   H135 3861   5.209   4.138   3.469 -0.0351 -2.8712 -1.4997
   24MOL   H136 3862   5.070   4.271   3.618  0.3930 -0.9034 -0.0514
   24MOL   H137 3863   5.156   4.177   3.735 -0.2577  0.1718  0.0481
   24MOL   C138 3864   4.900   4.214   3.814  0.1428  0.0953  0.6529
   24MOL   C139 3865   4.859   4.144   3.940  0.1408  0.0112 -0.1734
   24MOL   C140 3866   4.712   4.107   3.946 -0.0755 -0.2669  0.3627
   24MOL   O141 3867   4.621   4.188   3.948 -0.1777  0.1899 -0.5755
   24MOL   H142 3868   4.817   4.261   3.761  0.6145 -0.3345 -0.5021
   24MOL   H143 3869   4.977   4.286   3.839  2.2888 -2.5400  1.9019
   24MOL   H144 3870   4.873   4.215   4.022 -0.4953  1.1686 -1.0683
   24MOL   H145 3871   4.905   4.048   3.965  1.5930  0.7303 -0.0362
   24MOL   C146 3872   4.686   3.958   3.954  0.6340 -0.0537 -0.1483
   24MOL   C147 3873   4.547   3.919   3.897 -0.2580 -0.1816 -0.1815
   24MOL   C148 3874   4.459   3.845   4.003 -0.3197 -0.4938  0.5141
   24MOL   O149 3875   4.504   3.801   4.114  0.4525 -0.4976 -0.0994
   24MOL   H150 3876   4.702   3.915   4.052  1.7804 -0.1873 -0.3899
   24MOL   H151 3877   4.758   3.912   3.886  0.0824 -0.5368 -0.4126
   24MOL   H152 3878   4.570   3.835   3.831 -1.9939 -0.8174 -0.0033
   24MOL   H153 3879   4.482   3.998   3.858  0.3012  1.7215  2.6440
   24MOL   C154 3880   4.312   3.823   3.968 -0.4707  0.1030 -0.2457
   24MOL   C155 3881   4.260   3.687   4.005  0.4576 -0.1451 -0.2991
   24MOL   C156 3882   4.268   3.591   3.890 -0.0414  0.7711  0.9833
   24MOL   O157 3883   4.373   3.564   3.840  0.3699  0.3707  0.3032
   24MOL   H158 3884   4.300   3.839   3.861 -0.4820  0.9334 -0.1284
   24MOL   H159 3885   4.259   3.906   4.015  1.5099  1.3282 -0.0650
   24MOL   H160 3886   4.154   3.696   4.032  0.6357 -3.4898  1.8218
   24MOL   H161 3887   4.320   3.636   4.081 -1.3091 -1.0756  0.5070
   24MOL   H162 3888   4.175   3.549   3.852  0.7536  1.5781 -2.0401
   25MOL     C1 3889   4.914   3.139   4.184 -0.0634 -0.1838  0.1270
   25MOL     C2 3890   4.993   3.100   4.308 -1.0800 -0.2154  0.6362
   25MOL     C3 3891   5.139   3.074   4.276 -0.3132 -0.0846  0.4994
   25MOL     O4 3892   5.173   3.008   4.182  0.2669 -0.5854 -0.3166
   25MOL     H5 3893   4.887   3.059   4.114 -1.3382 -0.8052  1.2936
   25MOL     H6 3894   4.812   3.174   4.199 -1.6253 -4.3188  0.0392
   25MOL     H7 3895   4.942   3.010   4.342 -0.8900 -0.2521  0.8294
   25MOL     H8 3896   5.006   3.175   4.386  0.2473 -1.7045  1.8840
   25MOL     H9 3897   4.969   3.209   4.122  1.1386 -1.1696  0.0569
   25MOL    C10 3898   5.247   3.138   4.363 -0.0727 -0.3912  0.6426
   25MOL    C11 3899   5.356   3.206   4.281  0.1264  0.4963 -0.1375
   25MOL    C12 3900   5.455   3.272   4.374  0.3425  0.4604 -1.1202
   25MOL    O13 3901   5.419   3.334   4.471  0.1118  0.4735  0.1867
   25MOL    H14 3902   5.289   3.060   4.426 -1.3236 -1.0189  0.7096
   25MOL    H15 3903   5.195   3.215   4.420 -0.7864 -0.6727  0.3689
   25MOL    H16 3904   5.307   3.283   4.221  0.6282 -0.5700 -1.9537
   25MOL    H17 3905   5.406   3.146   4.204  0.2666  0.3729  0.0488
   25MOL    C18 3906   5.599   3.253   4.335 -0.1879 -0.3834  0.4469
   25MOL    C19 3907   5.642   3.356   4.221 -0.6300  0.0225  0.1055
   25MOL    C20 3908   5.790   3.338   4.191  0.0170  0.1218 -0.5892
   25MOL    O21 3909   5.833   3.226   4.160 -0.0822 -0.2911 -0.2991
   25MOL    H22 3910   5.632   3.153   4.308 -1.4376 -0.2433 -1.6986
   25MOL    H23 3911   5.654   3.277   4.426 -1.9439  1.1765  1.1179
   25MOL    H24 3912   5.640   3.459   4.256  0.9070 -0.5443  1.9124
   25MOL    H25 3913   5.589   3.352   4.126  1.9220  4.1201 -1.5899
   25MOL    C26 3914   5.888   3.457   4.208 -0.8402  0.8162  0.2569
   25MOL    C27 3915   6.039   3.423   4.170 -0.8466 -0.1258  0.2313
   25MOL    C28 3916   6.102   3.514   4.061 -0.3362  0.1426 -0.3987
   25MOL    O29 3917   6.182   3.603   4.087  0.2871 -0.2585 -0.0562
   25MOL    H30 3918   5.876   3.471   4.315 -0.5371  1.0834  0.2578
   25MOL    H31 3919   5.860   3.545   4.151 -1.6198 -0.3810 -1.2508
   25MOL    H32 3920   6.041   3.316   4.149  0.1763 -0.4426  1.8759
   25MOL    H33 3921   6.093   3.438   4.263  0.9484 -2.1616 -0.4475
   25MOL    C34 3922   6.062   3.493   3.914 -0.4151 -0.9709  0.2532
   25MOL    C35 3923   6.103   3.610   3.825  0.0659 -0.6314  0.6001
   25MOL    C36 3924   6.028   3.740   3.870 -0.2654 -0.5210 -0.0326
   25MOL    O37 3925   5.918   3.736   3.922  0.4676  0.1674 -0.1014
   25MOL    H38 3926   5.953   3.483   3.916 -0.4810 -0.0448  1.8290
   25MOL    H39 3927   6.112   3.408   3.868 -2.6268 -2.1076 -0.1278
   25MOL    H40 3928   6.086   3.580   3.721 -2.4433  3.8562 -0.3865
   25MOL    H41 3929   6.209   3.633   3.833  0.6549 -2.5638 -1.1747
   25MOL    C42 3930   6.091   3.878   3.838 -0.6256 -0.1728 -0.6880
   25MOL    C43 3931   5.989   3.992   3.844 -0.2759 -0.0493 -0.3029
   25MOL    C44 3932   6.015   4.107   3.744 -0.4449 -0.0531 -0.5875
   25MOL    O45 3933   6.064   4.084   3.634  0.0384  0.4742 -0.4775
   25MOL    H46 3934   6.142   3.869   3.742 -1.2081 -0.6918 -0.9546
   25MOL    H47 3935   6.174   3.891   3.906  0.7007 -0.2248 -2.2688
   25MOL    H48 3936   5.999   4.045   3.939  1.0298 -0.2991 -0.2964
   25MOL    H49 3937   5.888   3.959   3.817 -0.4058 -0.8146  1.0602
   25MOL    C50 3938   5.979   4.246   3.779 -0.2233 -0.1939  0.0240
   25MOL    C51 3939   6.078   4.351   3.724  0.0638 -0.1163 -0.1600
   25MOL    C52 3940   6.005   4.436   3.616 -0.6193 -0.0911 -0.0223
   25MOL    O53 3941   5.984   4.385   3.506  0.2196 -0.3304 -0.4097
   25MOL    H54 3942   5.966   4.251   3.887  2.1860  0.4919  0.3216
   25MOL    H55 3943   5.879   4.270   3.744 -0.0442 -2.1117 -1.8919
   25MOL    H56 3944   6.163   4.305   3.674 -1.4173 -0.4030 -2.4719
   25MOL    H57 3945   6.111   4.410   3.810  2.4669  1.6753 -2.2323
   25MOL    C58 3946   5.947   4.568   3.656  0.0932 -0.1129 -0.1989
   25MOL    C59 3947   5.869   4.635   3.540  0.7403 -0.0146 -0.3939
   25MOL    C60 3948   5.886   4.778   3.545  0.3164 -0.1587 -0.1711
   25MOL    O61 3949   5.900   4.831   3.660 -0.5198 -0.5117  0.0359
   25MOL    H62 3950   6.028   4.620   3.706  0.8106 -1.8766  0.4986
   25MOL    H63 3951   5.861   4.553   3.721 -0.3961  1.2301 -0.5140
   25MOL    H64 3952   5.762   4.615   3.545  0.6434  0.8241  1.7932
   25MOL    H65 3953   5.901   4.597   3.443 -0.7653  1.4250 -1.4570
   25MOL    C66 3954   5.880   4.856   3.412 -0.2394  0.4923 -0.4071
   25MOL    C67 3955   5.832   4.999   3.427 -0.2125 -0.4063  0.1076
   25MOL    C68 3956   5.833   5.079   3.297  0.0948  0.0416 -0.5037
   25MOL    O69 3957   5.922   5.068   3.214  0.2958  0.8349 -0.1156
   25MOL    H70 3958   5.809   4.806   3.346 -0.1324  0.9782 -0.8939
   25MOL    H71 3959   5.976   4.860   3.361  1.5344 -0.1217  2.7690
   25MOL    H72 3960   5.891   5.067   3.489  1.3044 -0.5779 -1.1244
   25MOL    H73 3961   5.732   5.005   3.470  0.9199  2.5822  2.5669
   25MOL    C74 3962   5.706   5.169   3.277 -0.3976  0.0847  0.0790
   25MOL    C75 3963   5.745   5.317   3.281  0.1152 -0.1850  0.5302
   25MOL    C76 3964   5.741   5.368   3.427 -0.0381  0.3450 -0.3582
   25MOL    O77 3965   5.749   5.294   3.523  0.0293  0.0822  0.7237
   25MOL    H78 3966   5.638   5.148   3.359  0.3867  1.5943  1.1489
   25MOL    H79 3967   5.650   5.144   3.187  2.4853 -0.5838 -1.5739
   25MOL    H80 3968   5.674   5.372   3.220  0.6941  0.6585  0.6135
   25MOL    H81 3969   5.844   5.325   3.236  0.0684 -1.6300  0.1272
   25MOL    C82 3970   5.742   5.516   3.450  0.5536  0.3227 -0.0748
   25MOL    C83 3971   5.852   5.588   3.368 -0.1797  0.3319  0.0230
   25MOL    C84 3972   5.926   5.695   3.455 -0.8356 -0.3541 -0.0799
   25MOL    O85 3973   5.854   5.756   3.537 -0.3158  0.1416  0.6252
   25MOL    H86 3974   5.747   5.528   3.558  3.5518 -1.3221  0.0389
   25MOL    H87 3975   5.643   5.556   3.429  0.9536  1.9151  1.0039
   25MOL    H88 3976   5.814   5.624   3.273  0.1570 -1.9973 -1.0209
   25MOL    H89 3977   5.927   5.525   3.321  0.5380  1.6288 -0.6167
   25MOL    C90 3978   6.071   5.734   3.427  0.2593 -0.4713  0.8971
   25MOL    C91 3979   6.170   5.613   3.446 -0.2122 -0.3481 -0.0884
   25MOL    C92 3980   6.271   5.624   3.554 -0.0291 -0.3843  0.2065
   25MOL    O93 3981   6.272   5.721   3.637 -0.3605 -0.2172  0.0164
   25MOL    H94 3982   6.085   5.821   3.491 -3.6399  1.1283 -0.3066
   25MOL    H95 3983   6.080   5.787   3.332  0.3438  1.6976  2.0846
   25MOL    H96 3984   6.214   5.583   3.351 -1.4583 -1.5749 -0.2975
   25MOL    H97 3985   6.106   5.532   3.483  1.0091 -1.0945  0.4038
   25MOL    C98 3986   6.365   5.503   3.587  0.7894 -0.2394 -0.5160
   25MOL    C99 3987   6.442   5.511   3.727  0.4475  0.0105 -0.4398
   25MOL   C100 3988   6.587   5.534   3.719 -0.4794  0.4888 -0.5037
   25MOL   O101 3989   6.664   5.442   3.750 -0.0185  0.4499 -0.2255
   25MOL   H102 3990   6.437   5.513   3.506 -0.1359 -1.5395 -1.5234
   25MOL   H103 3991   6.309   5.410   3.582 -0.5435  0.3613  2.5456
   25MOL   H104 3992   6.430   5.422   3.789  2.1910 -1.2365 -1.8544
   25MOL   H105 3993   6.407   5.601   3.778  2.3500  0.5555 -0.0538
   25MOL   C106 3994   6.639   5.669   3.682 -0.1638  0.8907  0.0870
   25MOL   C107 3995   6.795   5.683   3.669 -0.6230  0.1532  0.1653
   25MOL   C108 3996   6.845   5.659   3.525 -0.1857 -0.2641  1.1824
   25MOL   O109 3997   6.785   5.712   3.434 -0.4262 -0.0078 -0.1188
   25MOL   H110 3998   6.613   5.729   3.769  1.1266 -0.3031  1.3116
   25MOL   H111 3999   6.587   5.718   3.599 -0.0531 -1.3167 -1.3166
   25MOL   H112 4000   6.853   5.627   3.743 -1.1122  1.7878  1.8003
   25MOL   H113 4001   6.825   5.784   3.695  1.9579 -1.6365  4.7515
   25MOL   C114 4002   6.938   5.539   3.498 -0.0174 -0.0772 -0.9909
   25MOL   C115 4003   6.895   5.432   3.400  0.0999  0.0990  0.1087
   25MOL   C116 4004   7.015   5.360   3.334 -0.6333 -0.1246  0.2397
   25MOL   O117 4005   7.133   5.393   3.354 -0.1401 -0.0450  0.1626
   25MOL   H118 4006   6.940   5.487   3.594 -2.4556 -1.5770 -1.7053
   25MOL   H119 4007   7.037   5.583   3.495  0.1967 -0.5506 -0.9149
   25MOL   H120 4008   6.832   5.479   3.325 -0.0189 -2.5158 -1.4980
   25MOL   H121 4009   6.834   5.357   3.451 -0.3133  0.1363 -0.3237
   25MOL   C122 4010   6.986   5.231   3.251 -0.5007  0.2240 -0.4784
   25MOL   C123 4011   7.115   5.152   3.232 -0.2622 -0.0861 -0.2794
   25MOL   C124 4012   7.154   5.070   3.357 -0.5304  0.4203  0.3412
   25MOL   O125 4013   7.073   5.046   3.444  0.3125  0.1005 -0.0483
   25MOL   H126 4014   6.928   5.251   3.162 -0.5695 -0.9592 -0.7164
   25MOL   H127 4015   6.919   5.172   3.314  1.0027 -1.2431 -0.2240
   25MOL   H128 4016   7.191   5.223   3.196 -2.5004  2.0090 -0.9821
   25MOL   H129 4017   7.092   5.088   3.147  1.4925 -0.0587 -0.8076
   25MOL   C130 4018   7.303   5.031   3.372  0.6882 -0.0661  0.1756
   25MOL   C131 4019   7.318   4.889   3.437 -0.2417 -0.6575  0.2903
   25MOL   C132 4020   7.394   4.897   3.563  0.4028 -0.3744 -0.1665
   25MOL   O133 4021   7.476   4.984   3.589  0.2395  0.1613 -0.9384
   25MOL   H134 4022   7.354   5.116   3.416  0.6115  0.5475 -0.8949
   25MOL   H135 4023   7.329   5.024   3.266 -2.0094  1.4841 -0.6495
   25MOL   H136 4024   7.376   4.819   3.379  1.2188  0.5213  0.2984
   25MOL   H137 4025   7.217   4.850   3.451 -0.1395 -0.9736  0.1402
   25MOL   C138 4026   7.356   4.788   3.676  0.4150 -0.7131  0.8413
   25MOL   C139 4027   7.226   4.833   3.749 -0.3814  0.2512  0.3063
   25MOL   C140 4028   7.116   4.722   3.719 -0.4161 -0.7256  0.0599
   25MOL   O141 4029   7.104   4.675   3.606 -0.1061  0.2657  0.1773
   25MOL   H142 4030   7.442   4.773   3.741  1.5402  0.0713 -0.4398
   25MOL   H143 4031   7.346   4.695   3.621  0.4317 -0.3271  0.1847
   25MOL   H144 4032   7.183   4.925   3.709 -1.6795 -0.8528 -0.8840
   25MOL   H145 4033   7.256   4.851   3.853  1.5293  1.3210 -0.4014
   25MOL   C146 4034   7.022   4.687   3.830  0.3277 -0.1625  0.4861
   25MOL   C147 4035   6.901   4.617   3.773  0.8640  0.9697  0.0270
   25MOL   C148 4036   6.783   4.615   3.872 -0.5109  0.0089 -0.0890
   25MOL   O149 4037   6.745   4.717   3.936  0.5065 -0.2255 -0.0884
   25MOL   H150 4038   7.000   4.767   3.901  3.2072  1.1298 -0.0368
   25MOL   H151 4039   7.081   4.620   3.893 -1.4895 -1.7254  0.5715
   25MOL   H152 4040   6.926   4.518   3.735  1.7251  1.0513  0.3689
   25MOL   H153 4041   6.858   4.657   3.681  3.2182  1.4988 -0.8676
   25MOL   C154 4042   6.716   4.482   3.903  0.7614 -0.4966  0.2562
   25MOL   C155 4043   6.806   4.368   3.945  0.3022 -0.1154 -0.3494
   25MOL   C156 4044   6.745   4.246   3.890 -0.0920  0.4153 -0.5891
   25MOL   O157 4045   6.747   4.228   3.767  0.0796  0.0894 -0.3781
   25MOL   H158 4046   6.655   4.458   3.816  0.2710  1.7082 -0.0222
   25MOL   H159 4047   6.646   4.507   3.982  0.8513  0.9922 -0.1120
   25MOL   H160 4048   6.808   4.367   4.054 -1.1927 -2.4257 -0.3120
   25MOL   H161 4049   6.912   4.369   3.922  0.2997 -1.5771 -0.5116
   25MOL   H162 4050   6.715   4.167   3.959  2.7441  0.5744  0.9097
   26MOL     C1 4051   5.987   3.120   6.313 -0.4140  0.1023 -0.2049
   26MOL     C2 4052   6.052   3.240   6.380 -0.4995 -0.0650  0.5811
   26MOL     C3 4053   6.112   3.203   6.520  0.0668  0.0819 -0.8372
   26MOL     O4 4054   6.109   3.089   6.568 -0.2195  0.1760  0.1012
   26MOL     H5 4055   5.983   3.155   6.210 -1.8475 -1.5304 -0.7214
   26MOL     H6 4056   6.045   3.028   6.315 -0.7451 -0.0925  1.7554
   26MOL     H7 4057   5.978   3.320   6.381 -2.6877 -2.0020 -1.4984
   26MOL     H8 4058   6.139   3.278   6.327 -1.2319  1.5687  0.5335
   26MOL     H9 4059   5.881   3.112   6.336 -0.5312 -1.5843 -1.2970
   26MOL    C10 4060   6.168   3.319   6.609 -0.1948 -0.1616 -0.0011
   26MOL    C11 4061   6.272   3.287   6.715  0.2070  0.1727 -0.0515
   26MOL    C12 4062   6.409   3.276   6.669  0.4140 -0.5893 -0.0938
   26MOL    O13 4063   6.443   3.330   6.562 -0.3844  0.0568 -0.5203
   26MOL    H14 4064   6.097   3.366   6.677  0.1214 -0.5382  0.5959
   26MOL    H15 4065   6.196   3.405   6.549  1.7791 -0.2179  0.8116
   26MOL    H16 4066   6.246   3.201   6.777  2.3333 -1.1129 -0.9010
   26MOL    H17 4067   6.266   3.369   6.787 -0.6606  0.4409 -0.4209
   26MOL    C18 4068   6.511   3.203   6.758  0.3450 -0.5202 -0.3639
   26MOL    C19 4069   6.656   3.198   6.699 -0.2390 -0.0576 -0.0099
   26MOL    C20 4070   6.703   3.064   6.647  0.0605 -0.4883  0.2788
   26MOL    O21 4071   6.651   2.958   6.681 -0.1293  0.6209 -0.5302
   26MOL    H22 4072   6.480   3.101   6.782 -0.5833  0.3494  2.2402
   26MOL    H23 4073   6.529   3.253   6.853  1.5984  0.2277 -0.9813
   26MOL    H24 4074   6.732   3.226   6.772  2.3231 -3.4134 -1.2601
   26MOL    H25 4075   6.668   3.268   6.616 -0.2535  0.1364  0.1512
   26MOL    C26 4076   6.822   3.065   6.551  0.0917  0.2445  0.6305
   26MOL    C27 4077   6.908   2.947   6.576  0.1189  0.0513  0.1803
   26MOL    C28 4078   6.887   2.836   6.470  0.3691 -0.3853  0.5598
   26MOL    O29 4079   6.808   2.847   6.381  0.3204  0.0364 -0.2500
   26MOL    H30 4080   6.875   3.157   6.572 -3.8023  2.7814 -0.0813
   26MOL    H31 4081   6.785   3.078   6.449  0.8921 -1.2027  0.1446
   26MOL    H32 4082   6.902   2.915   6.680 -1.3857  0.6222  0.2860
   26MOL    H33 4083   7.013   2.970   6.558 -0.1426  0.3436 -1.0323
   26MOL    C34 4084   6.973   2.711   6.476 -0.5264 -0.3746 -1.2170
   26MOL    C35 4085   6.929   2.616   6.587 -0.3455 -0.1109 -0.1528
   26MOL    C36 4086   7.043   2.577   6.686 -0.6335  0.5513 -0.1448
   26MOL    O37 4087   7.161   2.620   6.676 -0.0146 -0.2299  0.0830
   26MOL    H38 4088   7.079   2.733   6.487 -0.3812 -1.2958 -0.7127
   26MOL    H39 4089   6.960   2.651   6.385 -0.9971 -1.7509 -0.2629
   26MOL    H40 4090   6.891   2.528   6.535 -0.7671  0.0549 -0.1278
   26MOL    H41 4091   6.836   2.653   6.632 -1.7735  0.2368 -3.2428
   26MOL    C42 4092   7.003   2.465   6.786  0.3288 -0.4854 -0.7317
   26MOL    C43 4093   7.126   2.394   6.847  0.3857 -0.3508  0.1492
   26MOL    C44 4094   7.120   2.238   6.870  0.4844  0.7484 -0.3444
   26MOL    O45 4095   7.015   2.178   6.835  0.2736  0.1342  0.0734
   26MOL    H46 4096   6.945   2.393   6.728  1.8699  0.2730 -3.2817
   26MOL    H47 4097   6.942   2.505   6.867  2.7576  0.1730  0.7975
   26MOL    H48 4098   7.152   2.443   6.941  1.1662 -1.0730  0.3130
   26MOL    H49 4099   7.214   2.421   6.788  0.7848 -0.7072  0.5825
   26MOL    C50 4100   7.242   2.181   6.949  0.5053 -0.8228 -0.0650
   26MOL    C51 4101   7.374   2.252   6.898 -0.0404  0.3452  0.1623
   26MOL    C52 4102   7.498   2.168   6.933  0.8013 -0.3363 -0.1201
   26MOL    O53 4103   7.496   2.056   6.985 -0.3902 -0.4288 -0.3566
   26MOL    H54 4104   7.246   2.074   6.933 -0.0513 -0.8100 -0.3048
   26MOL    H55 4105   7.219   2.184   7.055 -2.1915 -0.2768 -0.6068
   26MOL    H56 4106   7.382   2.357   6.925  3.1795  0.2235 -0.0488
   26MOL    H57 4107   7.376   2.261   6.790  0.1711  1.3807  0.2534
   26MOL    C58 4108   7.633   2.227   6.887 -0.5029  0.3691 -0.3466
   26MOL    C59 4109   7.708   2.144   6.781  1.3248  0.7814 -0.3270
   26MOL    C60 4110   7.639   2.156   6.653 -0.1403 -0.0605  0.3793
   26MOL    O61 4111   7.518   2.193   6.639 -0.3680  0.2771 -1.0078
   26MOL    H62 4112   7.694   2.251   6.973 -0.7919 -0.4319  0.0892
   26MOL    H63 4113   7.617   2.324   6.841 -2.6728  0.0337 -0.3428
   26MOL    H64 4114   7.708   2.039   6.809 -0.4960  0.8408 -0.0315
   26MOL    H65 4115   7.810   2.180   6.767  1.8726 -1.0296 -1.0917
   26MOL    C66 4116   7.710   2.130   6.522  0.3532 -0.2025 -0.0834
   26MOL    C67 4117   7.646   2.003   6.445 -0.1971  0.1342 -0.2620
   26MOL    C68 4118   7.695   1.867   6.498  0.3964  0.9290  0.5168
   26MOL    O69 4119   7.798   1.862   6.569  0.1076 -0.4969  0.7693
   26MOL    H70 4120   7.817   2.123   6.540  0.1110 -0.4078  1.3797
   26MOL    H71 4121   7.695   2.214   6.456  1.4166 -1.1203 -1.5108
   26MOL    H72 4122   7.651   2.011   6.336  0.9736  1.3800 -0.1392
   26MOL    H73 4123   7.538   2.004   6.458 -0.4067  1.3531 -1.9636
   26MOL    C74 4124   7.638   1.742   6.438 -0.1489 -0.0669  0.0158
   26MOL    C75 4125   7.677   1.726   6.290 -0.4512 -0.5307  0.0811
   26MOL    C76 4126   7.551   1.720   6.198  0.8605  0.5864 -0.1293
   26MOL    O77 4127   7.434   1.713   6.244  0.3502 -0.7619 -0.6500
   26MOL    H78 4128   7.529   1.745   6.442 -0.0812  1.4116  1.0364
   26MOL    H79 4129   7.669   1.658   6.501 -0.7515  0.4288  0.9825
   26MOL    H80 4130   7.721   1.626   6.280 -1.5199 -0.8046 -2.1284
   26MOL    H81 4131   7.737   1.804   6.243  1.5896 -1.8252  0.4568
   26MOL    C82 4132   7.575   1.724   6.056  1.0833  0.5262 -0.3755
   26MOL    C83 4133   7.456   1.675   5.977 -0.7662 -0.1090  0.1980
   26MOL    C84 4134   7.462   1.722   5.832 -0.4435 -0.3494  0.5003
   26MOL    O85 4135   7.568   1.766   5.786  0.6110  0.1410  0.1219
   26MOL    H86 4136   7.666   1.669   6.032  2.6119  1.6222  2.6635
   26MOL    H87 4137   7.601   1.828   6.034  2.0509 -0.2728 -3.2411
   26MOL    H88 4138   7.365   1.718   6.017  0.6184  2.9944  0.1198
   26MOL    H89 4139   7.442   1.568   5.997 -0.5092 -0.4019 -1.1386
   26MOL    C90 4140   7.342   1.723   5.741  0.6501  1.1563  0.4146
   26MOL    C91 4141   7.342   1.817   5.617  0.2842 -0.0328  0.2739
   26MOL    C92 4142   7.302   1.959   5.652 -0.1774  0.8245  0.1497
   26MOL    O93 4143   7.306   1.991   5.767 -0.1631  0.1571 -0.2886
   26MOL    H94 4144   7.251   1.730   5.799  0.6091  0.3674  0.4571
   26MOL    H95 4145   7.342   1.623   5.697 -0.5374  0.4887  1.8906
   26MOL    H96 4146   7.278   1.787   5.534  0.8932 -1.2401  0.2243
   26MOL    H97 4147   7.440   1.814   5.570 -0.2788 -1.3408 -0.8413
   26MOL    C98 4148   7.253   2.051   5.539  0.1842  0.4209 -0.0175
   26MOL    C99 4149   7.264   2.201   5.580 -0.0892 -0.5952  0.0153
   26MOL   C100 4150   7.408   2.257   5.570  0.0594  0.3820  0.0754
   26MOL   O101 4151   7.490   2.195   5.510  0.1955 -0.2432  0.0919
   26MOL   H102 4152   7.146   2.032   5.527  0.3509 -1.8158  1.8345
   26MOL   H103 4153   7.301   2.018   5.447 -0.6002  0.8631 -0.5969
   26MOL   H104 4154   7.223   2.214   5.680  0.3643 -1.4637  0.3218
   26MOL   H105 4155   7.197   2.261   5.519 -0.0791  0.7767  1.3349
   26MOL   C106 4156   7.435   2.385   5.641 -0.9943 -0.5849  0.5508
   26MOL   C107 4157   7.552   2.459   5.577  1.0569  0.7196 -0.8637
   26MOL   C108 4158   7.603   2.578   5.668  0.4379  0.2151 -0.4928
   26MOL   O109 4159   7.550   2.610   5.775  0.1303  0.1661 -0.2375
   26MOL   H110 4160   7.459   2.352   5.742  0.4430 -0.3704  0.2914
   26MOL   H111 4161   7.343   2.443   5.644  0.2287  1.3927  2.1255
   26MOL   H112 4162   7.514   2.509   5.488  1.8515  1.9100 -0.5419
   26MOL   H113 4163   7.634   2.393   5.550  0.2924 -2.5907  4.0888
   26MOL   C114 4164   7.723   2.656   5.609  0.2793 -0.2599 -0.4566
   26MOL   C115 4165   7.688   2.738   5.481 -0.5865 -0.6952  0.0437
   26MOL   C116 4166   7.653   2.885   5.514 -0.3611 -0.2515  0.5052
   26MOL   O117 4167   7.554   2.926   5.571 -0.0020  0.5380 -0.1254
   26MOL   H118 4168   7.798   2.577   5.601 -0.6034 -1.4463  2.3663
   26MOL   H119 4169   7.748   2.719   5.694  0.5817 -2.1284  0.8738
   26MOL   H120 4170   7.626   2.695   5.402 -0.5521  0.2124 -0.4828
   26MOL   H121 4171   7.782   2.744   5.427 -0.3187  2.3076  0.7021
   26MOL   C122 4172   7.769   2.982   5.478  0.3248 -0.4960  0.5804
   26MOL   C123 4173   7.747   3.129   5.515  0.4583  0.3096 -0.3996
   26MOL   C124 4174   7.679   3.201   5.401 -0.1619  0.6188 -0.1947
   26MOL   O125 4175   7.607   3.142   5.320 -0.5978 -0.1995 -0.4708
   26MOL   H126 4176   7.772   2.973   5.370  0.9931  1.9335  0.3801
   26MOL   H127 4177   0.007   2.949   5.516 -0.2382 -0.9832  1.6253
   26MOL   H128 4178   7.845   3.175   5.529  0.9288 -1.0085  0.7451
   26MOL   H129 4179   7.684   3.136   5.603  1.0836 -0.1845  0.0927
   26MOL   C130 4180   7.704   3.346   5.382  0.0533 -1.3387  0.0896
   26MOL   C131 4181   7.680   3.408   5.245 -0.5296 -0.3760  0.5974
   26MOL   C132 4182   7.645   3.553   5.252 -0.5595 -0.7934  0.4863
   26MOL   O133 4183   7.596   3.602   5.350  0.3034 -0.4673  0.3062
   26MOL   H134 4184   7.809   3.356   5.411  0.2495 -3.3178  0.1371
   26MOL   H135 4185   7.650   3.383   5.469  0.8051 -1.4163  0.5978
   26MOL   H136 4186   7.597   3.363   5.190 -0.3872  0.6607 -0.4935
   26MOL   H137 4187   7.765   3.386   5.180 -1.4421 -1.1336 -0.3612
   26MOL   C138 4188   7.655   3.638   5.126 -0.0525 -0.4685  0.0691
   26MOL   C139 4189   7.668   3.787   5.150  0.1382 -0.1300  0.2534
   26MOL   C140 4190   7.677   3.854   5.012 -0.7354  0.1004 -0.1737
   26MOL   O141 4191   7.723   3.803   4.909  0.5271  0.0225 -0.2386
   26MOL   H142 4192   7.565   3.628   5.065 -1.5043 -2.2337  2.4030
   26MOL   H143 4193   7.739   3.594   5.072 -0.1705 -0.9049  0.2417
   26MOL   H144 4194   7.761   3.801   5.205 -0.8244 -3.2072  2.8241
   26MOL   H145 4195   7.579   3.827   5.196 -2.2250 -3.2742 -1.3571
   26MOL   C146 4196   7.637   4.001   5.005 -0.8128 -0.1046 -0.3123
   26MOL   C147 4197   7.550   4.024   4.872  0.5840 -0.3812  0.0550
   26MOL   C148 4198   7.416   4.066   4.905  0.5906  0.5256  0.1315
   26MOL   O149 4199   7.381   4.186   4.887 -0.6294  0.1292  0.4131
   26MOL   H150 4200   7.727   4.063   4.999 -2.3120  2.3976  2.0316
   26MOL   H151 4201   7.587   4.032   5.096  0.4361  1.2565 -0.0799
   26MOL   H152 4202   7.556   3.938   4.806 -1.2802 -0.2686 -0.2755
   26MOL   H153 4203   7.599   4.097   4.807 -0.6985 -0.2868 -0.8134
   26MOL   C154 4204   7.315   3.960   4.946  0.5648  0.0826 -0.1271
   26MOL   C155 4205   7.210   4.008   5.047  0.1733  0.2751 -0.0997
   26MOL   C156 4206   7.231   3.952   5.186  0.9076  0.3274 -0.0220
   26MOL   O157 4207   7.339   3.935   5.231 -0.2728  0.1699 -0.5399
   26MOL   H158 4208   7.357   3.863   4.972 -2.3544 -1.0039  0.7860
   26MOL   H159 4209   7.259   3.944   4.854 -2.3547 -3.3338  2.0902
   26MOL   H160 4210   7.115   3.975   5.007  1.7727 -3.5256 -1.0080
   26MOL   H161 4211   7.206   4.116   5.058  0.1483  0.4949 -2.1878
   26MOL   H162 4212   7.143   3.942   5.250  1.5369 -2.7838  0.4534
   27MOL     C1 4213   0.430   0.651   3.050 -0.4961  0.0870  0.0923
   27MOL     C2 4214   0.340   0.700   2.935  0.8752  0.1895  0.2461
   27MOL     C3 4215   0.335   0.850   2.940  0.7482 -0.5522  0.0326
   27MOL     O4 4216   0.393   0.918   3.022 -0.2127 -0.2998  0.1780
   27MOL     H5 4217   0.532   0.689   3.041 -0.2533 -0.7400 -0.6591
   27MOL     H6 4218   0.399   0.686   3.149  0.7002  1.1675  0.0944
   27MOL     H7 4219   0.248   0.642   2.938  0.0082  1.5139 -0.4811
   27MOL     H8 4220   0.372   0.673   2.835 -0.0537  1.7689 -0.4881
   27MOL     H9 4221   0.432   0.543   3.037 -0.6129  0.2354 -1.1659
   27MOL    C10 4222   0.238   0.913   2.836  0.6859 -0.5901  0.5071
   27MOL    C11 4223   0.300   1.051   2.794  0.0340 -0.6762 -0.0269
   27MOL    C12 4224   0.412   1.033   2.694 -0.3077  0.0854  0.0087
   27MOL    O13 4225   0.396   0.963   2.591  0.8178  0.1109 -0.6886
   27MOL    H14 4226   0.149   0.924   2.898 -0.6334  1.6714 -1.6986
   27MOL    H15 4227   0.211   0.852   2.750  0.0729 -0.0725  0.3246
   27MOL    H16 4228   0.341   1.098   2.883 -0.2009 -0.2454 -0.1435
   27MOL    H17 4229   0.219   1.118   2.765  0.2956  1.0675  3.0883
   27MOL    C18 4230   0.540   1.117   2.727  0.0801  0.2130 -0.2943
   27MOL    C19 4231   0.607   1.187   2.604  0.3988  0.2554  0.5451
   27MOL    C20 4232   0.712   1.099   2.526 -0.1766  0.3519  0.1810
   27MOL    O21 4233   0.777   1.007   2.580  0.2016 -0.3749  0.3751
   27MOL    H22 4234   0.606   1.049   2.782 -0.2953  0.7854  0.8687
   27MOL    H23 4235   0.517   1.199   2.794 -0.5616 -0.4633  0.3127
   27MOL    H24 4236   0.660   1.277   2.635 -0.6354  1.6950 -1.7133
   27MOL    H25 4237   0.527   1.220   2.537 -0.6339 -1.1553  1.0565
   27MOL    C26 4238   0.742   1.137   2.377  0.5515 -0.5982 -0.3738
   27MOL    C27 4239   0.879   1.094   2.321 -0.1093  0.2486  0.0207
   27MOL    C28 4240   0.937   1.205   2.237 -0.6046  0.1024 -0.4885
   27MOL    O29 4241   0.868   1.295   2.196  0.3750  0.2204 -0.3257
   27MOL    H30 4242   0.724   1.244   2.363  2.9659 -0.2562 -1.1396
   27MOL    H31 4243   0.664   1.087   2.320  0.5043 -1.6202  0.5585
   27MOL    H32 4244   0.870   1.017   2.244  1.0473  0.7627 -0.6442
   27MOL    H33 4245   0.951   1.065   2.398  2.6840  1.6675 -1.9614
   27MOL    C34 4246   1.090   1.207   2.215 -0.5928  0.5255  0.0708
   27MOL    C35 4247   1.153   1.349   2.215 -0.1677  0.8274 -0.2109
   27MOL    C36 4248   1.237   1.365   2.339 -0.6521  0.2551  0.0870
   27MOL    O37 4249   1.249   1.288   2.435 -0.2587 -0.2113 -0.7947
   27MOL    H38 4250   1.098   1.147   2.124 -0.5750  0.9235 -0.1869
   27MOL    H39 4251   1.144   1.153   2.293  0.7969 -0.9771 -1.8731
   27MOL    H40 4252   1.082   1.431   2.205 -2.3041 -0.8274  1.0075
   27MOL    H41 4253   1.211   1.358   2.123  0.5638  1.4531  0.3098
   27MOL    C42 4254   1.304   1.505   2.331 -0.1284  0.1164 -0.2433
   27MOL    C43 4255   1.369   1.542   2.464 -0.1183  0.6865 -0.2982
   27MOL    C44 4256   1.518   1.524   2.480 -0.7328 -0.8759 -0.2924
   27MOL    O45 4257   1.580   1.503   2.375 -0.2714 -0.3700 -0.4405
   27MOL    H46 4258   1.227   1.575   2.300  0.0375 -0.8273 -2.9156
   27MOL    H47 4259   1.377   1.512   2.250  0.3038  2.3143  0.3204
   27MOL    H48 4260   1.316   1.482   2.538 -0.9892  0.3637 -1.1832
   27MOL    H49 4261   1.352   1.641   2.506  0.1242  1.2394 -1.4840
   27MOL    C50 4262   1.593   1.547   2.619  0.6290 -0.7567 -0.0521
   27MOL    C51 4263   1.650   1.687   2.633  0.0920  0.7972 -0.4474
   27MOL    C52 4264   1.781   1.703   2.557  0.3665  0.7891 -0.3410
   27MOL    O53 4265   1.861   1.615   2.552 -0.1161  0.0385  0.0002
   27MOL    H54 4266   1.671   1.472   2.634  0.5392 -0.4328  2.2367
   27MOL    H55 4267   1.517   1.540   2.697  0.1045 -0.6443 -0.5487
   27MOL    H56 4268   1.667   1.710   2.738  0.3104 -2.2705  0.2284
   27MOL    H57 4269   1.571   1.756   2.603  1.0584  1.7179 -0.9159
   27MOL    C58 4270   1.797   1.832   2.478 -0.3939 -0.5854 -0.2500
   27MOL    C59 4271   1.723   1.820   2.337 -0.0386 -0.5581  0.2290
   27MOL    C60 4272   1.590   1.883   2.334  0.2995 -0.2338  0.3088
   27MOL    O61 4273   1.541   1.936   2.432  0.2250 -0.6500  0.3245
   27MOL    H62 4274   1.901   1.860   2.457  0.3015 -0.8841  2.6461
   27MOL    H63 4275   1.763   1.913   2.542 -0.2066 -0.2133 -0.6150
   27MOL    H64 4276   1.710   1.718   2.302 -0.9848 -0.3139 -0.1361
   27MOL    H65 4277   1.794   1.867   2.268  2.0062  0.1628  2.7591
   27MOL    C66 4278   1.513   1.877   2.199  0.3136 -0.0521 -0.6451
   27MOL    C67 4279   1.363   1.861   2.211  0.4300  0.3864 -0.5210
   27MOL    C68 4280   1.281   1.880   2.085  0.0362  0.0877 -0.2645
   27MOL    O69 4281   1.314   1.961   1.995  0.0587  0.3394 -0.5274
   27MOL    H70 4282   1.556   1.788   2.154  0.2436 -1.0805  1.2808
   27MOL    H71 4283   1.543   1.960   2.135  1.7740 -0.8314 -0.9897
   27MOL    H72 4284   1.316   1.932   2.278 -3.3074 -0.8916 -1.6571
   27MOL    H73 4285   1.334   1.763   2.248  1.2393 -0.6665 -2.5410
   27MOL    C74 4286   1.150   1.799   2.067 -0.1103 -0.4866 -0.1533
   27MOL    C75 4287   1.104   1.797   1.918  0.2466  0.1236 -0.3395
   27MOL    C76 4288   0.968   1.723   1.902 -0.2553  0.5817 -0.2572
   27MOL    O77 4289   0.869   1.760   1.958 -0.5721  0.0389 -0.2091
   27MOL    H78 4290   1.065   1.842   2.121  0.8625  0.9079  0.2954
   27MOL    H79 4291   1.165   1.696   2.100 -1.1038 -0.0246  1.8516
   27MOL    H80 4292   1.175   1.736   1.862  0.3739 -1.4106  1.4207
   27MOL    H81 4293   1.106   1.903   1.894 -0.5497  0.1826 -0.1461
   27MOL    C82 4294   0.970   1.589   1.832  0.1518 -0.0472  0.1339
   27MOL    C83 4295   0.827   1.534   1.809 -0.7618  0.4534  0.5013
   27MOL    C84 4296   0.826   1.455   1.679  0.0468  0.4179  0.0792
   27MOL    O85 4297   0.933   1.402   1.626  0.2094 -0.3384 -0.3074
   27MOL    H86 4298   1.032   1.521   1.889 -0.5782 -1.2806 -0.5371
   27MOL    H87 4299   1.021   1.611   1.737 -1.9733  1.0536 -0.7972
   27MOL    H88 4300   0.755   1.616   1.807  0.9390  1.9560 -0.9393
   27MOL    H89 4301   0.801   1.465   1.890  1.2025 -1.3924 -0.4053
   27MOL    C90 4302   0.687   1.448   1.609  0.2814  0.3704  0.3208
   27MOL    C91 4303   0.677   1.355   1.490  0.8263 -0.0933 -0.0581
   27MOL    C92 4304   0.619   1.218   1.530  0.3802  0.0600 -0.1211
   27MOL    O93 4305   0.580   1.197   1.645 -0.0871 -0.3075  0.9954
   27MOL    H94 4306   0.671   1.547   1.566 -1.1194  0.6079  1.3577
   27MOL    H95 4307   0.614   1.426   1.687 -1.4538  0.9304 -1.1101
   27MOL    H96 4308   0.775   1.354   1.441  0.3860  0.0096 -0.9595
   27MOL    H97 4309   0.603   1.403   1.426 -1.3150 -0.0088  2.4057
   27MOL    C98 4310   0.610   1.114   1.427 -0.0418  0.9493 -0.5264
   27MOL    C99 4311   0.595   0.970   1.487 -0.0155  0.2744 -0.0152
   27MOL   C100 4312   0.722   0.925   1.558 -0.2039  0.1841  0.4099
   27MOL   O101 4313   0.822   0.992   1.578  0.6044 -0.3871  0.1393
   27MOL   H102 4314   0.701   1.113   1.366  2.0308  1.7525  2.4807
   27MOL   H103 4315   0.533   1.134   1.353  0.4850 -1.8110 -1.9094
   27MOL   H104 4316   0.583   0.897   1.407 -0.2881 -0.5916  0.8152
   27MOL   H105 4317   0.516   0.961   1.561 -1.4861 -0.9067 -1.6877
   27MOL   C106 4318   0.725   0.785   1.603  0.0823 -0.1259  0.3339
   27MOL   C107 4319   0.844   0.754   1.702 -0.2318  0.3386  0.0697
   27MOL   C108 4320   0.985   0.747   1.640  0.3982  0.2860 -0.2708
   27MOL   O109 4321   1.005   0.727   1.521 -0.4399  0.0886 -0.3044
   27MOL   H110 4322   0.734   0.726   1.512  0.4573  0.0460  0.2567
   27MOL   H111 4323   0.634   0.759   1.657 -0.4688  0.9997 -0.0541
   27MOL   H112 4324   0.824   0.657   1.748 -2.6467  0.8142  0.0946
   27MOL   H113 4325   0.852   0.819   1.790  1.5918  1.5322 -0.9453
   27MOL   C114 4326   1.096   0.793   1.731  0.0673 -0.4565  0.0520
   27MOL   C115 4327   1.112   0.950   1.721 -0.2374  0.1766 -0.5934
   27MOL   C116 4328   1.042   1.029   1.833 -0.4230 -0.4742 -0.0462
   27MOL   O117 4329   1.003   0.974   1.933  0.3284  0.6682 -0.0288
   27MOL   H118 4330   1.195   0.753   1.712  1.0509  2.2895 -0.6953
   27MOL   H119 4331   1.077   0.769   1.836  0.7016 -1.4882 -0.0633
   27MOL   H120 4332   1.074   0.987   1.626 -1.0234 -1.5290 -0.9525
   27MOL   H121 4333   1.214   0.987   1.732 -0.3571  0.3018  0.0780
   27MOL   C122 4334   1.040   1.179   1.823  0.4335  0.3001 -0.1624
   27MOL   C123 4335   1.169   1.239   1.879 -0.4552 -0.5822  0.2395
   27MOL   C124 4336   1.259   1.289   1.766 -0.0159 -0.1267 -0.2304
   27MOL   O125 4337   1.298   1.212   1.675 -0.0762 -0.0396 -0.6088
   27MOL   H126 4338   0.951   1.218   1.872 -0.4264 -2.8766  0.9466
   27MOL   H127 4339   1.037   1.192   1.714  0.8057 -0.5632 -0.2815
   27MOL   H128 4340   1.222   1.171   1.946 -1.0797 -0.8763  0.4325
   27MOL   H129 4341   1.132   1.328   1.930 -0.4241 -0.2730 -0.2733
   27MOL   C130 4342   1.303   1.432   1.749 -0.1481  0.6401 -0.2607
   27MOL   C131 4343   1.454   1.450   1.784  0.0931 -0.2371 -0.5646
   27MOL   C132 4344   1.476   1.521   1.913 -0.2728  0.1726 -0.2076
   27MOL   O133 4345   1.391   1.565   1.988  0.2308 -0.2938 -0.4459
   27MOL   H134 4346   1.246   1.498   1.814  1.2365  0.3297  1.3071
   27MOL   H135 4347   1.282   1.458   1.645  0.6994 -0.3587 -0.6878
   27MOL   H136 4348   1.489   1.519   1.708  1.9325 -0.3599  0.1534
   27MOL   H137 4349   1.511   1.358   1.768  2.2044  0.7780  0.8841
   27MOL   C138 4350   1.623   1.530   1.957  0.1586  0.2000  0.4296
   27MOL   C139 4351   1.713   1.599   1.851  0.2700  0.4885 -0.4878
   27MOL   C140 4352   1.776   1.735   1.888  0.1409 -0.5178 -0.7156
   27MOL   O141 4353   1.767   1.777   2.003  0.4351 -0.3251 -0.4078
   27MOL   H142 4354   1.658   1.432   1.990  0.7952  0.6603  1.1365
   27MOL   H143 4355   1.615   1.590   2.047 -1.8837 -1.7290  1.6049
   27MOL   H144 4356   1.672   1.594   1.750 -0.0624 -1.0164 -0.2902
   27MOL   H145 4357   1.790   1.524   1.830 -2.1277 -2.2399  0.2444
   27MOL   C146 4358   1.834   1.814   1.771  0.4536  0.5103 -0.4588
   27MOL   C147 4359   1.989   1.798   1.766 -0.8030 -0.0112  0.2711
   27MOL   C148 4360   2.039   1.878   1.643  0.9988 -0.0342 -0.0964
   27MOL   O149 4361   1.966   1.954   1.584  0.0285 -0.0759 -0.0756
   27MOL   H150 4362   1.805   1.919   1.767 -2.5809 -0.2859 -0.6138
   27MOL   H151 4363   1.805   1.761   1.680 -0.8024 -0.5766  0.5607
   27MOL   H152 4364   2.026   1.695   1.766  1.6391  0.8273  0.6422
   27MOL   H153 4365   2.020   1.851   1.855 -0.9527  1.8761 -0.7797
   27MOL   C154 4366   2.177   1.843   1.595  0.1532 -0.0208  0.2269
   27MOL   C155 4367   2.197   1.839   1.441 -0.2329  0.8404 -0.3418
   27MOL   C156 4368   2.293   1.945   1.387 -0.3481  0.2516 -1.2265
   27MOL   O157 4369   2.271   2.019   1.282  0.3233  0.5876  0.1713
   27MOL   H158 4370   2.200   1.745   1.637 -3.0123 -0.9013  0.0609
   27MOL   H159 4371   2.245   1.913   1.644 -0.1624  0.2786  0.2440
   27MOL   H160 4372   2.103   1.831   1.388 -1.2988  2.2335  1.2810
   27MOL   H161 4373   2.248   1.744   1.424 -3.2037 -0.9974  0.7023
   27MOL   H162 4374   2.392   1.950   1.431  0.5266  0.4478 -3.1427
   28MOL     C1 4375   4.434   2.779   7.466 -0.3336 -0.1378 -0.1233
   28MOL     C2 4376   4.498   2.808   7.333 -0.2558 -0.0708 -0.7958
   28MOL     C3 4377   4.626   2.733   7.304 -0.0206 -0.1514  0.3192
   28MOL     O4 4378   4.665   2.649   7.389 -0.2530 -0.1731 -0.7225
   28MOL     H5 4379   4.331   2.814   7.460 -0.5084 -0.5742  0.3368
   28MOL     H6 4380   4.431   2.671   7.479 -1.1755 -0.0279  0.5769
   28MOL     H7 4381   4.543   2.907   7.337 -0.2813 -0.0882 -0.1121
   28MOL     H8 4382   4.441   2.785   7.243 -0.2123 -0.5528 -0.7001
   28MOL     H9 4383   4.493   2.821   7.547  0.2540 -1.2787  0.0455
   28MOL    C10 4384   4.686   2.762   7.167  0.4450  0.8808 -0.9697
   28MOL    C11 4385   4.816   2.682   7.145 -0.3125  0.3717 -0.1623
   28MOL    C12 4386   4.802   2.540   7.100 -0.5329  0.1602 -0.0060
   28MOL    O13 4387   4.784   2.520   6.981 -0.6335  0.0828  0.5791
   28MOL    H14 4388   4.692   2.870   7.154  0.9725  1.1362  1.1820
   28MOL    H15 4389   4.603   2.730   7.104 -0.4033  2.5329 -0.7132
   28MOL    H16 4390   4.875   2.681   7.237 -0.0150 -0.7775 -0.3555
   28MOL    H17 4391   4.879   2.735   7.074  0.9918 -0.0679  0.6503
   28MOL    C18 4392   4.810   2.425   7.203 -0.1441  0.1345 -0.6405
   28MOL    C19 4393   4.859   2.301   7.133  0.5576  0.5460  0.1799
   28MOL    C20 4394   4.783   2.171   7.172 -0.2599  0.8528 -0.1622
   28MOL    O21 4395   4.708   2.162   7.272 -0.3506 -0.6467 -0.1844
   28MOL    H22 4396   4.707   2.403   7.229  0.0572 -1.8676 -1.4899
   28MOL    H23 4397   4.870   2.448   7.292  3.2006 -0.9974 -2.5038
   28MOL    H24 4398   4.966   2.298   7.156  0.8688 -0.5636 -1.2886
   28MOL    H25 4399   4.858   2.308   7.024  2.8730 -0.8995  0.0196
   28MOL    C26 4400   4.798   2.059   7.065  0.2466 -0.8525  0.4117
   28MOL    C27 4401   4.668   2.040   6.983 -0.8829  0.2917 -0.3984
   28MOL    C28 4402   4.674   2.103   6.849  0.6495  0.4290 -0.0260
   28MOL    O29 4403   4.759   2.185   6.815 -0.1932  0.5292 -0.5748
   28MOL    H30 4404   4.826   1.971   7.123 -0.4540 -0.6149  1.1226
   28MOL    H31 4405   4.889   2.073   7.006 -0.0006  0.0457  0.2288
   28MOL    H32 4406   4.583   2.068   7.044 -1.1509 -1.0980 -0.1148
   28MOL    H33 4407   4.641   1.935   6.972 -0.1446 -0.0502  0.9768
   28MOL    C34 4408   4.562   2.061   6.757 -0.1858  0.5926 -0.0163
   28MOL    C35 4409   4.536   2.165   6.643 -0.3471 -0.3059 -0.0583
   28MOL    C36 4410   4.647   2.168   6.528  0.4084 -0.4592 -0.3037
   28MOL    O37 4411   4.723   2.075   6.515  0.5888  0.2587 -0.2119
   28MOL    H38 4412   4.479   2.041   6.825 -0.6937 -0.7117 -0.9925
   28MOL    H39 4413   4.585   1.963   6.716  1.5100 -0.3060  2.9170
   28MOL    H40 4414   4.521   2.265   6.682  1.3064 -0.6020  1.4089
   28MOL    H41 4415   4.437   2.141   6.602  0.0750 -2.1523 -0.0571
   28MOL    C42 4416   4.663   2.295   6.440 -0.4015 -0.4382 -0.0171
   28MOL    C43 4417   4.685   2.253   6.287 -0.0431  0.1224 -0.3493
   28MOL    C44 4418   4.556   2.253   6.209  0.2792  0.1560 -0.0993
   28MOL    O45 4419   4.464   2.184   6.258  0.2649 -0.2207 -0.1459
   28MOL    H46 4420   4.751   2.346   6.479 -2.3057  0.8364  2.7873
   28MOL    H47 4421   4.569   2.349   6.451 -0.3570 -0.2779 -0.3957
   28MOL    H48 4422   4.722   2.151   6.280  3.2241  1.2008  0.6113
   28MOL    H49 4423   4.762   2.318   6.246 -1.2136  0.8224 -1.5011
   28MOL    C50 4424   4.570   2.327   6.077 -0.4946 -0.0977  0.2013
   28MOL    C51 4425   4.448   2.400   6.029 -0.6586  0.4440  0.1516
   28MOL    C52 4426   4.477   2.517   5.933  0.4743  0.4523  0.4822
   28MOL    O53 4427   4.418   2.625   5.953 -0.5265  0.3748 -0.3599
   28MOL    H54 4428   4.587   2.245   6.007  1.9104  0.9747 -0.5482
   28MOL    H55 4429   4.656   2.392   6.061  0.6133 -1.1897  1.5732
   28MOL    H56 4430   4.389   2.439   6.111  2.3410 -0.0991  2.6862
   28MOL    H57 4431   4.382   2.327   5.981  2.1488 -3.7951  2.4112
   28MOL    C58 4432   4.585   2.498   5.826  0.6562 -0.5786  0.0587
   28MOL    C59 4433   4.615   2.628   5.742  0.1913 -0.3686 -0.2667
   28MOL    C60 4434   4.725   2.719   5.794 -0.6039  0.5509 -0.1948
   28MOL    O61 4435   4.787   2.685   5.892 -0.0623 -0.1002 -0.8552
   28MOL    H62 4436   4.546   2.429   5.751 -0.9079  0.1717  0.1656
   28MOL    H63 4437   4.669   2.453   5.879  1.2455 -0.5540 -0.8521
   28MOL    H64 4438   4.528   2.694   5.743 -0.3097 -0.9556  3.5560
   28MOL    H65 4439   4.649   2.586   5.647 -2.3175 -0.5545 -1.1251
   28MOL    C66 4440   4.743   2.846   5.710 -0.7542 -0.5509 -0.8528
   28MOL    C67 4441   4.868   2.924   5.754  0.0779  0.2755  0.0154
   28MOL    C68 4442   4.831   3.051   5.827  0.1780 -0.4825  0.0394
   28MOL    O69 4443   4.826   3.056   5.952 -0.2188 -0.2604 -0.1231
   28MOL    H70 4444   4.651   2.905   5.711  0.5659  1.5660 -1.0648
   28MOL    H71 4445   4.762   2.821   5.606 -0.6559 -0.2811 -0.8998
   28MOL    H72 4446   4.933   2.938   5.667  0.5080 -2.8233 -0.2309
   28MOL    H73 4447   4.930   2.866   5.823  1.2548  0.1880 -1.0887
   28MOL    C74 4448   4.776   3.159   5.738  0.3046 -0.5885  0.3853
   28MOL    C75 4449   4.799   3.306   5.787  0.1111  0.2830  0.0024
   28MOL    C76 4450   4.808   3.398   5.666  0.4180  0.7854  0.1312
   28MOL    O77 4451   4.763   3.369   5.557  0.1851  0.0715 -0.1247
   28MOL    H78 4452   4.670   3.143   5.721 -0.0434  0.2485  1.6560
   28MOL    H79 4453   4.800   3.141   5.633 -1.9985 -2.1188  0.1075
   28MOL    H80 4454   4.899   3.325   5.825  0.2252 -1.4498  0.6188
   28MOL    H81 4455   4.719   3.339   5.853 -1.2384 -2.0023 -0.4315
   28MOL    C82 4456   4.871   3.536   5.694  0.2347 -0.1944 -0.0115
   28MOL    C83 4457   4.966   3.588   5.585 -0.3987 -0.0549  0.0984
   28MOL    C84 4458   5.111   3.619   5.633  0.4530  0.0553 -0.1425
   28MOL    O85 4459   5.149   3.598   5.747 -0.3874 -0.0571 -0.1506
   28MOL    H86 4460   4.919   3.541   5.791 -1.8996 -1.0626  1.1080
   28MOL    H87 4461   4.784   3.600   5.708  0.0538 -0.4911  0.2062
   28MOL    H88 4462   4.926   3.681   5.544  0.6090  0.1455 -0.4448
   28MOL    H89 4463   4.982   3.519   5.502 -0.7837  1.8394 -1.6054
   28MOL    C90 4464   5.208   3.693   5.542  0.4288 -0.1336  0.4190
   28MOL    C91 4465   5.141   3.754   5.418 -0.6457 -0.4710 -0.1169
   28MOL    C92 4466   5.244   3.846   5.349  0.5066 -0.3268 -0.1505
   28MOL    O93 4467   5.366   3.839   5.374 -0.0180 -0.0872 -0.1138
   28MOL    H94 4468   5.283   3.625   5.502  2.9540  0.6253  3.6043
   28MOL    H95 4469   5.245   3.774   5.605  1.6097  0.2542 -0.7545
   28MOL    H96 4470   5.051   3.811   5.436 -0.9536 -0.4781 -1.5248
   28MOL    H97 4471   5.117   3.680   5.341  0.0611 -0.6997 -0.1273
   28MOL    C98 4472   5.202   3.936   5.235  0.4051  0.0765  0.0259
   28MOL    C99 4473   5.261   3.906   5.098  1.1447 -0.4870  0.5687
   28MOL   C100 4474   5.194   3.784   5.037 -0.5701 -0.5028  0.2602
   28MOL   O101 4475   5.097   3.726   5.093 -0.1711 -0.7341  0.2553
   28MOL   H102 4476   5.207   4.041   5.262  1.2438 -0.0268  0.2636
   28MOL   H103 4477   5.093   3.922   5.234  0.5127 -0.7700 -0.4093
   28MOL   H104 4478   5.368   3.885   5.110  1.0567 -0.9870  0.4658
   28MOL   H105 4479   5.247   3.988   5.028  3.3625 -0.4159  0.1413
   28MOL   C106 4480   5.249   3.734   4.898  0.6647 -0.3027  0.1379
   28MOL   C107 4481   5.172   3.609   4.840 -0.0483  0.3632  1.1413
   28MOL   C108 4482   5.252   3.479   4.824 -0.1698  0.1484 -0.0651
   28MOL   O109 4483   5.357   3.451   4.883  0.0984  0.0315  0.5469
   28MOL   H110 4484   5.355   3.713   4.912  0.2915 -1.3541  1.6478
   28MOL   H111 4485   5.264   3.820   4.834  1.0896 -0.7449 -0.3598
   28MOL   H112 4486   5.148   3.630   4.735 -2.1862  1.6397  1.8620
   28MOL   H113 4487   5.078   3.579   4.887  0.4870 -2.3143  0.6131
   28MOL   C114 4488   5.195   3.375   4.735 -0.1661 -0.3955 -0.0288
   28MOL   C115 4489   5.122   3.275   4.828  0.7608  0.0284  0.1865
   28MOL   C116 4490   5.110   3.135   4.769 -0.7842 -0.2516 -0.4012
   28MOL   O117 4491   5.175   3.112   4.668  0.2514 -0.6002  0.4077
   28MOL   H118 4492   5.271   3.325   4.675  0.8783  0.1352  0.8263
   28MOL   H119 4493   5.131   3.423   4.661  1.1868 -0.3519 -1.1804
   28MOL   H120 4494   5.029   3.324   4.855 -0.8286 -3.0228  0.5296
   28MOL   H121 4495   5.179   3.256   4.919 -0.0925  1.0477  0.9457
   28MOL   C122 4496   5.021   3.034   4.837 -0.5034  0.2560 -0.1017
   28MOL   C123 4497   4.872   3.042   4.804  0.2104  0.4294  0.0690
   28MOL   C124 4498   4.789   3.117   4.909 -0.0795 -0.7248 -0.7478
   28MOL   O125 4499   4.804   3.086   5.029 -0.1932 -0.1523 -0.1272
   28MOL   H126 4500   5.034   3.054   4.943  0.5152 -1.6553  0.1600
   28MOL   H127 4501   5.056   2.932   4.823 -0.2080  0.5202 -1.4483
   28MOL   H128 4502   4.831   2.944   4.777  2.0013 -0.9657  2.3099
   28MOL   H129 4503   4.860   3.098   4.711 -0.7181  0.3938  0.1571
   28MOL   C130 4504   4.709   3.242   4.861  0.3687 -0.0419 -0.4139
   28MOL   C131 4505   4.657   3.330   4.977 -0.5686  0.0404 -0.9397
   28MOL   C132 4506   4.759   3.423   5.038 -0.0801  1.1059 -0.7427
   28MOL   O133 4507   4.869   3.448   4.991 -0.4599  0.2815 -0.1058
   28MOL   H134 4508   4.625   3.202   4.804 -0.0713  0.7042 -0.2906
   28MOL   H135 4509   4.782   3.295   4.800  0.1926 -2.5851 -2.9517
   28MOL   H136 4510   4.623   3.260   5.053  1.3524 -0.0673 -0.1349
   28MOL   H137 4511   4.573   3.391   4.947 -0.2741  0.9471  0.0828
   28MOL   C138 4512   4.726   3.492   5.172  0.4359  0.5936  0.3742
   28MOL   C139 4513   4.835   3.582   5.241 -0.4558  0.0372  0.2128
   28MOL   C140 4514   4.798   3.728   5.228  0.2042 -0.3108 -0.8264
   28MOL   O141 4515   4.785   3.794   5.333 -0.4265  0.6804  0.3165
   28MOL   H142 4516   4.688   3.407   5.229  0.2409 -1.9075 -3.2749
   28MOL   H143 4517   4.643   3.560   5.156 -0.9261 -0.0760  4.0383
   28MOL   H144 4518   4.936   3.563   5.204 -0.8271 -2.3437  0.3225
   28MOL   H145 4519   4.827   3.570   5.349  1.7140  0.2384  0.4283
   28MOL   C146 4520   4.781   3.799   5.091  0.5847  0.0825 -0.8001
   28MOL   C147 4521   4.698   3.929   5.093  0.2111 -0.3603 -0.4261
   28MOL   C148 4522   4.779   4.048   5.033 -0.0878  0.5276 -0.1718
   28MOL   O149 4523   4.900   4.058   5.029  0.4781 -0.0804 -0.1255
   28MOL   H150 4524   4.749   3.727   5.016  0.5698 -1.2986  0.4929
   28MOL   H151 4525   4.880   3.831   5.060  0.2424  1.5382 -0.4305
   28MOL   H152 4526   4.662   3.950   5.194  1.4154  0.3376 -0.1209
   28MOL   H153 4527   4.607   3.910   5.037 -0.6298  4.0720 -0.7801
   28MOL   C154 4528   4.688   4.161   4.983  1.2582  0.4522  0.1260
   28MOL   C155 4529   4.741   4.222   4.856  0.1840  0.0168  0.8380
   28MOL   C156 4530   4.716   4.123   4.737 -0.0005 -0.3533  0.3519
   28MOL   O157 4531   4.626   4.039   4.737 -0.3754 -0.2817  0.0367
   28MOL   H158 4532   4.682   4.252   5.044 -3.0545 -0.4291  1.2152
   28MOL   H159 4533   4.590   4.118   4.961  1.2097  1.0712 -0.9361
   28MOL   H160 4534   4.843   4.259   4.856 -0.7053  2.6074  2.2597
   28MOL   H161 4535   4.686   4.310   4.821 -0.1203  0.0567  1.4162
   28MOL   H162 4536   4.770   4.129   4.643 -1.2044  0.2993 -0.2998
   29MOL     C1 4537   3.026   0.843   4.808 -0.0662  0.1114 -0.1019
   29MOL     C2 4538   3.063   0.959   4.716 -0.0456 -0.4387 -0.7146
   29MOL     C3 4539   2.944   1.022   4.650  0.5101 -0.2611 -0.4894
   29MOL     O4 4540   2.825   0.988   4.675 -0.2068 -0.5823 -0.0832
   29MOL     H5 4541   3.119   0.793   4.836 -0.0617  0.0874 -0.1576
   29MOL     H6 4542   2.968   0.873   4.895  0.9691  2.5036 -0.2259
   29MOL     H7 4543   3.149   0.948   4.650  0.0473  1.1455 -0.8766
   29MOL     H8 4544   3.100   1.040   4.780 -2.0846  2.3007 -2.9140
   29MOL     H9 4545   2.971   0.768   4.750  2.5696 -0.5788 -1.8212
   29MOL    C10 4546   2.976   1.118   4.545 -0.8741 -0.0676 -0.3816
   29MOL    C11 4547   2.909   1.075   4.410  0.1324  0.1462  0.1105
   29MOL    C12 4548   3.017   1.052   4.304  0.5153 -0.2103 -0.0959
   29MOL    O13 4549   3.129   1.102   4.307  0.3079  0.8016  0.1707
   29MOL    H14 4550   3.083   1.135   4.539 -0.4709 -2.5275 -0.4462
   29MOL    H15 4551   2.939   1.211   4.588 -1.0546 -0.6600  0.7568
   29MOL    H16 4552   2.836   1.144   4.367  0.6971  0.4217 -0.4027
   29MOL    H17 4553   2.867   0.975   4.414  1.9320 -0.6577 -1.0023
   29MOL    C18 4554   2.977   0.963   4.186 -0.5778 -0.3043 -0.8359
   29MOL    C19 4555   3.063   0.991   4.062 -0.5984  0.1993  0.9364
   29MOL    C20 4556   2.978   1.019   3.945 -0.1243  0.4697 -0.3391
   29MOL    O21 4557   2.880   0.944   3.931  0.3063 -0.4072 -0.9479
   29MOL    H22 4558   2.872   0.982   4.164 -0.9752 -1.1748  0.2641
   29MOL    H23 4559   2.995   0.865   4.231  1.3963  0.5716  0.3406
   29MOL    H24 4560   3.125   0.903   4.046 -0.8098  0.2826 -0.4043
   29MOL    H25 4561   3.125   1.079   4.074 -1.4062  0.3630  4.3929
   29MOL    C26 4562   3.026   1.124   3.852  0.0715  0.8495 -0.2365
   29MOL    C27 4563   2.943   1.133   3.725  0.0053 -0.7461  0.0801
   29MOL    C28 4564   3.000   1.062   3.596 -0.2243  0.1847 -0.2179
   29MOL    O29 4565   3.063   0.964   3.604 -0.4060 -0.1436 -0.2198
   29MOL    H30 4566   3.129   1.093   3.835 -0.0153  0.7328 -0.5572
   29MOL    H31 4567   3.014   1.227   3.885  1.3150  1.0208 -0.3169
   29MOL    H32 4568   2.942   1.240   3.705 -1.5899 -0.5776  0.9822
   29MOL    H33 4569   2.840   1.099   3.722  0.0627 -0.9840  0.8222
   29MOL    C34 4570   2.976   1.133   3.465  0.1591  0.6876  0.3875
   29MOL    C35 4571   3.113   1.186   3.404 -0.3789  0.4243  0.4139
   29MOL    C36 4572   3.155   1.328   3.458  0.0802  0.7592 -0.2398
   29MOL    O37 4573   3.091   1.378   3.554 -0.0237  0.0854 -0.1336
   29MOL    H38 4574   2.896   1.202   3.490  0.3020  0.5764  1.1494
   29MOL    H39 4575   2.932   1.058   3.399  1.6067 -0.5865  0.8380
   29MOL    H40 4576   3.073   1.179   3.302 -0.1095 -4.0381  0.4921
   29MOL    H41 4577   3.190   1.109   3.401 -0.0569  0.7903 -2.6746
   29MOL    C42 4578   3.273   1.404   3.395  0.1439 -0.5939  0.5633
   29MOL    C43 4579   3.218   1.534   3.334 -0.5277 -1.1220  0.5640
   29MOL    C44 4580   3.168   1.524   3.186  0.3725 -0.3702 -0.4731
   29MOL    O45 4581   3.142   1.415   3.136 -0.1761  0.5452  0.4599
   29MOL    H46 4582   3.316   1.338   3.320  2.7987  1.4408  0.2023
   29MOL    H47 4583   3.351   1.438   3.463 -1.9828  3.9424  0.9303
   29MOL    H48 4584   3.292   1.613   3.347 -0.8705 -0.8307  0.7617
   29MOL    H49 4585   3.131   1.558   3.395  1.0737 -0.5947  2.7008
   29MOL    C50 4586   3.155   1.652   3.108  0.0388 -0.2986 -0.2130
   29MOL    C51 4587   3.112   1.633   2.966  0.4358 -0.6953 -0.4301
   29MOL    C52 4588   3.223   1.631   2.851  0.9230  0.4197  0.6228
   29MOL    O53 4589   3.345   1.619   2.872  0.4044  0.0852 -0.0572
   29MOL    H54 4590   3.249   1.707   3.112 -0.8303  1.2671 -0.7745
   29MOL    H55 4591   3.072   1.709   3.150 -2.1614 -1.7290 -2.4843
   29MOL    H56 4592   3.060   1.725   2.940  1.3154 -0.0502  0.0694
   29MOL    H57 4593   3.032   1.559   2.954 -0.9952  0.9051 -0.9307
   29MOL    C58 4594   3.180   1.651   2.706 -0.5547 -0.1540  0.0270
   29MOL    C59 4595   3.282   1.603   2.598  0.0688 -0.0211 -0.3246
   29MOL    C60 4596   3.261   1.663   2.459 -0.1693  0.0960  1.0709
   29MOL    O61 4597   3.203   1.770   2.443  0.2365  0.6757  0.2218
   29MOL    H62 4598   3.154   1.756   2.694  1.3151  0.2162 -0.9867
   29MOL    H63 4599   3.082   1.604   2.694  0.0630 -1.6762  0.8213
   29MOL    H64 4600   3.272   1.495   2.585 -1.7475  0.2200 -1.0450
   29MOL    H65 4601   3.376   1.630   2.646  0.5986  0.6342 -1.6939
   29MOL    C66 4602   3.322   1.595   2.335  0.3094 -0.1654  0.2379
   29MOL    C67 4603   3.349   1.686   2.216  0.7266 -0.3213  0.0514
   29MOL    C68 4604   3.496   1.689   2.169 -0.0893  0.1284  0.4784
   29MOL    O69 4605   3.567   1.588   2.156 -0.0184 -0.1667 -0.2780
   29MOL    H70 4606   3.256   1.514   2.303  2.2425 -2.8292  2.7096
   29MOL    H71 4607   3.415   1.547   2.367  0.5245  0.8404  1.1501
   29MOL    H72 4608   3.321   1.788   2.241  0.4921 -0.4246  0.2168
   29MOL    H73 4609   3.275   1.686   2.136  0.8065 -0.5343 -0.0229
   29MOL    C74 4610   3.552   1.828   2.144 -0.6795  0.3704  0.3604
   29MOL    C75 4611   3.705   1.847   2.147  0.2198  0.0713  0.3219
   29MOL    C76 4612   3.743   1.988   2.199 -0.0091 -0.2058  0.7148
   29MOL    O77 4613   3.702   2.086   2.143 -0.1156 -0.0172 -0.0988
   29MOL    H78 4614   3.511   1.909   2.205 -1.8269  0.8230 -0.9804
   29MOL    H79 4615   3.516   1.862   2.047  0.3500  0.0693 -0.1261
   29MOL    H80 4616   3.742   1.825   2.047 -2.0065 -0.7142 -0.3613
   29MOL    H81 4617   3.758   1.775   2.210 -1.8739 -0.0759  1.9583
   29MOL    C82 4618   3.819   2.006   2.329 -0.1941 -0.2043  0.8710
   29MOL    C83 4619   3.731   2.017   2.455 -0.3019  0.5585  0.7095
   29MOL    C84 4620   3.716   1.870   2.509  0.7922  0.0707  0.4932
   29MOL    O85 4621   3.660   1.777   2.450 -0.1187 -0.3916  0.5919
   29MOL    H86 4622   3.878   2.097   2.340 -2.0599  1.3287 -1.3266
   29MOL    H87 4623   3.893   1.926   2.335 -0.5563 -0.7124 -0.8961
   29MOL    H88 4624   3.637   2.067   2.434  0.0752  0.2127 -1.9333
   29MOL    H89 4625   3.788   2.076   2.527  0.3587 -2.4383  2.7395
   29MOL    C90 4626   3.765   1.854   2.658 -0.0300 -0.6826 -0.4923
   29MOL    C91 4627   3.827   1.717   2.688 -0.2618 -0.1034  0.7606
   29MOL    C92 4628   3.815   1.669   2.831  0.2239 -0.1851  0.3744
   29MOL    O93 4629   3.802   1.754   2.922 -0.3372  0.0136  0.0737
   29MOL    H94 4630   3.687   1.865   2.733 -1.0155  0.0904 -1.5988
   29MOL    H95 4631   3.826   1.939   2.687 -1.8591  0.5718 -0.2016
   29MOL    H96 4632   3.936   1.718   2.679 -0.1830 -1.9700  1.2513
   29MOL    H97 4633   3.804   1.640   2.614 -2.7179  0.2913  1.0677
   29MOL    C98 4634   3.812   1.522   2.856 -0.0486  0.6024  0.2533
   29MOL    C99 4635   3.682   1.466   2.932  0.8065  0.7587 -0.4192
   29MOL   C100 4636   3.699   1.459   3.085 -0.2458 -0.1869 -0.0251
   29MOL   O101 4637   3.807   1.479   3.133  0.1479 -0.3118  0.9161
   29MOL   H102 4638   3.897   1.490   2.918 -0.5282 -2.2773 -0.4918
   29MOL   H103 4639   3.821   1.466   2.763  0.4857 -1.3284  1.4258
   29MOL   H104 4640   3.643   1.370   2.899  1.0470  0.8054 -0.8473
   29MOL   H105 4641   3.605   1.542   2.917 -0.3379 -0.1350  0.8273
   29MOL   C106 4642   3.577   1.432   3.170  0.4604  0.1126 -0.6791
   29MOL   C107 4643   3.589   1.296   3.237 -0.0881 -0.3001  0.2278
   29MOL   C108 4644   3.641   1.311   3.378  0.3524  0.0373 -0.4836
   29MOL   O109 4645   3.569   1.363   3.470 -0.4059 -0.8441  0.0944
   29MOL   H110 4646   3.485   1.419   3.114  0.5770 -1.3794 -0.5408
   29MOL   H111 4647   3.565   1.509   3.246 -0.9051 -0.4500 -0.3208
   29MOL   H112 4648   3.651   1.230   3.176 -0.5247 -0.6608  0.1641
   29MOL   H113 4649   3.495   1.241   3.235 -1.2142  1.5935 -1.8030
   29MOL   C114 4650   3.782   1.278   3.407 -0.6031  0.0536 -0.8857
   29MOL   C115 4651   3.814   1.317   3.554 -0.4099 -0.3819 -0.1317
   29MOL   C116 4652   3.928   1.237   3.619 -0.2959 -0.1365 -0.1726
   29MOL   O117 4653   3.989   1.147   3.563 -0.0522 -0.1621 -0.4628
   29MOL   H118 4654   3.849   1.332   3.340  1.0272 -0.8668 -0.0520
   29MOL   H119 4655   3.783   1.169   3.400  1.0118 -0.0137  0.1638
   29MOL   H120 4656   3.729   1.322   3.621  0.5003 -1.1217  1.0983
   29MOL   H121 4657   3.846   1.422   3.548 -2.3549  0.2105 -0.3705
   29MOL   C122 4658   3.965   1.295   3.749  0.5706  0.2112 -0.2972
   29MOL   C123 4659   4.112   1.274   3.785  0.0139  0.2097  0.7588
   29MOL   C124 4660   4.146   1.326   3.927 -0.3294  0.6776  0.5247
   29MOL   O125 4661   4.063   1.390   3.993  0.3886  0.1409  0.4549
   29MOL   H126 4662   3.898   1.246   3.820 -0.1061  1.2163 -0.2299
   29MOL   H127 4663   3.942   1.401   3.747  1.1482  0.3476  0.1884
   29MOL   H128 4664   4.175   1.321   3.710  0.6245  0.0098  1.1447
   29MOL   H129 4665   4.139   1.169   3.786  2.7261  0.8624 -0.5585
   29MOL   C130 4666   4.279   1.279   3.982 -0.1574 -0.0660  0.1625
   29MOL   C131 4667   4.314   1.336   4.116  0.4225 -0.0939  0.3268
   29MOL   C132 4668   4.442   1.290   4.178 -0.5024 -0.3882 -0.0877
   29MOL   O133 4669   4.472   1.173   4.173  0.2959 -0.1358 -0.1867
   29MOL   H134 4670   4.355   1.303   3.907 -1.0963 -1.0978 -1.1567
   29MOL   H135 4671   4.281   1.171   3.973 -0.1595 -0.0219 -0.4330
   29MOL   H136 4672   4.236   1.311   4.188  0.6516  1.1562  1.0203
   29MOL   H137 4673   4.306   1.444   4.128  0.4173  0.1485 -1.6637
   29MOL   C138 4674   4.518   1.401   4.249  0.0859  0.4474  0.2280
   29MOL   C139 4675   4.667   1.386   4.243 -0.1653 -0.0775  0.0619
   29MOL   C140 4676   4.730   1.291   4.350 -0.0464  0.5483 -0.0267
   29MOL   O141 4677   4.677   1.270   4.459  0.0120  0.6434  0.5836
   29MOL   H142 4678   4.487   1.406   4.354  0.3591  0.1346  0.3250
   29MOL   H143 4679   4.513   1.502   4.209  1.1482  0.2495 -0.4074
   29MOL   H144 4680   4.706   1.487   4.260 -0.3826  0.7779 -4.0751
   29MOL   H145 4681   4.690   1.341   4.147  0.4122  2.2066 -0.9178
   29MOL   C146 4682   4.859   1.209   4.317  0.5400  0.0576 -0.3778
   29MOL   C147 4683   4.929   1.137   4.433 -0.3897 -0.0913 -0.2492
   29MOL   C148 4684   5.015   1.019   4.403 -0.1689  0.6019  0.2209
   29MOL   O149 4685   5.062   1.001   4.293 -0.2535  0.1862  0.6633
   29MOL   H150 4686   4.936   1.270   4.269 -1.0314 -1.2807 -4.7844
   29MOL   H151 4687   4.832   1.134   4.243  2.5183 -1.4855  0.4092
   29MOL   H152 4688   4.845   1.094   4.488 -0.0611 -0.5719 -0.1242
   29MOL   H153 4689   4.975   1.204   4.506  1.1255 -0.6425 -0.6779
   29MOL   C154 4690   5.030   0.915   4.513  0.7819  0.4642  0.1528
   29MOL   C155 4691   5.167   0.844   4.532 -0.2180  0.1547 -0.5085
   29MOL   C156 4692   5.227   0.879   4.667  0.5551 -0.2437 -0.0873
   29MOL   O157 4693   5.154   0.881   4.768  0.7326 -0.1337 -0.6258
   29MOL   H158 4694   4.956   0.837   4.500  1.4251 -0.2997  1.0232
   29MOL   H159 4695   5.003   0.972   4.602  0.1772  0.4464 -0.0173
   29MOL   H160 4696   5.225   0.887   4.451 -1.8934 -0.0110 -1.8338
   29MOL   H161 4697   5.153   0.738   4.509  0.1384  0.0790 -0.3733
   29MOL   H162 4698   5.331   0.911   4.673  0.5129 -0.2476  0.8256
   30MOL     C1 4699   6.567   1.917   1.445 -0.1927 -0.7106  0.0567
   30MOL     C2 4700   6.588   2.053   1.372 -0.7588  0.4509  0.0128
   30MOL     C3 4701   6.470   2.153   1.364  0.4856 -0.3020 -0.2863
   30MOL     O4 4702   6.349   2.119   1.384 -0.2852  0.6831  0.1995
   30MOL     H5 4703   6.624   1.844   1.387 -0.5695 -1.8369  1.0726
   30MOL     H6 4704   6.599   1.919   1.549  1.0402  0.3645 -0.3281
   30MOL     H7 4705   6.620   2.033   1.270  0.2337  2.2127 -0.0468
   30MOL     H8 4706   6.671   2.107   1.418  0.2443 -2.5156  1.8373
   30MOL     H9 4707   6.461   1.894   1.447  0.2633 -3.0365 -0.1857
   30MOL    C10 4708   6.505   2.295   1.307 -0.4108 -0.8161  0.1786
   30MOL    C11 4709   6.380   2.385   1.262 -0.3759 -0.2717 -0.3650
   30MOL    C12 4710   6.314   2.339   1.134  0.3238 -1.2248 -0.2155
   30MOL    O13 4711   6.385   2.297   1.046 -0.0049  0.2638 -0.1103
   30MOL    H14 4712   6.571   2.278   1.222  0.1191  3.4081 -0.3661
   30MOL    H15 4713   6.565   2.349   1.380 -0.9705 -0.2909  0.2567
   30MOL    H16 4714   6.411   2.489   1.258 -0.3610 -0.2585  0.1124
   30MOL    H17 4715   6.303   2.390   1.339  1.5970  2.8813  1.4638
   30MOL    C18 4716   6.165   2.360   1.114  0.0783  0.1095 -0.3325
   30MOL    C19 4717   6.110   2.249   1.014 -0.2099 -0.8749  0.1191
   30MOL    C20 4718   6.052   2.128   1.089  0.1049  0.4994 -0.3488
   30MOL    O21 4719   6.045   2.119   1.211  0.0316  0.1330  0.5094
   30MOL    H22 4720   6.150   2.457   1.068  1.3532  0.9582  1.0214
   30MOL    H23 4721   6.122   2.346   1.213 -0.3054 -0.7341 -0.6077
   30MOL    H24 4722   6.189   2.224   0.943  0.3762  1.0891  0.0513
   30MOL    H25 4723   6.038   2.298   0.949 -1.4673 -3.0926 -0.2078
   30MOL    C26 4724   5.991   2.022   1.002  0.4030 -0.0975 -1.1327
   30MOL    C27 4725   5.885   1.938   1.083  0.4261 -0.0056  1.0131
   30MOL    C28 4726   5.748   1.942   1.029  0.3646  0.1997 -0.4545
   30MOL    O29 4727   5.724   2.012   0.929  0.2741  0.2955 -0.1451
   30MOL    H30 4728   6.073   1.956   0.977 -0.1081 -0.9256 -0.6290
   30MOL    H31 4729   5.949   2.070   0.913  1.1696  0.8311 -1.0015
   30MOL    H32 4730   5.877   1.972   1.186 -2.6096  0.5704  0.6229
   30MOL    H33 4731   5.910   1.833   1.066 -0.3538 -0.2373  1.3082
   30MOL    C34 4732   5.638   1.852   1.095 -0.2452 -0.2176  0.4741
   30MOL    C35 4733   5.502   1.903   1.034  0.0377 -0.2465  0.0548
   30MOL    C36 4734   5.457   1.841   0.899  0.4919  0.3872  0.6553
   30MOL    O37 4735   5.496   1.732   0.860  0.6739  0.0399 -0.3339
   30MOL    H38 4736   5.628   1.871   1.201 -0.1445  1.5798  0.1737
   30MOL    H39 4737   5.659   1.746   1.076 -1.2127 -0.1115 -1.3274
   30MOL    H40 4738   5.505   2.006   1.000 -0.0163 -0.3303 -0.2077
   30MOL    H41 4739   5.423   1.893   1.109  0.3416 -0.2715  0.3730
   30MOL    C42 4740   5.353   1.912   0.822  0.2171 -0.3774 -0.1610
   30MOL    C43 4741   5.319   1.846   0.688  0.0209  0.6032 -0.0297
   30MOL    C44 4742   5.195   1.759   0.688  0.5433 -0.8278 -0.7060
   30MOL    O45 4743   5.120   1.763   0.785 -0.6663  0.2966 -0.6170
   30MOL    H46 4744   5.398   2.009   0.801  0.7968 -0.9555 -1.5892
   30MOL    H47 4745   5.266   1.933   0.886 -0.2863  2.8885 -1.8015
   30MOL    H48 4746   5.389   1.776   0.642 -1.6733 -0.7787 -0.5891
   30MOL    H49 4747   5.304   1.923   0.612  2.1977  0.1256 -0.9825
   30MOL    C50 4748   5.175   1.657   0.569 -0.1017 -0.7524 -0.8506
   30MOL    C51 4749   5.247   1.521   0.590  0.3506 -0.2391  0.3588
   30MOL    C52 4750   5.325   1.487   0.463 -0.2250  0.2469  0.0436
   30MOL    O53 4751   5.448   1.463   0.458 -0.3979 -0.3219  0.6739
   30MOL    H54 4752   5.215   1.705   0.480  0.8923  0.5468  0.2545
   30MOL    H55 4753   5.068   1.641   0.573 -0.0740 -0.5759  1.6117
   30MOL    H56 4754   5.175   1.443   0.613  1.6337 -0.5838  3.4631
   30MOL    H57 4755   5.319   1.529   0.672  3.3585 -3.1574 -1.8549
   30MOL    C58 4756   5.246   1.464   0.339 -0.0290 -0.7523 -0.0549
   30MOL    C59 4757   5.325   1.427   0.211  0.2326 -0.1209 -0.0031
   30MOL    C60 4758   5.243   1.353   0.102  0.0446 -0.4480 -0.2063
   30MOL    O61 4759   5.143   1.282   0.133 -0.2452  0.7724  0.5574
   30MOL    H62 4760   5.186   1.552   0.318  0.5700 -0.0169  1.2620
   30MOL    H63 4761   5.174   1.383   0.353  0.5560 -1.0766  1.1054
   30MOL    H64 4762   5.410   1.362   0.230  1.8032  1.8391 -0.1366
   30MOL    H65 4763   5.363   1.521   0.171 -2.0394  0.4578 -0.8598
   30MOL    C66 4764   5.297   1.366   7.816 -0.6440  1.3330 -0.4511
   30MOL    C67 4765   5.190   1.367   7.704  0.1731  0.5656  0.4200
   30MOL    C68 4766   5.149   1.501   7.644 -0.0854 -0.5873  0.2366
   30MOL    O69 4767   5.192   1.604   7.698  0.2368  0.1865 -0.7876
   30MOL    H70 4768   5.360   1.280   7.794 -2.2113  0.5285 -1.9708
   30MOL    H71 4769   5.372   1.445   7.819  0.2016  0.6073 -2.1057
   30MOL    H72 4770   5.098   1.324   7.745 -0.1894  0.1124 -0.8634
   30MOL    H73 4771   5.225   1.313   7.617  1.4836  0.7336  0.8322
   30MOL    C74 4772   5.051   1.518   7.521  0.5177 -0.6231  0.3863
   30MOL    C75 4773   5.097   1.635   7.433  0.3507 -0.3636 -0.6877
   30MOL    C76 4774   5.220   1.602   7.344 -0.2536  0.2223 -0.8087
   30MOL    O77 4775   5.325   1.559   7.396  0.3001 -0.1178  0.1967
   30MOL    H78 4776   4.953   1.538   7.565 -0.4419 -1.8631 -1.1219
   30MOL    H79 4777   5.039   1.420   7.475 -2.4547 -0.4937  0.7416
   30MOL    H80 4778   5.116   1.729   7.485 -2.2779  0.3506 -0.9172
   30MOL    H81 4779   5.021   1.660   7.358 -1.7529  2.7420  2.2946
   30MOL    C82 4780   5.221   1.649   7.200  0.2453  0.5667 -0.0488
   30MOL    C83 4781   5.353   1.630   7.130 -0.0062 -0.8933  0.0148
   30MOL    C84 4782   5.436   1.759   7.113  0.5868  0.0331 -1.0803
   30MOL    O85 4783   5.386   1.864   7.069  0.0315  0.0136  0.2184
   30MOL    H86 4784   5.186   1.752   7.202 -0.5019  0.3562 -1.5222
   30MOL    H87 4785   5.148   1.592   7.142  0.8270  0.3607 -0.5895
   30MOL    H88 4786   5.335   1.592   7.030  2.8626 -2.2908 -0.0129
   30MOL    H89 4787   5.431   1.561   7.162  0.0901 -1.1452 -0.7604
   30MOL    C90 4788   5.591   1.770   7.148 -0.4249 -0.7814 -0.5630
   30MOL    C91 4789   5.618   1.838   7.282 -0.1277  0.1051 -0.4214
   30MOL    C92 4790   5.637   1.744   7.403 -0.1085 -0.0927  0.0260
   30MOL    O93 4791   5.675   1.624   7.390  0.1379  0.1946  0.1713
   30MOL    H94 4792   5.641   1.826   7.069 -0.6469 -0.7492 -0.6824
   30MOL    H95 4793   5.624   1.666   7.156 -1.2376 -1.0910 -1.1229
   30MOL    H96 4794   5.556   1.924   7.306 -0.0449  0.8597 -2.7334
   30MOL    H97 4795   5.717   1.881   7.265 -1.2488  2.4183 -1.3043
   30MOL    C98 4796   5.591   1.793   7.542  0.6654  0.3673  0.7101
   30MOL    C99 4797   5.575   1.688   7.658  0.3530  0.0836  0.7481
   30MOL   C100 4798   5.603   1.746   7.798  0.2795 -0.3708 -0.2804
   30MOL   O101 4799   5.649   1.860   7.809  0.1400  0.5138 -0.7056
   30MOL   H102 4800   5.493   1.839   7.530  0.1747 -0.7840  0.2200
   30MOL   H103 4801   5.667   1.866   7.570 -0.3672  2.1971 -1.1281
   30MOL   H104 4802   5.647   1.607   7.646  0.1238 -0.1344  0.8536
   30MOL   H105 4803   5.473   1.648   7.657  0.9089 -1.3787  0.7650
   30MOL   C106 4804   5.554   1.659   0.051 -0.0123 -0.2448 -0.1046
   30MOL   C107 4805   5.619   1.683   0.188 -0.2995 -0.4006  0.0930
   30MOL   C108 4806   5.527   1.751   0.287  0.1211  0.2479  0.5333
   30MOL   O109 4807   5.405   1.766   0.267 -0.4840 -0.1184 -0.5566
   30MOL   H110 4808   5.565   1.557   0.012  1.9825  0.1416 -0.6059
   30MOL   H111 4809   5.447   1.676   0.052 -0.0138 -0.1324  2.5336
   30MOL   H112 4810   5.716   1.730   0.171 -0.4561  0.8049  2.3232
   30MOL   H113 4811   5.647   1.592   0.241  0.5810 -0.7377 -0.9515
   30MOL   C114 4812   5.591   1.819   0.406  0.5962  0.4207 -0.4369
   30MOL   C115 4813   5.657   1.943   0.355 -0.1939  0.1359 -0.0106
   30MOL   C116 4814   5.567   2.064   0.343 -0.1698 -0.5126  0.1810
   30MOL   O117 4815   5.453   2.070   0.389 -0.0564  0.1691 -0.2687
   30MOL   H118 4816   5.678   1.761   0.436 -0.0283 -1.0328 -1.4173
   30MOL   H119 4817   5.519   1.849   0.482  1.3005  1.8235 -0.3121
   30MOL   H120 4818   5.695   1.925   0.254 -0.4034  2.3262 -0.5173
   30MOL   H121 4819   5.734   1.970   0.427 -0.9684 -0.0162  0.8703
   30MOL   C122 4820   5.626   2.163   0.246 -0.2578 -0.5155  0.1469
   30MOL   C123 4821   5.575   2.301   0.285  0.3462  0.1710 -0.6522
   30MOL   C124 4822   5.640   2.412   0.194 -0.4910 -0.3359  0.4903
   30MOL   O125 4823   5.716   2.384   0.102  0.2889  0.4311 -0.4640
   30MOL   H126 4824   5.596   2.127   0.148 -2.0177  1.3025 -0.0303
   30MOL   H127 4825   5.734   2.159   0.261 -0.2131  0.6755  0.1922
   30MOL   H128 4826   5.590   2.320   0.391 -0.6560  1.0572 -0.6596
   30MOL   H129 4827   5.471   2.290   0.255  0.7964  0.0354 -2.2427
   30MOL   C130 4828   5.608   2.558   0.229  0.3003  0.0156 -0.0601
   30MOL   C131 4829   5.463   2.587   0.184 -0.4447 -0.2112  0.0988
   30MOL   C132 4830   5.351   2.570   0.296  0.1900  0.0412 -0.3655
   30MOL   O133 4831   5.382   2.540   0.409  0.6054  0.5527 -0.4674
   30MOL   H134 4832   5.679   2.621   0.175  0.5308 -0.1515  0.0460
   30MOL   H135 4833   5.624   2.558   0.337  1.3441  0.3577 -0.2124
   30MOL   H136 4834   5.429   2.524   0.101 -2.3198  0.0025  0.6842
   30MOL   H137 4835   5.453   2.691   0.152 -1.3493 -1.0648 -2.5440
   30MOL   C138 4836   5.204   2.604   0.265 -0.2028 -0.4426 -0.2649
   30MOL   C139 4837   5.128   2.476   0.239 -0.2788 -0.1942  0.6114
   30MOL   C140 4838   5.103   2.448   0.092  0.1949  0.1332 -0.6697
   30MOL   O141 4839   5.167   2.497   7.858  0.1513  0.1553 -0.2111
   30MOL   H142 4840   5.198   2.678   0.184  0.6013 -0.3242 -0.2160
   30MOL   H143 4841   5.164   2.648   0.356 -3.8135  0.3283 -2.1223
   30MOL   H144 4842   5.035   2.487   0.293 -0.0158  1.3838  0.7817
   30MOL   H145 4843   5.168   2.385   0.282 -0.8028 -1.0877 -0.7545
   30MOL   C146 4844   4.986   2.341   0.057 -0.0358  0.2309 -0.0648
   30MOL   C147 4845   4.945   2.342   7.765 -0.1712 -0.2099  0.2896
   30MOL   C148 4846   4.800   2.328   7.750 -0.3197 -0.1656  0.3922
   30MOL   O149 4847   4.744   2.224   7.782 -0.0375 -0.0780  0.6318
   30MOL   H150 4848   4.903   2.381   0.116 -1.5274 -2.9539  0.1016
   30MOL   H151 4849   5.001   2.240   0.094 -0.7916  0.1028 -0.1060
   30MOL   H152 4850   5.000   2.256   7.728 -3.0221 -1.4937 -1.1446
   30MOL   H153 4851   4.979   2.436   7.723  1.2938 -0.9504 -0.1935
   30MOL   C154 4852   4.716   2.424   7.662  0.7119 -0.0758  0.6705
   30MOL   C155 4853   4.685   2.351   7.529 -0.4688 -0.0794 -0.6332
   30MOL   C156 4854   4.541   2.310   7.515 -0.6185  0.2754  0.1947
   30MOL   O157 4855   4.452   2.385   7.554  0.1039  0.3092 -0.1301
   30MOL   H158 4856   4.776   2.510   7.633 -1.5048  1.7073  1.2320
   30MOL   H159 4857   4.629   2.458   7.717 -0.3085 -0.4380 -0.6777
   30MOL   H160 4858   4.749   2.266   7.508  0.5608  1.0292 -2.0882
   30MOL   H161 4859   4.710   2.425   7.453  3.3860  0.3474  0.9714
   30MOL   H162 4860   4.516   2.216   7.465  2.2365 -0.5025  0.1420
   31MOL     C1 4861   1.420   3.494   4.660  0.4902  0.1714 -0.6046
   31MOL     C2 4862   1.369   3.470   4.803 -0.1660 -0.4408  0.3691
   31MOL     C3 4863   1.357   3.324   4.838  0.0827  0.1680  0.5836
   31MOL     O4 4864   1.443   3.247   4.809  0.2517  0.1342 -0.1656
   31MOL     H5 4865   1.434   3.597   4.629 -3.2790  1.1866  0.7567
   31MOL     H6 4866   1.521   3.453   4.647  0.0998 -1.2774  0.7154
   31MOL     H7 4867   1.274   3.522   4.816 -0.6731 -1.2044 -0.2640
   31MOL     H8 4868   1.431   3.518   4.879  0.5450 -2.5890  1.1938
   31MOL     H9 4869   1.360   3.439   4.587 -2.6596  0.7488  1.4666
   31MOL    C10 4870   1.239   3.279   4.926  0.5360 -0.4436  0.6545
   31MOL    C11 4871   1.226   3.123   4.946  0.5221 -0.1150  0.3106
   31MOL    C12 4872   1.087   3.068   4.940  0.9428 -0.0941  0.3522
   31MOL    O13 4873   0.994   3.144   4.908 -0.2800  0.5051  0.2492
   31MOL    H14 4874   1.149   3.327   4.888 -0.7936 -3.9294 -0.8737
   31MOL    H15 4875   1.255   3.318   5.026  1.2988  0.4295  0.1981
   31MOL    H16 4876   1.262   3.091   5.044 -0.3385 -0.4021  0.5429
   31MOL    H17 4877   1.280   3.075   4.865  1.0701 -1.5279  1.4960
   31MOL    C18 4878   1.067   2.917   4.957 -0.1202 -0.1442 -0.2448
   31MOL    C19 4879   0.936   2.872   4.890  0.0380  0.0837 -0.2200
   31MOL    C20 4880   0.930   2.719   4.874  0.3666 -0.8812  0.4402
   31MOL    O21 4881   1.016   2.646   4.912 -0.7850  0.1366 -0.6659
   31MOL    H22 4882   1.072   2.896   5.064 -0.7530 -1.2706 -0.4340
   31MOL    H23 4883   1.149   2.855   4.922 -0.3147 -1.3502  1.3431
   31MOL    H24 4884   0.926   2.915   4.791  2.2415 -1.2148 -1.0495
   31MOL    H25 4885   0.842   2.891   4.942  0.6235  1.3378  0.3740
   31MOL    C26 4886   0.818   2.666   4.795  0.5691 -0.3181  0.3073
   31MOL    C27 4887   0.823   2.515   4.760 -0.1345 -0.2707  0.5226
   31MOL    C28 4888   0.773   2.427   4.872 -0.3541  0.1554 -0.0960
   31MOL    O29 4889   0.760   2.470   4.989 -0.3694  0.1359  0.4654
   31MOL    H30 4890   0.801   2.723   4.703  1.2243  0.8822  0.9154
   31MOL    H31 4891   0.722   2.683   4.843 -0.7949 -0.0359 -2.4003
   31MOL    H32 4892   0.923   2.478   4.738 -0.4922 -1.2003  0.4063
   31MOL    H33 4893   0.767   2.497   4.668 -0.2562  0.5301  0.4393
   31MOL    C34 4894   0.731   2.285   4.840  0.3465 -0.3975  0.4234
   31MOL    C35 4895   0.770   2.185   4.947 -0.1471 -0.3897 -0.3239
   31MOL    C36 4896   0.885   2.092   4.902 -0.1993 -0.1810  0.0018
   31MOL    O37 4897   1.001   2.140   4.892 -0.0508  0.1871 -0.0712
   31MOL    H38 4898   0.779   2.252   4.748  3.1441 -2.9641  2.7049
   31MOL    H39 4899   0.625   2.283   4.813  0.4852  0.3934 -0.2086
   31MOL    H40 4900   0.676   2.131   4.965 -0.3634  0.7152  2.0180
   31MOL    H41 4901   0.801   2.238   5.037 -0.2701  1.7428 -1.4989
   31MOL    C42 4902   0.850   1.944   4.868 -0.5973 -0.0604  0.1550
   31MOL    C43 4903   0.923   1.870   4.753 -0.9137 -0.3229 -0.3071
   31MOL    C44 4904   0.928   1.719   4.770  0.3732  0.1588 -0.2430
   31MOL    O45 4905   0.857   1.666   4.853 -0.1018  0.2709  0.1593
   31MOL    H46 4906   0.741   1.943   4.858 -0.4041  1.4780 -2.2155
   31MOL    H47 4907   0.857   1.885   4.960 -2.4278  1.4395  1.3016
   31MOL    H48 4908   1.027   1.900   4.747 -1.1194  0.0936 -2.0106
   31MOL    H49 4909   0.886   1.894   4.653 -0.1053  3.2809  0.1926
   31MOL    C50 4910   1.021   1.641   4.673 -0.4764  0.8031 -0.1922
   31MOL    C51 4911   0.996   1.492   4.665 -0.1668 -0.0411  0.2120
   31MOL    C52 4912   1.032   1.410   4.786 -0.6416  1.0033  0.2877
   31MOL    O53 4913   1.101   1.465   4.875 -0.1627  0.3789 -0.1089
   31MOL    H54 4914   1.125   1.648   4.705 -0.0390 -2.5418 -0.6640
   31MOL    H55 4915   1.010   1.672   4.569 -1.0431 -0.5767 -0.5691
   31MOL    H56 4916   1.052   1.452   4.580  1.8909  1.4277  0.8326
   31MOL    H57 4917   0.893   1.470   4.641 -0.3067  0.6052  0.1964
   31MOL    C58 4918   1.000   1.253   4.798  0.3911  0.2187 -0.4290
   31MOL    C59 4919   1.049   1.191   4.931 -0.1021  0.2435  0.5431
   31MOL    C60 4920   1.166   1.086   4.910  0.5571  0.3908  0.6963
   31MOL    O61 4921   1.207   1.067   4.800 -0.4444 -0.1741 -0.2656
   31MOL    H62 4922   1.021   1.205   4.703 -0.6906  0.2015 -0.6703
   31MOL    H63 4923   0.891   1.259   4.801  0.4947  1.5031  2.2413
   31MOL    H64 4924   0.966   1.142   4.982  0.0691  1.1997  1.7807
   31MOL    H65 4925   1.079   1.261   5.010 -0.5831  0.3284  0.6511
   31MOL    C66 4926   1.226   1.017   5.034 -0.0397  0.1269  0.0032
   31MOL    C67 4927   1.320   0.896   4.998  0.2192  0.0323 -0.3674
   31MOL    C68 4928   1.249   0.756   4.986  0.1219 -0.0165 -0.1369
   31MOL    O69 4929   1.199   0.703   5.083  0.0373 -0.1567 -0.1597
   31MOL    H70 4930   1.144   0.981   5.096  0.0992  0.0645  0.1511
   31MOL    H71 4931   1.273   1.092   5.096  2.3012 -1.0333 -0.3297
   31MOL    H72 4932   1.389   0.886   5.081 -2.5270 -2.3267  1.7664
   31MOL    H73 4933   1.378   0.925   4.910  2.0788 -0.3779  0.7151
   31MOL    C74 4934   1.246   0.679   4.848  0.2231  0.1029 -0.4898
   31MOL    C75 4935   1.314   0.535   4.858  0.2764 -0.3223  0.1984
   31MOL    C76 4936   1.213   0.434   4.907  1.1691  0.2323  0.4888
   31MOL    O77 4937   1.096   0.429   4.860  0.1115  0.9286  0.7129
   31MOL    H78 4938   1.310   0.735   4.778  1.2749 -3.5318 -2.5512
   31MOL    H79 4939   1.143   0.680   4.813 -0.0473  1.6228  0.3017
   31MOL    H80 4940   1.403   0.525   4.920  0.5635 -0.2271 -0.1938
   31MOL    H81 4941   1.340   0.496   4.759  0.7104  1.7789 -0.5528
   31MOL    C82 4942   1.263   0.328   5.002  0.3986  0.0368 -0.4973
   31MOL    C83 4943   1.242   0.191   4.935  0.2489  0.5859 -0.1135
   31MOL    C84 4944   1.253   0.069   5.029 -0.5397 -0.4137 -0.3012
   31MOL    O85 4945   1.328   0.075   5.126 -0.1253 -0.0243 -0.8181
   31MOL    H86 4946   1.209   0.347   5.095  0.4367  1.0256 -0.6762
   31MOL    H87 4947   1.370   0.342   5.016  0.4519  0.2169 -1.0493
   31MOL    H88 4948   1.305   0.182   4.847 -3.2117 -1.8064 -2.5084
   31MOL    H89 4949   1.152   0.192   4.872  0.9074  1.3522 -1.0641
   31MOL    C90 4950   1.172   7.800   4.994 -0.6779 -0.1949  0.5424
   31MOL    C91 4951   1.272   7.679   4.974 -0.4399  0.0401  0.3924
   31MOL    C92 4952   1.250   7.595   4.845  0.5803  0.4943  0.6410
   31MOL    O93 4953   1.186   7.634   4.747  0.5138  0.0547  0.0657
   31MOL    H94 4954   1.118   7.809   4.900 -0.4658 -0.4208  0.3985
   31MOL    H95 4955   1.096   7.778   5.069 -0.0007  0.1878  1.3496
   31MOL    H96 4956   1.257   7.614   5.060 -1.1730 -0.7200 -0.3012
   31MOL    H97 4957   1.374   7.718   4.970  0.7760 -2.6734  2.9087
   31MOL    C98 4958   1.310   7.459   4.853  0.2675  0.0952  0.9697
   31MOL    C99 4959   1.297   7.376   4.724 -0.5501 -0.0409  0.3766
   31MOL   C100 4960   1.315   7.226   4.745  0.0255 -1.2149  0.9166
   31MOL   O101 4961   1.335   7.188   4.856  0.3823 -0.2641 -0.1477
   31MOL   H102 4962   1.255   7.401   4.926  1.7869 -1.4699  0.8860
   31MOL   H103 4963   1.409   7.473   4.897  1.0987 -1.8034 -0.2313
   31MOL   H104 4964   1.364   7.406   4.643  0.3656  0.8492  1.4615
   31MOL   H105 4965   1.193   7.384   4.693 -0.2801 -0.1912 -0.6000
   31MOL   C106 4966   1.292   7.135   4.625  0.2065  0.5647  0.4753
   31MOL   C107 4967   1.328   6.988   4.652 -0.1841 -0.0160 -0.0170
   31MOL   C108 4968   1.348   6.887   4.541  0.0374 -1.0722 -0.5410
   31MOL   O109 4969   1.376   6.928   4.427  0.6110 -0.2307 -0.5558
   31MOL   H110 4970   1.354   7.170   4.543 -0.8378  0.6018 -0.3059
   31MOL   H111 4971   1.187   7.131   4.594 -0.3070  0.1903  2.1936
   31MOL   H112 4972   1.254   6.938   4.716 -2.0412  3.1186  0.3841
   31MOL   H113 4973   1.424   6.986   4.704  0.9911  3.5103 -1.8998
   31MOL   C114 4974   1.312   6.744   4.572 -0.2210 -0.3300  0.2107
   31MOL   C115 4975   1.382   6.640   4.494  0.3605  0.0244  0.2555
   31MOL   C116 4976   1.392   6.505   4.564  0.0192 -0.3278 -0.4827
   31MOL   O117 4977   1.361   6.486   4.682 -0.3667 -0.1705 -0.2591
   31MOL   H118 4978   1.207   6.743   4.543 -0.2954  1.5680  0.3269
   31MOL   H119 4979   1.320   6.721   4.678  2.7991 -0.1019  0.0679
   31MOL   H120 4980   1.477   6.674   4.452 -0.5043  0.2003 -1.6364
   31MOL   H121 4981   1.330   6.607   4.404  0.8374 -0.4326  0.1433
   31MOL   C122 4982   1.466   6.396   4.485  0.4390 -0.7964  0.0917
   31MOL   C123 4983   1.489   6.270   4.573 -1.0063 -0.0181 -0.2231
   31MOL   C124 4984   1.507   6.149   4.481  0.4474  0.0368  0.3683
   31MOL   O125 4985   1.420   6.120   4.398  0.2656 -0.5017  0.4503
   31MOL   H126 4986   1.554   6.444   4.442 -1.2149  0.9567 -1.3615
   31MOL   H127 4987   1.391   6.381   4.407  0.1543  1.4582 -0.0928
   31MOL   H128 4988   1.417   6.255   4.653  0.1714  0.2174  0.8944
   31MOL   H129 4989   1.587   6.278   4.621 -1.2313  1.1563  0.0509
   31MOL   C130 4990   1.631   6.070   4.494 -0.6690 -0.1810  0.0798
   31MOL   C131 4991   1.620   5.926   4.435 -0.0908 -0.6214 -0.0780
   31MOL   C132 4992   1.675   5.917   4.288  0.2487 -0.1735 -0.0528
   31MOL   O133 4993   1.760   5.994   4.245  0.2681 -0.1461  0.5353
   31MOL   H134 4994   1.664   6.072   4.598 -0.0755  1.1297 -0.1210
   31MOL   H135 4995   1.709   6.120   4.437 -0.6590 -0.6003 -0.2757
   31MOL   H136 4996   1.519   5.884   4.438 -0.3046 -0.1559 -0.8207
   31MOL   H137 4997   1.667   5.850   4.498 -0.0176  0.0019  0.6319
   31MOL   C138 4998   1.615   5.815   4.194  0.8053  0.3097  0.3694
   31MOL   C139 4999   1.697   5.684   4.173 -0.4507  0.2453 -0.0084
   31MOL   C140 5000   1.612   5.563   4.190  0.3452  0.8705 -0.9337
   31MOL   O141 5001   1.520   5.554   4.269 -0.2036 -0.2809 -0.1145
   31MOL   H142 5002   1.598   5.861   4.097  2.2807 -2.7220 -1.3935
   31MOL   H143 5003   1.510   5.803   4.224  1.0258  0.7009  1.3378
   31MOL   H144 5004   1.783   5.690   4.240 -0.9670  0.1575  0.6616
   31MOL   H145 5005   1.728   5.698   4.069  0.7017  5.2117  0.8555
   31MOL   C146 5006   1.663   5.439   4.111  0.3583 -0.0486 -0.1568
   31MOL   C147 5007   1.571   5.322   4.117  0.2742  0.7699 -0.1712
   31MOL   C148 5008   1.645   5.188   4.124 -0.1314  0.0131 -0.5051
   31MOL   O149 5009   1.761   5.177   4.089 -0.3626 -0.2675 -0.1800
   31MOL   H150 5010   1.756   5.418   4.163  0.2824  1.4238  0.6092
   31MOL   H151 5011   1.678   5.473   4.009 -2.8703 -1.9854 -1.3376
   31MOL   H152 5012   1.512   5.320   4.026 -1.0359  0.4561  0.6822
   31MOL   H153 5013   1.498   5.331   4.198  0.4093 -1.6393  0.2370
   31MOL   C154 5014   1.560   5.069   4.157  0.6239  0.0959  0.2887
   31MOL   C155 5015   1.628   4.929   4.173 -0.3735  0.2504  0.2944
   31MOL   C156 5016   1.582   4.831   4.072 -0.6196  0.0543 -0.0743
   31MOL   O157 5017   1.565   4.857   3.956  0.1165 -0.1416 -0.6607
   31MOL   H158 5018   1.477   5.072   4.086 -0.3393  1.5882  1.4648
   31MOL   H159 5019   1.516   5.099   4.252  1.1448  0.7247  0.3383
   31MOL   H160 5020   1.633   4.897   4.277 -0.7528 -0.2280  0.1668
   31MOL   H161 5021   1.733   4.934   4.145 -0.7624  0.9112 -1.0782
   31MOL   H162 5022   1.564   4.730   4.109 -0.6977  0.1527  0.1566
   32MOL     C1 5023   1.160   2.749   5.351  0.2620 -0.6295 -0.3929
   32MOL     C2 5024   1.056   2.856   5.357  0.4786 -0.1802 -0.2637
   32MOL     C3 5025   0.933   2.800   5.431  0.0544 -0.5056  0.2818
   32MOL     O4 5026   0.853   2.723   5.377  0.1779  0.2119  0.1656
   32MOL     H5 5027   1.183   2.710   5.450  0.0941  0.2447 -0.0090
   32MOL     H6 5028   1.106   2.661   5.315 -0.1670 -0.4742 -0.1436
   32MOL     H7 5029   1.029   2.882   5.255  1.1213  1.0174 -0.1369
   32MOL     H8 5030   1.091   2.952   5.396  2.7779 -1.4930  1.0379
   32MOL     H9 5031   1.248   2.778   5.294  0.0945  1.0895  0.2034
   32MOL    C10 5032   0.913   2.846   5.575 -0.1135 -0.0945 -0.3674
   32MOL    C11 5033   0.780   2.794   5.631  0.0682 -0.9255  0.3667
   32MOL    C12 5034   0.793   2.751   5.778  0.0564 -0.2817 -0.2020
   32MOL    O13 5035   0.829   2.827   5.866 -0.2749  0.6722 -0.5658
   32MOL    H14 5036   0.916   2.954   5.565 -0.1826 -0.2219 -1.8521
   32MOL    H15 5037   0.998   2.812   5.633  1.0782  3.7769  0.2544
   32MOL    H16 5038   0.735   2.713   5.574  0.8549 -1.0223 -0.1194
   32MOL    H17 5039   0.705   2.872   5.623  0.6758 -0.3590  0.1044
   32MOL    C18 5040   0.767   2.598   5.797  0.0122 -0.6283 -0.4963
   32MOL    C19 5041   0.757   2.551   5.947  0.7396 -0.0494 -0.6605
   32MOL    C20 5042   0.609   2.544   5.993 -0.3554  0.6186  0.0149
   32MOL    O21 5043   0.528   2.629   5.951 -0.4243 -0.3570  0.2619
   32MOL    H22 5044   0.847   2.539   5.751  1.1877  0.8081 -0.3182
   32MOL    H23 5045   0.678   2.569   5.742 -0.2941 -0.3999 -0.1210
   32MOL    H24 5046   0.814   2.599   6.027  2.9129 -0.9553 -1.6150
   32MOL    H25 5047   0.787   2.446   5.951 -0.1034 -0.2549  0.4119
   32MOL    C26 5048   0.575   2.443   6.095 -0.7966 -0.1004 -0.0374
   32MOL    C27 5049   0.446   2.466   6.166 -0.6451 -0.1300 -0.3002
   32MOL    C28 5050   0.464   2.483   6.314 -0.8506  0.0759  0.1131
   32MOL    O29 5051   0.507   2.380   6.374 -0.6026 -0.4529 -0.0919
   32MOL    H30 5052   0.664   2.422   6.153 -0.7958 -1.9341 -0.6606
   32MOL    H31 5053   0.568   2.353   6.034  3.2303 -1.7473  1.7556
   32MOL    H32 5054   0.396   2.369   6.166  3.3793 -2.3125 -0.0745
   32MOL    H33 5055   0.397   2.547   6.112 -1.3652  1.0941  2.1059
   32MOL    C34 5056   0.426   2.611   6.393  0.5540  0.0686  0.3443
   32MOL    C35 5057   0.446   2.593   6.539  0.0060  0.1035 -0.1019
   32MOL    C36 5058   0.572   2.658   6.589  0.4571  0.2963 -0.1601
   32MOL    O37 5059   0.659   2.682   6.517  0.3829 -0.2478  0.5639
   32MOL    H38 5060   0.319   2.627   6.376  0.0684 -0.0703  3.1589
   32MOL    H39 5061   0.489   2.685   6.344  0.6203 -0.4704 -0.3959
   32MOL    H40 5062   0.434   2.489   6.571 -1.6988  0.1973 -0.3631
   32MOL    H41 5063   0.356   2.635   6.584 -0.7122 -0.5371 -0.9150
   32MOL    C42 5064   0.580   2.697   6.735  0.4364  0.5694  0.3600
   32MOL    C43 5065   0.713   2.668   6.798 -0.5625  0.3941  0.4085
   32MOL    C44 5066   0.789   2.791   6.847  0.2612  0.5035 -0.0855
   32MOL    O45 5067   0.744   2.852   6.942  0.4949  0.0051 -0.9946
   32MOL    H46 5068   0.508   2.634   6.787  1.0664 -0.0313  0.5150
   32MOL    H47 5069   0.537   2.796   6.747  0.4782  0.6681 -0.2793
   32MOL    H48 5070   0.781   2.615   6.731 -1.3380 -1.6016  1.1692
   32MOL    H49 5071   0.690   2.600   6.879  0.8688  0.9162  1.2749
   32MOL    C50 5072   0.921   2.819   6.779  0.4141 -0.8893 -0.1358
   32MOL    C51 5073   0.976   2.969   6.816  0.2952  0.1798  0.1883
   32MOL    C52 5074   1.021   2.972   6.962  0.6339 -0.7879  0.2337
   32MOL    O53 5075   1.112   2.902   6.996 -0.6852 -0.0514 -0.7173
   32MOL    H54 5076   0.912   2.798   6.673  2.5349  1.9308 -0.9380
   32MOL    H55 5077   0.992   2.742   6.812 -1.1028 -0.8063  3.4967
   32MOL    H56 5078   0.908   3.053   6.803  0.2936  0.1252 -0.1488
   32MOL    H57 5079   1.063   2.980   6.751 -0.5985  1.1642 -0.8524
   32MOL    C58 5080   0.962   3.090   7.041 -0.1368  0.0934 -0.5113
   32MOL    C59 5081   0.970   3.076   7.190 -0.4129  0.0663 -0.0572
   32MOL    C60 5082   1.010   3.208   7.251 -0.2737  0.2435  0.1965
   32MOL    O61 5083   0.935   3.307   7.249 -0.3271 -0.2434  0.0465
   32MOL    H62 5084   0.858   3.110   7.017 -0.6481  0.1342  1.6927
   32MOL    H63 5085   1.015   3.177   7.005 -1.8478  2.4308  2.3847
   32MOL    H64 5086   1.044   3.005   7.225  2.4485  2.0888 -1.8130
   32MOL    H65 5087   0.869   3.048   7.222 -0.9593  0.7386 -1.1377
   32MOL    C66 5088   1.141   3.214   7.328  0.1262  0.3459 -0.3278
   32MOL    C67 5089   1.198   3.351   7.362  0.9858 -0.1216 -0.4302
   32MOL    C68 5090   1.261   3.359   7.504  0.1530  0.4939 -0.3180
   32MOL    O69 5091   1.345   3.276   7.539 -0.6562 -0.5540  0.1717
   32MOL    H70 5092   1.219   3.155   7.280 -1.7652 -1.2398 -1.5716
   32MOL    H71 5093   1.116   3.165   7.423  1.5459 -1.1064 -0.6784
   32MOL    H72 5094   1.118   3.424   7.357 -0.5901 -1.7693  0.3623
   32MOL    H73 5095   1.276   3.378   7.291 -0.4335 -0.3793 -2.1220
   32MOL    C74 5096   1.222   3.468   7.592 -0.4021 -0.3276 -0.4696
   32MOL    C75 5097   1.299   3.490   7.723 -0.2762 -0.2208  0.3591
   32MOL    C76 5098   1.223   3.431   7.840  0.3820  0.1034 -0.1110
   32MOL    O77 5099   1.184   3.495   0.085  0.3206  0.3481  0.5849
   32MOL    H78 5100   1.114   3.464   7.610 -0.0309 -3.4406  1.4392
   32MOL    H79 5101   1.248   3.555   7.531  0.6186 -0.8182 -0.7369
   32MOL    H80 5102   1.299   3.598   7.731  0.2424 -0.0511 -1.6047
   32MOL    H81 5103   1.402   3.454   7.720 -0.8645 -1.8342 -1.5279
   32MOL    C82 5104   1.203   3.278   7.832 -0.4725  0.0815 -0.0401
   32MOL    C83 5105   1.133   3.217   0.091  0.4343 -0.6510  0.0002
   32MOL    C84 5106   1.225   3.155   0.201  0.1844 -0.2302 -0.3303
   32MOL    O85 5107   1.339   3.113   0.173  0.0991  0.1612 -0.3760
   32MOL    H86 5108   1.305   3.241   7.831 -0.4398  0.1534  0.6671
   32MOL    H87 5109   1.161   3.257   7.733  1.1624  1.0925 -0.9715
   32MOL    H88 5110   1.051   3.152   0.060  0.6493 -0.8636 -0.1171
   32MOL    H89 5111   1.076   3.295   0.143  0.5990 -1.2202  1.0269
   32MOL    C90 5112   1.166   3.135   0.343  0.4164 -0.1913  0.0616
   32MOL    C91 5113   1.264   3.174   0.452 -0.0002 -0.5919 -0.3558
   32MOL    C92 5114   1.205   3.220   0.585  0.8387  0.0037  0.2081
   32MOL    O93 5115   1.083   3.215   0.600  0.2813 -1.2847 -0.0640
   32MOL    H94 5116   1.130   3.034   0.359 -1.5421  0.5776  0.5430
   32MOL    H95 5117   1.085   3.207   0.351 -0.4071 -0.9583 -1.2698
   32MOL    H96 5118   1.338   3.249   0.424 -1.7843  1.1970 -0.3241
   32MOL    H97 5119   1.328   3.092   0.486  1.0078  0.2256 -0.2565
   32MOL    C98 5120   1.302   3.263   0.690 -0.1424 -0.1612 -0.4127
   32MOL    C99 5121   1.227   3.323   0.812  0.2404  0.3162 -0.7682
   32MOL   C100 5122   1.274   3.269   0.942  0.3285  0.5071 -0.0260
   32MOL   O101 5123   1.301   3.150   0.963  0.2135 -0.6739 -0.0498
   32MOL   H102 5124   1.358   3.344   0.644 -1.3605  0.2922 -1.1143
   32MOL   H103 5125   1.366   3.180   0.718  0.7407  0.5820 -0.2006
   32MOL   H104 5126   1.118   3.311   0.813 -0.1269  3.1881 -1.3396
   32MOL   H105 5127   1.236   3.431   0.827  2.1477 -0.0632  1.0664
   32MOL   C106 5128   1.297   3.373   1.052 -1.1232  0.2097 -0.9535
   32MOL   C107 5129   1.305   3.312   1.188 -0.2643 -0.6512  0.2372
   32MOL   C108 5130   1.449   3.322   1.241  0.6575  0.4361  0.0214
   32MOL   O109 5131   1.471   3.393   1.339 -0.7176  0.2899  0.4121
   32MOL   H110 5132   1.208   3.437   1.053 -2.1070 -1.1389  0.2838
   32MOL   H111 5133   1.386   3.428   1.022 -1.1114  1.0834  0.6022
   32MOL   H112 5134   1.250   3.221   1.211  3.5472 -2.7855  1.4320
   32MOL   H113 5135   1.239   3.374   1.249  2.2644  1.8013  0.6163
   32MOL   C114 5136   1.567   3.249   1.176  0.3702  0.8643 -0.6354
   32MOL   C115 5137   1.698   3.248   1.253 -0.2696  0.1838  0.3043
   32MOL   C116 5138   1.772   3.378   1.242  0.6189 -0.5191  0.6588
   32MOL   O117 5139   1.838   3.408   1.142  0.5730 -0.1153  0.4281
   32MOL   H118 5140   1.571   3.307   1.084  2.0350 -0.3226 -1.3480
   32MOL   H119 5141   1.537   3.146   1.157  0.8199  0.1652  2.1861
   32MOL   H120 5142   1.753   3.166   1.208 -2.7627 -0.1484 -2.2940
   32MOL   H121 5143   1.675   3.223   1.357 -2.3076  0.8442  0.0443
   32MOL   C122 5144   1.766   3.466   1.362  1.0831 -0.3030 -0.7251
   32MOL   C123 5145   1.879   3.571   1.369  0.4779 -0.3161 -0.1191
   32MOL   C124 5146   1.841   3.709   1.298  0.0088 -0.6789 -0.4767
   32MOL   O125 5147   1.734   3.719   1.234  0.3966  0.2643 -0.0516
   32MOL   H126 5148   1.783   3.407   1.453  2.3925 -0.3342 -0.9795
   32MOL   H127 5149   1.666   3.505   1.378  1.4981 -0.1272  1.7329
   32MOL   H128 5150   1.971   3.539   1.321  1.0717  1.8850 -0.4710
   32MOL   H129 5151   1.897   3.595   1.473  1.2462 -1.1174 -0.0631
   32MOL   C130 5152   1.941   3.822   1.311 -0.1019 -0.0909 -0.6875
   32MOL   C131 5153   2.077   3.801   1.250  0.2485  0.0543 -0.5947
   32MOL   C132 5154   2.162   3.927   1.237  0.1518  0.0571  0.3426
   32MOL   O133 5155   2.252   3.949   1.319 -0.1332  0.1654  0.1006
   32MOL   H134 5156   1.947   3.859   1.413  0.7305 -2.0241 -0.0075
   32MOL   H135 5157   1.899   3.907   1.256  1.1812 -0.3125 -2.0445
   32MOL   H136 5158   2.069   3.760   1.150 -1.1365  1.0974 -0.9298
   32MOL   H137 5159   2.135   3.722   1.297  0.4079 -0.8722 -2.3570
   32MOL   C138 5160   2.120   4.019   1.121 -0.0344 -0.2777 -0.0086
   32MOL   C139 5161   2.242   4.026   1.024 -0.5412 -0.2207  0.1759
   32MOL   C140 5162   2.272   4.171   0.978  0.6376  0.7832 -0.0522
   32MOL   O141 5163   2.238   4.272   1.034  0.3965 -0.0890  0.1400
   32MOL   H142 5164   2.120   4.109   1.183  2.9556  0.7087 -1.3600
   32MOL   H143 5165   2.022   3.995   1.079  0.3778  1.3147 -1.9352
   32MOL   H144 5166   2.227   3.967   0.934 -1.6418  0.7158 -0.2712
   32MOL   H145 5167   2.338   4.000   1.069  0.5313  1.9029 -0.7740
   32MOL   C146 5168   2.363   4.174   0.861  0.3692 -0.4103  0.1752
   32MOL   C147 5169   2.290   4.253   0.748 -0.2753 -0.2942 -0.5645
   32MOL   C148 5170   2.239   4.158   0.637  0.6907  0.3012  0.5463
   32MOL   O149 5171   2.181   4.053   0.665  0.3527  0.2027  0.4967
   32MOL   H150 5172   2.381   4.073   0.825  0.1389 -0.0351 -1.0408
   32MOL   H151 5173   2.461   4.213   0.887 -0.2495 -0.6067  3.0266
   32MOL   H152 5174   2.347   4.328   0.694  0.5948 -1.1359 -0.8302
   32MOL   H153 5175   2.197   4.294   0.790  0.0132  0.7067 -0.8869
   32MOL   C154 5176   2.249   4.208   0.496  0.0818  0.3244  0.2008
   32MOL   C155 5177   2.155   4.127   0.400  0.6269  0.0531 -0.1555
   32MOL   C156 5178   2.227   4.013   0.335  0.3749  0.3263 -0.4141
   32MOL   O157 5179   2.336   3.974   0.371  0.6261 -0.2941  0.3471
   32MOL   H158 5180   2.353   4.224   0.468 -0.0957  1.8950  0.4137
   32MOL   H159 5181   2.219   4.312   0.503  0.7157  0.5989 -1.1485
   32MOL   H160 5182   2.119   4.198   0.325 -1.4441 -1.8853 -1.0608
   32MOL   H161 5183   2.056   4.095   0.434  1.3741 -2.7663 -0.5497
   32MOL   H162 5184   2.178   3.981   0.243 -0.2561  0.9492 -0.3033
   33MOL     C1 5185   2.269   5.738   7.219 -0.2586 -0.1004  0.5686
   33MOL     C2 5186   2.241   5.625   7.321  0.1820  0.3845  0.5746
   33MOL     C3 5187   2.366   5.559   7.384 -0.0601 -0.5154  0.1895
   33MOL     O4 5188   2.478   5.605   7.363  0.0259 -0.2789  0.2140
   33MOL     H5 5189   2.190   5.762   7.148 -0.7914 -1.6541  0.6168
   33MOL     H6 5190   2.309   5.834   7.254 -1.2549  0.1911  0.9096
   33MOL     H7 5191   2.171   5.552   7.281 -1.5724  1.3431  1.8232
   33MOL     H8 5192   2.192   5.671   7.407 -2.6496  0.5766 -1.0964
   33MOL     H9 5193   2.349   5.705   7.152 -1.3536 -0.3727 -0.6172
   33MOL    C10 5194   2.342   5.445   7.482 -0.2244  0.2366  0.2085
   33MOL    C11 5195   2.426   5.470   7.614  0.2707  0.4331  0.2685
   33MOL    C12 5196   2.344   5.524   7.731 -0.1828 -0.3111  0.0362
   33MOL    O13 5197   2.232   5.567   7.719  0.1522 -0.4175 -0.0998
   33MOL    H14 5198   2.366   5.349   7.438 -0.1939  0.5608 -0.4895
   33MOL    H15 5199   2.234   5.436   7.496 -0.5820  1.9875 -1.1447
   33MOL    H16 5200   2.509   5.535   7.588  0.0150  0.2719 -0.9587
   33MOL    H17 5201   2.480   5.379   7.637 -1.3873 -0.2465  1.5764
   33MOL    C18 5202   2.401   5.502   0.006 -0.7488  0.3412 -0.5539
   33MOL    C19 5203   2.373   5.618   0.106  0.5078  0.0921  0.2860
   33MOL    C20 5204   2.255   5.582   0.198  0.1628 -0.1008  0.2003
   33MOL    O21 5205   2.180   5.483   0.182 -0.6654 -0.1937  0.1866
   33MOL    H22 5206   2.507   5.487   7.846 -1.4514 -3.3048 -2.0503
   33MOL    H23 5207   2.368   5.403   0.037 -1.2550  1.1457  1.6071
   33MOL    H24 5208   2.337   5.703   0.049 -0.7944  0.7273  2.0010
   33MOL    H25 5209   2.466   5.653   0.150  0.9198 -1.1645  0.4445
   33MOL    C26 5210   2.227   5.684   0.310  0.1060  0.6316  0.8422
   33MOL    C27 5211   2.109   5.654   0.404  0.1588 -0.0019  0.1972
   33MOL    C28 5212   2.063   5.781   0.475 -0.0747  0.4901  0.0605
   33MOL    O29 5213   2.104   5.893   0.441  0.2605  0.3797 -0.3323
   33MOL    H30 5214   2.213   5.776   0.254 -0.1764  0.6812  0.9959
   33MOL    H31 5215   2.317   5.705   0.368 -0.2473 -2.0536  2.4644
   33MOL    H32 5216   2.146   5.581   0.476  0.0681 -2.0800 -1.8102
   33MOL    H33 5217   2.028   5.599   0.356  1.3643 -2.3622  0.8085
   33MOL    C34 5218   1.965   5.766   0.592 -0.5303  0.0507  0.7634
   33MOL    C35 5219   1.836   5.702   0.544 -0.0171 -0.4860  1.3833
   33MOL    C36 5220   1.722   5.803   0.528  0.0872 -0.7948 -0.5213
   33MOL    O37 5221   1.734   5.908   0.459 -0.9714  0.1520  0.1429
   33MOL    H38 5222   1.952   5.862   0.642  1.1544  0.1425  1.0421
   33MOL    H39 5223   2.012   5.696   0.661  1.0727 -0.8390 -1.1936
   33MOL    H40 5224   1.813   5.624   0.617 -0.8856 -3.2039 -1.6706
   33MOL    H41 5225   1.847   5.648   0.450  0.0600 -0.1531  1.2000
   33MOL    C42 5226   1.596   5.771   0.606  0.5516  0.0942  0.6505
   33MOL    C43 5227   1.464   5.826   0.547  0.1423  0.5856  0.4685
   33MOL    C44 5228   1.420   5.735   0.428  0.0146  0.1250  1.0374
   33MOL    O45 5229   1.495   5.673   0.356  0.4640  0.3930  0.3881
   33MOL    H46 5230   1.616   5.819   0.701 -2.6969  2.9072  0.0182
   33MOL    H47 5231   1.584   5.665   0.631  0.2684 -0.1719 -0.5378
   33MOL    H48 5232   1.468   5.927   0.508  0.2136  1.2512  2.1841
   33MOL    H49 5233   1.381   5.826   0.617 -1.4718  0.8323 -1.4141
   33MOL    C50 5234   1.272   5.728   0.423  0.6551 -0.1788 -0.8284
   33MOL    C51 5235   1.224   5.670   0.287 -0.4058  0.8453 -0.0477
   33MOL    C52 5236   1.171   5.778   0.186 -0.6323  0.5676  0.1298
   33MOL    O53 5237   1.212   5.892   0.213 -0.1156  0.5814  0.3087
   33MOL    H54 5238   1.209   5.813   0.449 -0.9616 -2.0864  1.7207
   33MOL    H55 5239   1.239   5.645   0.486 -1.7209 -0.5848 -2.5294
   33MOL    H56 5240   1.142   5.604   0.317 -1.4111  1.8424 -0.5345
   33MOL    H57 5241   1.294   5.599   0.244 -1.6674 -0.0828 -0.6276
   33MOL    C58 5242   1.082   5.747   0.067 -0.0700 -0.7330 -0.0928
   33MOL    C59 5243   1.026   5.865   7.835  0.3859 -0.9374 -0.4673
   33MOL    C60 5244   0.886   5.909   0.024 -0.1004  0.0476  0.1743
   33MOL    O61 5245   0.792   5.849   7.838  0.4857  0.4145  0.1256
   33MOL    H62 5246   1.003   5.683   0.106 -0.6372 -1.1156 -1.8011
   33MOL    H63 5247   1.142   5.679   0.006  2.5010  0.6377  0.8593
   33MOL    H64 5248   1.032   5.831   7.732 -1.5332  0.1844 -0.9592
   33MOL    H65 5249   1.092   5.951   7.842 -0.6584 -0.0820 -0.9902
   33MOL    C66 5250   0.864   6.031   0.118  0.3307 -0.0363  0.9371
   33MOL    C67 5251   0.753   6.120   0.063  0.0292 -0.4646  1.0051
   33MOL    C68 5252   0.770   6.182   7.785 -0.3055  0.4772 -0.6697
   33MOL    O69 5253   0.885   6.204   7.739  0.0390 -0.0059  0.3109
   33MOL    H70 5254   0.960   6.082   0.110  0.1575  0.0151 -1.1224
   33MOL    H71 5255   0.848   5.995   0.220 -0.8582 -1.8463  0.1279
   33MOL    H72 5256   0.728   6.205   0.126 -1.4840 -0.4509  0.4009
   33MOL    H73 5257   0.664   6.058   0.051  0.3285 -0.9273  1.1666
   33MOL    C74 5258   0.638   6.220   7.722 -0.0185 -0.6064 -0.0510
   33MOL    C75 5259   0.549   6.308   7.806 -0.0498 -0.1660 -0.2817
   33MOL    C76 5260   0.413   6.246   7.842 -0.9166  0.1033  0.3033
   33MOL    O77 5261   0.390   6.210   0.097  0.3204 -0.3048 -0.3080
   33MOL    H78 5262   0.588   6.131   7.684  0.5773 -1.2691  0.7104
   33MOL    H79 5263   0.664   6.277   7.633  0.4632 -0.1930  0.3539
   33MOL    H80 5264   0.543   6.408   7.765  1.3216  0.2326  0.4310
   33MOL    H81 5265   0.597   6.324   0.044 -2.5804 -0.3138  1.0271
   33MOL    C82 5266   0.311   6.259   7.730  0.4422  0.3109 -0.8712
   33MOL    C83 5267   0.214   6.136   7.705 -0.9938 -0.4093 -0.7296
   33MOL    C84 5268   0.279   6.046   7.595  0.8164  0.1895 -0.0508
   33MOL    O85 5269   0.400   6.031   7.601 -0.0997  0.5335  0.1873
   33MOL    H86 5270   0.354   6.267   7.630  0.3026 -2.1740 -1.1798
   33MOL    H87 5271   0.258   6.353   7.744  0.6655  0.3035  0.0410
   33MOL    H88 5272   0.114   6.165   7.675 -0.6657 -0.8650 -2.3402
   33MOL    H89 5273   0.202   6.071   7.792  0.1809 -2.1605 -1.8341
   33MOL    C90 5274   0.192   5.986   7.477 -0.5602 -0.5616  0.2944
   33MOL    C91 5275   0.246   5.850   7.428 -0.4184 -0.6529  0.1951
   33MOL    C92 5276   0.255   5.829   7.279 -0.2273  0.3190 -0.6789
   33MOL    O93 5277   0.263   5.929   7.208 -0.7130 -0.0599  0.2571
   33MOL    H94 5278   0.197   6.064   7.401  0.1701 -1.0407 -0.1635
   33MOL    H95 5279   0.087   5.979   7.504 -1.1190 -0.5896 -1.7599
   33MOL    H96 5280   0.169   5.782   7.463 -1.5167  1.3060  1.7026
   33MOL    H97 5281   0.343   5.819   7.468 -0.5849 -2.2966 -0.6316
   33MOL    C98 5282   0.258   5.684   7.224  0.5190 -0.1057  0.0523
   33MOL    C99 5283   0.215   5.669   7.074 -0.2195  0.3286 -0.9406
   33MOL   C100 5284   0.121   5.549   7.049  0.4296 -0.1652 -0.2116
   33MOL   O101 5285   0.000   5.571   7.049 -0.1359  0.2330  1.0060
   33MOL   H102 5286   0.215   5.611   7.292 -1.9886  1.2978  0.0144
   33MOL   H103 5287   0.365   5.660   7.223  0.4665 -0.4348  1.0639
   33MOL   H104 5288   0.307   5.656   7.018  0.6743  1.2407  0.2898
   33MOL   H105 5289   0.159   5.756   7.040 -2.6691 -0.1522  1.6085
   33MOL   C106 5290   0.174   5.411   7.005  0.0627 -0.0013  0.5959
   33MOL   C107 5291   0.065   5.297   6.989 -0.0043 -0.1141  0.1161
   33MOL   C108 5292   0.050   5.209   7.111  0.6879  0.0801  0.1973
   33MOL   O109 5293   0.135   5.214   7.199  0.0458  0.6046  0.4924
   33MOL   H110 5294   0.245   5.388   7.085  0.6308  0.3282  0.1952
   33MOL   H111 5295   0.221   5.417   6.907  1.2119 -1.4041  1.0359
   33MOL   H112 5296   0.093   5.237   6.902 -1.4259  0.6134 -0.8696
   33MOL   H113 5297   7.823   5.335   6.974  0.2583  0.7353  0.4403
   33MOL   C114 5298   7.789   5.122   7.111 -0.0580  0.1585  0.1635
   33MOL   C115 5299   7.717   5.146   7.242 -0.2773 -0.1926  0.1622
   33MOL   C116 5300   7.701   5.014   7.320  0.0480 -0.7049 -0.2030
   33MOL   O117 5301   7.696   4.904   7.259 -0.3273  0.0524 -0.1480
   33MOL   H118 5302   7.817   5.020   7.084 -2.4696 -0.9835  1.7105
   33MOL   H119 5303   7.730   5.155   7.025 -1.4774 -0.3782  0.9171
   33MOL   H120 5304   7.616   5.180   7.217 -0.3040 -0.7936 -0.5591
   33MOL   H121 5305   7.764   5.222   7.305 -0.4820  0.2318 -0.1962
   33MOL   C122 5306   7.678   5.026   7.470  0.0336 -0.5762 -0.3761
   33MOL   C123 5307   7.654   4.897   7.546  0.7779  0.5172  0.3802
   33MOL   C124 5308   7.504   4.864   7.555  0.4687 -0.0006  0.4137
   33MOL   O125 5309   7.409   4.927   7.504 -0.8896  0.0632  0.3904
   33MOL   H126 5310   7.590   5.090   7.478 -0.1588 -0.9869  0.9010
   33MOL   H127 5311   7.757   5.079   7.524 -1.3228  0.4832  0.5928
   33MOL   H128 5312   7.692   4.925   7.644  2.2290  4.5249 -1.2372
   33MOL   H129 5313   7.716   4.812   7.514 -0.3076  0.2668 -1.1269
   33MOL   C130 5314   7.469   4.731   7.621 -0.2050 -0.1583  0.2006
   33MOL   C131 5315   7.384   4.748   7.749  0.0380  0.1109  0.4718
   33MOL   C132 5316   7.287   4.632   7.780  0.1960 -0.1839 -0.0509
   33MOL   O133 5317   7.264   4.541   7.706 -0.1147 -0.1057  0.5004
   33MOL   H134 5318   7.566   4.689   7.646  0.1203  1.1266  1.1256
   33MOL   H135 5319   7.434   4.656   7.549  0.7006 -0.7029  0.3303
   33MOL   H136 5320   7.321   4.837   7.746 -0.8813 -0.5891 -2.2587
   33MOL   H137 5321   7.450   4.760   7.835  3.0018 -2.8048 -1.2750
   33MOL   C138 5322   7.229   4.634   0.056 -0.4111 -0.0605  0.6527
   33MOL   C139 5323   7.132   4.520   0.079  0.0272  0.4515 -0.1447
   33MOL   C140 5324   7.128   4.481   0.221 -0.3209 -0.2672  0.0796
   33MOL   O141 5325   7.139   4.563   0.314  0.5447 -0.7281 -0.1663
   33MOL   H142 5326   7.183   4.729   0.082  0.4169  0.7108 -0.6501
   33MOL   H143 5327   7.321   4.614   0.111  0.9368 -1.1618 -1.8762
   33MOL   H144 5328   7.157   4.425   0.031  2.8559 -0.1561  2.4125
   33MOL   H145 5329   7.031   4.542   0.046  0.6458 -0.4647 -2.8536
   33MOL   C146 5330   7.086   4.337   0.244  0.4673  0.3843 -0.0060
   33MOL   C147 5331   6.942   4.342   0.299 -0.1731 -0.4538 -0.0329
   33MOL   C148 5332   6.837   4.281   0.206  0.5547  0.9348 -0.7181
   33MOL   O149 5333   6.860   4.211   0.108 -0.1754 -0.1197 -0.0393
   33MOL   H150 5334   7.159   4.298   0.314  1.6228  1.3230 -0.6664
   33MOL   H151 5335   7.102   4.282   0.152  0.9002 -0.7901  0.7532
   33MOL   H152 5336   6.909   4.444   0.318 -1.9647 -1.1245  0.5517
   33MOL   H153 5337   6.933   4.296   0.398 -1.9460  1.5624  0.7744
   33MOL   C154 5338   6.697   4.290   0.260 -0.8831  0.0311 -0.3324
   33MOL   C155 5339   6.641   4.156   0.310  0.3191 -0.5100  0.8473
   33MOL   C156 5340   6.677   4.134   0.459 -0.5577  0.1534  0.0299
   33MOL   O157 5341   6.718   4.228   0.528 -0.1661 -0.2577  0.7973
   33MOL   H158 5342   6.636   4.316   0.174  0.1902  0.6509 -0.9254
   33MOL   H159 5343   6.686   4.375   0.327 -0.7807 -0.9018  0.8711
   33MOL   H160 5344   6.683   4.080   0.245 -0.9653 -1.7948  1.4888
   33MOL   H161 5345   6.533   4.167   0.303  0.2714 -2.0291 -1.1315
   33MOL   H162 5346   6.645   4.041   0.505  3.4599 -1.6385 -0.5537
   34MOL     C1 5347   1.992   3.354   6.992  0.4384 -0.0972 -0.1807
   34MOL     C2 5348   2.140   3.343   6.950 -0.5958  0.3188 -0.4403
   34MOL     C3 5349   2.161   3.365   6.799  0.2888 -0.1036  0.2709
   34MOL     O4 5350   2.088   3.435   6.732 -0.3806  0.0353  0.3676
   34MOL     H5 5351   1.930   3.271   6.959  1.1018 -0.4755 -0.4872
   34MOL     H6 5352   1.978   3.371   7.099  1.6069  1.0897 -0.2099
   34MOL     H7 5353   2.187   3.250   6.979  0.2839  0.3615 -1.6947
   34MOL     H8 5354   2.200   3.422   6.996 -1.3886  0.7087 -0.0646
   34MOL     H9 5355   1.946   3.444   6.951 -2.2687 -1.1337  0.4286
   34MOL    C10 5356   2.295   3.318   6.746  0.3806  0.0445  0.1435
   34MOL    C11 5357   2.282   3.267   6.604 -0.3809  0.3623 -0.0728
   34MOL    C12 5358   2.250   3.119   6.598  0.2224  0.4325  0.4304
   34MOL    O13 5359   2.235   3.052   6.695 -0.0996 -0.2327  0.0503
   34MOL    H14 5360   2.331   3.242   6.815  0.6642 -1.8054 -2.0162
   34MOL    H15 5361   2.370   3.397   6.751  2.2302 -1.4205 -2.9651
   34MOL    H16 5362   2.373   3.300   6.552 -0.2907  0.3486  0.0770
   34MOL    H17 5363   2.206   3.317   6.544 -0.4700 -0.0408 -0.2984
   34MOL    C18 5364   2.268   3.054   6.460 -0.3769 -0.3176 -0.0381
   34MOL    C19 5365   2.225   2.905   6.456 -0.6098 -0.5605  0.4283
   34MOL    C20 5366   2.064   2.897   6.462  0.4682  0.7324 -0.0727
   34MOL    O21 5367   1.993   3.000   6.463 -0.8352  0.2947 -0.2619
   34MOL    H22 5368   2.374   3.051   6.433 -0.8559  1.3537 -2.2302
   34MOL    H23 5369   2.219   3.115   6.384  0.6786 -0.7445 -1.0852
   34MOL    H24 5370   2.259   2.847   6.542 -0.0370 -0.7136  0.0947
   34MOL    H25 5371   2.256   2.873   6.357  1.6682  0.7823  0.6800
   34MOL    C26 5372   2.019   2.752   6.479 -0.4277  0.2673 -0.1335
   34MOL    C27 5373   1.863   2.738   6.481 -0.0941 -0.7497  0.1282
   34MOL    C28 5374   1.788   2.721   6.345  0.1615 -0.0820 -0.0258
   34MOL    O29 5375   1.835   2.685   6.240 -0.1795  0.5184 -0.0183
   34MOL    H30 5376   2.068   2.707   6.565  1.5702  0.5382 -1.1054
   34MOL    H31 5377   2.055   2.696   6.393  0.5327  1.5638 -0.5877
   34MOL    H32 5378   1.833   2.829   6.532 -4.2632 -2.2200  0.5065
   34MOL    H33 5379   1.837   2.647   6.536 -0.1298 -1.2017 -0.6285
   34MOL    C34 5380   1.640   2.742   6.355  0.2274 -0.1734  0.1435
   34MOL    C35 5381   1.573   2.741   6.215  0.3362 -0.3981  0.1889
   34MOL    C36 5382   1.512   2.879   6.169 -0.3049 -0.1289 -0.2996
   34MOL    O37 5383   1.389   2.897   6.168  0.0915 -0.4224 -0.1736
   34MOL    H38 5384   1.619   2.822   6.426  0.3561 -0.2849  0.3068
   34MOL    H39 5385   1.585   2.660   6.400  1.0792 -0.3044  0.9686
   34MOL    H40 5386   1.489   2.672   6.209  0.9373 -1.3217  1.9261
   34MOL    H41 5387   1.636   2.712   6.131  0.4280  1.1115 -0.2787
   34MOL    C42 5388   1.605   2.981   6.107 -0.1566 -0.1673 -0.3023
   34MOL    C43 5389   1.533   3.104   6.053  0.9270  0.1419  0.2777
   34MOL    C44 5390   1.614   3.183   5.951  0.5504 -0.3362  0.0218
   34MOL    O45 5391   1.730   3.158   5.925  0.2277 -0.2896 -0.1442
   34MOL    H46 5392   1.666   2.931   6.031 -0.3866 -1.4897  0.3708
   34MOL    H47 5393   1.666   3.022   6.187  1.7363 -1.2155 -1.1655
   34MOL    H48 5394   1.499   3.179   6.125 -0.4909 -0.8281  0.6346
   34MOL    H49 5395   1.446   3.075   5.995  0.0816  1.2912  0.9246
   34MOL    C50 5396   1.542   3.306   5.893  0.0690  0.3674  0.3640
   34MOL    C51 5397   1.629   3.421   5.855  0.9753 -0.0337 -0.0938
   34MOL    C52 5398   1.680   3.513   5.970  0.0406 -0.4804  0.1728
   34MOL    O53 5399   1.649   3.499   6.085  0.0491  0.1860  0.1943
   34MOL    H54 5400   1.468   3.344   5.964 -1.6298  2.3260 -2.3454
   34MOL    H55 5401   1.476   3.284   5.809 -1.0970  3.4626  0.3831
   34MOL    H56 5402   1.572   3.486   5.789  0.5447 -1.6264 -1.3201
   34MOL    H57 5403   1.713   3.392   5.791 -0.5861 -2.0332 -1.2818
   34MOL    C58 5404   1.772   3.625   5.929  0.6034 -0.3205 -0.2709
   34MOL    C59 5405   1.837   3.701   6.046 -0.7194 -0.2169 -0.4029
   34MOL    C60 5406   1.788   3.843   6.069  1.2200 -0.4245 -0.0815
   34MOL    O61 5407   1.672   3.869   6.044 -0.0027 -0.5013 -0.1478
   34MOL    H62 5408   1.706   3.694   5.878 -0.9014 -0.5591  1.3108
   34MOL    H63 5409   1.839   3.584   5.854  0.1121  1.2463 -1.6000
   34MOL    H64 5410   1.943   3.702   6.019  0.4347  1.4553  3.7985
   34MOL    H65 5411   1.842   3.648   6.142 -1.3847  1.6036  0.6557
   34MOL    C66 5412   1.886   3.949   6.133 -0.2935 -0.1843  0.2845
   34MOL    C67 5413   1.834   4.096   6.110 -0.1291  0.3706  0.2245
   34MOL    C68 5414   1.951   4.196   6.089 -0.0653  0.1421  0.7580
   34MOL    O69 5415   2.063   4.160   6.053 -0.2181  0.2074 -0.1035
   34MOL    H70 5416   1.982   3.934   6.083 -0.2757  1.6891 -0.2814
   34MOL    H71 5417   1.901   3.919   6.237  0.1197  2.9134  1.1904
   34MOL    H72 5418   1.770   4.128   6.193 -0.0748  0.2975  0.2949
   34MOL    H73 5419   1.773   4.112   6.021  0.6053  1.2101 -0.1418
   34MOL    C74 5420   1.915   4.338   6.103  0.2272  0.0352  0.2706
   34MOL    C75 5421   2.026   4.418   6.187 -0.1959 -0.2938 -0.0219
   34MOL    C76 5422   2.016   4.419   6.338  0.4680 -0.5665 -0.5060
   34MOL    O77 5423   1.938   4.343   6.395 -0.3389  0.7098  0.2843
   34MOL    H78 5424   1.814   4.348   6.140 -0.6008 -1.0827 -1.5911
   34MOL    H79 5425   1.899   4.385   6.006 -1.3513 -1.9127 -0.4403
   34MOL    H80 5426   2.020   4.519   6.146 -0.0248  0.1090  0.9136
   34MOL    H81 5427   2.125   4.384   6.154 -0.5128  0.3261 -1.6320
   34MOL    C82 5428   2.113   4.524   6.403  0.0255 -0.1453 -0.3647
   34MOL    C83 5429   2.072   4.561   6.553  0.1227  0.2914  0.5334
   34MOL    C84 5430   2.184   4.540   6.655  0.3067 -0.0797 -0.2476
   34MOL    O85 5431   2.304   4.551   6.626  0.6989 -0.2322  0.2848
   34MOL    H86 5432   2.100   4.619   6.350  1.6392  0.5083  0.3804
   34MOL    H87 5433   2.218   4.497   6.391 -0.2768 -2.5385  1.9912
   34MOL    H88 5434   1.985   4.504   6.587 -1.0447  2.3350  1.0363
   34MOL    H89 5435   2.045   4.665   6.567  0.1320  0.1217  1.8856
   34MOL    C90 5436   2.143   4.476   6.787 -0.1216 -0.0200  0.6833
   34MOL    C91 5437   2.265   4.445   6.874  0.1297 -0.0724  0.6452
   34MOL    C92 5438   2.300   4.303   6.874  0.7945  0.3424  0.5865
   34MOL    O93 5439   2.223   4.226   6.927  0.2021 -0.6135  0.1686
   34MOL    H94 5440   2.075   4.393   6.767 -0.1209  0.1101  0.1454
   34MOL    H95 5441   2.077   4.551   6.830  0.6827  0.7548  0.5748
   34MOL    H96 5442   2.261   4.475   6.979  0.3244 -1.4111  1.0363
   34MOL    H97 5443   2.346   4.497   6.825  1.1465  0.2528  2.6139
   34MOL    C98 5444   2.438   4.260   6.827  0.3925  0.2573 -0.4311
   34MOL    C99 5445   2.484   4.121   6.882  0.3525  0.4994  0.1743
   34MOL   C100 5446   2.620   4.080   6.828 -0.2233  0.7813 -0.1042
   34MOL   O101 5447   2.642   4.074   6.704 -0.3430  0.4491  0.4085
   34MOL   H102 5448   2.510   4.333   6.865 -0.9137  0.9672  0.7067
   34MOL   H103 5449   2.438   4.261   6.718 -0.5806 -3.5569 -0.5217
   34MOL   H104 5450   2.409   4.042   6.875 -1.3565  2.1364 -0.3857
   34MOL   H105 5451   2.491   4.123   6.991 -0.5263 -3.9403  0.4082
   34MOL   C106 5452   2.739   4.082   6.930 -0.0711 -0.6504 -0.6234
   34MOL   C107 5453   2.867   4.005   6.874  0.0171 -0.2229 -0.6604
   34MOL   C108 5454   2.993   4.029   6.956  1.0671  0.3640  0.0990
   34MOL   O109 5455   2.997   4.110   7.045  0.7678 -0.0338  0.1122
   34MOL   H110 5456   2.706   4.041   7.025 -0.3272 -1.4346 -1.0413
   34MOL   H111 5457   2.763   4.182   6.965 -1.3873 -0.4268 -0.3605
   34MOL   H112 5458   2.886   4.041   6.772  0.6828 -0.4984 -0.6342
   34MOL   H113 5459   2.850   3.898   6.879  0.2547 -0.2355 -0.0405
   34MOL   C114 5460   3.118   3.944   6.933 -0.3514 -0.1261  0.1039
   34MOL   C115 5461   3.248   4.028   6.964  0.3971 -0.0068 -0.8438
   34MOL   C116 5462   3.341   3.970   7.076  0.0155 -0.0104 -0.0012
   34MOL   O117 5463   3.424   3.878   7.054 -0.1975 -0.4115  0.1723
   34MOL   H118 5464   3.109   3.921   6.827 -1.1816  0.8754 -0.0491
   34MOL   H119 5465   3.107   3.852   6.990 -1.9827  1.4124  2.3592
   34MOL   H120 5466   3.221   4.132   6.984 -2.0551 -0.3343 -2.2860
   34MOL   H121 5467   3.313   4.024   6.877 -0.4332  3.1217 -1.6623
   34MOL   C122 5468   3.339   4.034   7.219  0.0973  0.3923 -0.1769
   34MOL   C123 5469   3.209   4.011   7.293 -0.2708 -0.6336 -0.3057
   34MOL   C124 5470   3.228   3.986   7.444 -0.3667  0.8605  1.0901
   34MOL   O125 5471   3.345   3.981   7.491  0.1103  0.0112  0.4798
   34MOL   H126 5472   3.366   4.138   7.204  0.9968  0.4226  1.5699
   34MOL   H127 5473   3.423   3.983   7.266 -0.0496 -0.4117 -0.7725
   34MOL   H128 5474   3.157   3.927   7.247 -2.4007  0.1843  0.5395
   34MOL   H129 5475   3.155   4.103   7.276  1.3811  0.6451  1.1431
   34MOL   C130 5476   3.098   3.975   7.525 -0.1429  0.2503  0.0392
   34MOL   C131 5477   3.128   3.938   7.671  0.5433 -0.2313 -0.2064
   34MOL   C132 5478   3.090   3.792   7.702 -1.0405  0.5188 -0.1690
   34MOL   O133 5479   3.040   3.716   7.618 -0.7612 -0.0019  0.1408
   34MOL   H134 5480   3.024   3.908   7.483  0.6848  0.5324 -1.9621
   34MOL   H135 5481   3.066   4.079   7.518 -0.7557  0.0010 -0.8940
   34MOL   H136 5482   3.072   4.001   7.740  0.0436  0.8970 -1.6114
   34MOL   H137 5483   3.234   3.935   7.699  0.4705 -0.4562  0.0424
   34MOL   C138 5484   3.103   3.744   7.843  0.3524 -0.2164  0.1734
   34MOL   C139 5485   2.967   3.709   0.061 -0.2765 -0.1546 -0.2890
   34MOL   C140 5486   2.984   3.642   0.190 -0.2043  0.1731 -0.1433
   34MOL   O141 5487   3.080   3.675   0.261 -0.1341  0.2166  0.1310
   34MOL   H142 5488   3.149   3.826   0.038  1.7112 -1.8555  1.5773
   34MOL   H143 5489   3.166   3.656   7.831 -0.9366 -0.9019 -1.9012
   34MOL   H144 5490   2.909   3.645   7.854  1.2321 -0.3281 -1.4756
   34MOL   H145 5491   2.902   3.796   0.066  2.5931  2.1235 -1.0796
   34MOL   C146 5492   2.878   3.552   0.245 -0.1970 -0.2447  0.1208
   34MOL   C147 5493   2.898   3.514   0.393  0.1896  0.2743 -0.3400
   34MOL   C148 5494   3.001   3.406   0.418  0.1610  0.2846  0.5634
   34MOL   O149 5495   3.000   3.309   0.345 -0.0627 -0.2130 -0.4411
   34MOL   H150 5496   2.875   3.461   0.185  0.1097 -0.7214  0.8114
   34MOL   H151 5497   2.784   3.607   0.249  0.6528  1.1831  0.8190
   34MOL   H152 5498   2.804   3.472   0.429  0.7033 -1.9062 -1.4742
   34MOL   H153 5499   2.923   3.602   0.452 -0.0443  0.5451 -0.6412
   34MOL   C154 5500   3.112   3.434   0.515  0.3263  0.0929 -1.3212
   34MOL   C155 5501   3.157   3.314   0.594 -0.1832 -0.0080  0.3901
   34MOL   C156 5502   3.181   3.326   0.741  0.4126 -0.3692  0.3156
   34MOL   O157 5503   3.178   3.430   0.808 -0.1774 -0.0700  0.5111
   34MOL   H158 5504   3.065   3.500   0.588  1.2300 -0.1265 -0.5360
   34MOL   H159 5505   3.193   3.485   0.463 -0.2574  1.8612 -0.5348
   34MOL   H160 5506   3.252   3.278   0.552 -0.7610  2.4440 -3.1771
   34MOL   H161 5507   3.087   3.232   0.580  2.1116 -2.0095  0.2309
   34MOL   H162 5508   3.197   3.235   0.800 -0.2310 -1.3571 -0.9949
   35MOL     C1 5509   6.081   1.653   3.646  0.0084  0.9678 -0.0608
   35MOL     C2 5510   6.235   1.625   3.609  0.1369 -0.1368  0.4107
   35MOL     C3 5511   6.289   1.512   3.693  0.1959 -0.3844 -0.8286
   35MOL     O4 5512   6.284   1.511   3.813  0.6840  0.2441 -0.2523
   35MOL     H5 5513   6.065   1.671   3.752  0.6842 -0.8642  0.3755
   35MOL     H6 5514   6.043   1.739   3.591 -1.6748  0.7162  0.7007
   35MOL     H7 5515   6.287   1.720   3.622  0.5336 -0.1659 -0.8763
   35MOL     H8 5516   6.252   1.609   3.502 -1.7072 -0.0018  0.0717
   35MOL     H9 5517   6.009   1.577   3.616 -0.0063  0.4014  1.3893
   35MOL    C10 5518   6.379   1.414   3.624  0.0587 -0.1495  0.0207
   35MOL    C11 5519   6.527   1.450   3.635 -0.3076  0.3738  0.3060
   35MOL    C12 5520   6.572   1.509   3.506  0.1391  0.3398  0.8786
   35MOL    O13 5521   6.494   1.583   3.445  0.0435 -0.4584 -0.3014
   35MOL    H14 5522   6.343   1.404   3.521  1.7350  1.6915 -0.7743
   35MOL    H15 5523   6.376   1.314   3.666  0.3401 -0.7282 -1.3129
   35MOL    H16 5524   6.588   1.369   3.673 -0.8647 -1.6376 -2.8851
   35MOL    H17 5525   6.548   1.532   3.704 -1.3461 -0.5541  1.7483
   35MOL    C18 5526   6.715   1.479   3.458  1.7072 -0.3477  0.2008
   35MOL    C19 5527   6.751   1.555   3.326 -0.0246 -0.4103 -0.8915
   35MOL    C20 5528   6.841   1.684   3.344 -0.7519  0.2007  0.3694
   35MOL    O21 5529   6.837   1.745   3.451  0.5087  0.5851  0.2741
   35MOL    H22 5530   6.720   1.370   3.457 -0.7849 -0.5023  0.4621
   35MOL    H23 5531   6.786   1.511   3.533  0.6438  1.4402  0.4734
   35MOL    H24 5532   6.667   1.589   3.265  1.1613  4.0584 -0.2313
   35MOL    H25 5533   6.809   1.490   3.260  0.0182 -0.7923 -0.4809
   35MOL    C26 5534   6.917   1.742   3.217 -0.0454  0.1776 -0.3257
   35MOL    C27 5535   7.063   1.765   3.235  0.5874 -0.2335  0.1754
   35MOL    C28 5536   7.148   1.645   3.278 -0.4571 -0.4751 -0.1832
   35MOL    O29 5537   7.101   1.533   3.287  0.2502 -0.0947 -0.4863
   35MOL    H30 5538   6.864   1.837   3.217 -1.3602 -0.5348 -1.9897
   35MOL    H31 5539   6.894   1.680   3.130  2.3967 -0.4398 -0.5653
   35MOL    H32 5540   7.074   1.849   3.304 -0.7851 -0.9078  1.2496
   35MOL    H33 5541   7.104   1.799   3.140  2.5293  0.4541  1.2305
   35MOL    C34 5542   7.293   1.673   3.307 -0.3147 -0.5941 -0.9105
   35MOL    C35 5543   7.380   1.573   3.236 -0.9896 -0.1732  0.1514
   35MOL    C36 5544   7.443   1.620   3.106 -0.7713  0.5115  0.0025
   35MOL    O37 5545   7.450   1.740   3.071  0.0243  0.5840  0.0399
   35MOL    H38 5546   7.311   1.677   3.415 -0.8422  0.3580 -0.8494
   35MOL    H39 5547   7.317   1.772   3.269 -1.4250  0.4977  1.1400
   35MOL    H40 5548   7.326   1.484   3.204  0.5227 -1.0147 -0.0702
   35MOL    H41 5549   7.462   1.545   3.303 -1.4328  2.4183  1.8545
   35MOL    C42 5550   7.513   1.517   3.022 -0.5429  0.7413 -0.5794
   35MOL    C43 5551   7.624   1.583   2.937  0.3434  0.4724 -0.3787
   35MOL    C44 5552   7.738   1.484   2.909 -0.1137  0.3311  0.2612
   35MOL    O45 5553   7.729   1.363   2.953  0.0240  0.2951  0.6345
   35MOL    H46 5554   7.441   1.469   2.957 -1.9633  0.5744  1.0775
   35MOL    H47 5555   7.551   1.434   3.082 -0.8505 -0.0662 -1.4998
   35MOL    H48 5556   7.665   1.663   2.999 -2.8740 -0.4407  3.1023
   35MOL    H49 5557   7.589   1.634   2.847 -0.8213  0.8029  0.2624
   35MOL    C50 5558   0.001   1.525   2.833 -0.3643 -0.3122 -0.3548
   35MOL    C51 5559   0.079   1.407   2.760  0.4160  0.2006  0.3955
   35MOL    C52 5560   0.213   1.457   2.704 -0.6732 -0.0005  0.0155
   35MOL    O53 5561   0.320   1.429   2.756 -0.4507  1.0400 -0.5614
   35MOL    H54 5562   0.065   1.586   2.898  2.0611 -1.8712 -1.2057
   35MOL    H55 5563   7.830   1.593   2.753 -0.1425  2.7503  2.0596
   35MOL    H56 5564   0.027   1.347   2.685 -0.4016  2.0303 -0.5474
   35MOL    H57 5565   0.111   1.347   2.844  0.7839 -2.3343 -1.5126
   35MOL    C58 5566   0.203   1.553   2.582  0.0448 -0.0270 -0.0598
   35MOL    C59 5567   0.346   1.591   2.529  0.0218 -0.1712  0.1410
   35MOL    C60 5568   0.395   1.718   2.598  0.2372 -0.6068  0.5581
   35MOL    O61 5569   0.317   1.809   2.627 -0.4138  0.3617  0.4085
   35MOL    H62 5570   0.159   1.647   2.614 -0.6397 -0.1105 -0.7416
   35MOL    H63 5571   0.138   1.514   2.503 -2.7838  0.7007  1.8236
   35MOL    H64 5572   0.343   1.588   2.420  0.3983 -1.1906  0.1563
   35MOL    H65 5573   0.416   1.514   2.561  0.9704  0.1774 -1.0324
   35MOL    C66 5574   0.536   1.728   2.646  0.5286 -0.2719 -0.1111
   35MOL    C67 5575   0.564   1.820   2.759 -0.7024  0.3945 -0.9431
   35MOL    C68 5576   0.709   1.816   2.800  0.1800 -0.1078  0.6150
   35MOL    O69 5577   0.782   1.726   2.761  0.3629 -0.1645 -0.3527
   35MOL    H70 5578   0.595   1.760   2.561 -0.9230  1.8496 -0.3821
   35MOL    H71 5579   0.586   1.633   2.664  0.0597 -0.4138  0.4722
   35MOL    H72 5580   0.512   1.798   2.852 -0.9058  1.9075 -0.6932
   35MOL    H73 5581   0.530   1.921   2.735  0.1648  1.0650  0.6030
   35MOL    C74 5582   0.777   1.937   2.865  0.1904 -0.2793 -0.5262
   35MOL    C75 5583   0.887   1.895   2.958  0.0359  0.1521  0.8870
   35MOL    C76 5584   0.844   1.803   3.070 -0.0927 -1.2788  0.4551
   35MOL    O77 5585   0.739   1.808   3.133 -0.0192 -0.4687  0.3213
   35MOL    H78 5586   0.710   2.011   2.908  3.9680  3.3684 -0.5884
   35MOL    H79 5587   0.825   1.990   2.783 -2.0361  0.7567 -1.1873
   35MOL    H80 5588   0.918   1.984   3.012  2.3485 -0.7252  1.0431
   35MOL    H81 5589   0.976   1.865   2.902  0.7334  1.1471  1.4537
   35MOL    C82 5590   0.966   1.718   3.111 -0.9272 -0.2428 -0.0567
   35MOL    C83 5591   0.946   1.626   3.233  0.1442  0.4342 -0.5519
   35MOL    C84 5592   1.044   1.508   3.226 -0.1200 -0.0545 -0.7680
   35MOL    O85 5593   1.164   1.530   3.221 -0.6200 -0.6172 -0.2155
   35MOL    H86 5594   1.051   1.783   3.133 -0.0781 -1.1504 -0.6144
   35MOL    H87 5595   0.984   1.661   3.020 -0.8672 -1.3562  0.6476
   35MOL    H88 5596   0.844   1.589   3.228 -0.3052  1.5830 -0.1190
   35MOL    H89 5597   0.963   1.686   3.322 -0.9221  0.5635 -0.4310
   35MOL    C90 5598   0.981   1.369   3.229 -0.9143  0.8894  0.3852
   35MOL    C91 5599   1.023   1.299   3.362 -0.3064  0.1088  0.4506
   35MOL    C92 5600   0.917   1.293   3.476  0.3348 -0.5998 -0.1213
   35MOL    O93 5601   0.890   1.391   3.547 -0.2051 -0.4051 -0.6423
   35MOL    H94 5602   1.020   1.324   3.138 -0.5399  1.6414  0.1686
   35MOL    H95 5603   0.874   1.376   3.212 -0.8128  0.7008 -0.3625
   35MOL    H96 5604   1.119   1.332   3.402 -1.1606  1.4789  1.3968
   35MOL    H97 5605   1.046   1.195   3.339  0.6535 -0.1396  2.4629
   35MOL    C98 5606   0.857   1.147   3.490  0.4021 -0.0883 -0.1568
   35MOL    C99 5607   0.754   1.145   3.596  0.2291  0.1755  0.4675
   35MOL   C100 5608   0.795   1.072   3.724 -0.1607 -0.6854 -0.5348
   35MOL   O101 5609   0.771   0.955   3.746 -0.0306 -0.7357  0.1337
   35MOL   H102 5610   0.938   1.080   3.522  0.2397 -0.3601 -0.3135
   35MOL   H103 5611   0.819   1.106   3.397 -1.4409  0.7133  0.2231
   35MOL   H104 5612   0.681   1.080   3.547 -0.0231  0.4089  0.5357
   35MOL   H105 5613   0.698   1.235   3.619  1.2648  0.3646  2.3131
   35MOL   C106 5614   0.880   1.162   3.813 -1.0991  0.0047  0.0142
   35MOL   C107 5615   0.787   1.283   3.863 -0.0313  0.2936 -0.3779
   35MOL   C108 5616   0.760   1.290   4.012 -0.4052  0.0601 -0.7915
   35MOL   O109 5617   0.805   1.203   4.090  0.3481 -0.0840 -0.8816
   35MOL   H110 5618   0.962   1.195   3.750  1.8608 -1.1523  3.0626
   35MOL   H111 5619   0.931   1.098   3.885  1.4263  2.2089  0.2350
   35MOL   H112 5620   0.688   1.294   3.820 -0.0991  1.4294  0.0540
   35MOL   H113 5621   0.839   1.373   3.829  2.6966 -1.7747 -1.8968
   35MOL   C114 5622   0.680   1.414   4.059  0.0963  0.4046  1.4973
   35MOL   C115 5623   0.705   1.456   4.210 -0.2609  0.2102  0.1071
   35MOL   C116 5624   0.739   1.606   4.223 -0.1717 -1.1003 -0.4318
   35MOL   O117 5625   0.786   1.673   4.127  0.4424  0.3684 -0.2447
   35MOL   H118 5626   0.578   1.386   4.032 -0.1954  3.1084 -0.4927
   35MOL   H119 5627   0.702   1.503   4.000  3.9373  0.5464  2.9916
   35MOL   H120 5628   0.779   1.383   4.243  2.0052  0.2128 -4.5083
   35MOL   H121 5629   0.614   1.438   4.267  0.7884 -1.6654  1.2419
   35MOL   C122 5630   0.707   1.667   4.363 -0.3315  0.3290 -0.6823
   35MOL   C123 5631   0.776   1.803   4.394 -0.2264  0.4723  0.8745
   35MOL   C124 5632   0.680   1.885   4.469 -0.4013 -0.0794  0.4126
   35MOL   O125 5633   0.611   1.833   4.553  0.3763 -0.0835 -0.1287
   35MOL   H126 5634   0.715   1.587   4.436  0.3402  0.9331 -0.0955
   35MOL   H127 5635   0.599   1.681   4.364 -0.5348 -1.2069  0.2994
   35MOL   H128 5636   0.803   1.841   4.296 -0.7491  0.1355  0.5979
   35MOL   H129 5637   0.870   1.785   4.446  1.1819  0.9031 -1.4933
   35MOL   C130 5638   0.671   2.036   4.430 -0.1873 -0.4581 -0.5618
   35MOL   C131 5639   0.542   2.104   4.491 -0.6001  0.1279  1.1250
   35MOL   C132 5640   0.529   2.250   4.444  0.3511 -0.2659 -0.6271
   35MOL   O133 5641   0.569   2.290   4.335  0.0513 -0.0793  0.3533
   35MOL   H134 5642   0.670   2.037   4.321 -1.0574  1.2280 -0.5628
   35MOL   H135 5643   0.757   2.093   4.465  0.3707 -0.0673 -2.5122
   35MOL   H136 5644   0.515   2.090   4.595 -2.9762  1.5009  0.7135
   35MOL   H137 5645   0.460   2.046   4.448  2.0109 -2.3330 -0.7604
   35MOL   C138 5646   0.468   2.346   4.549  0.1725 -0.2856 -0.5233
   35MOL   C139 5647   0.404   2.466   4.481  0.2671 -0.3231  0.6075
   35MOL   C140 5648   0.274   2.431   4.392 -0.0848 -0.3494 -0.0509
   35MOL   O141 5649   0.212   2.332   4.419 -0.1918  0.4753  0.4161
   35MOL   H142 5650   0.549   2.368   4.619 -0.0629  0.4884 -0.4928
   35MOL   H143 5651   0.386   2.296   4.600  0.9342  0.3079  1.3343
   35MOL   H144 5652   0.472   2.510   4.409 -2.3106 -0.8340 -2.2519
   35MOL   H145 5653   0.377   2.546   4.550  0.4030 -0.4361  0.7890
   35MOL   C146 5654   0.229   2.516   4.270  0.3176 -0.7199  0.0448
   35MOL   C147 5655   0.228   2.436   4.144 -0.2546 -0.2813 -0.2152
   35MOL   C148 5656   0.193   2.525   4.029 -0.0141  0.2866  0.2128
   35MOL   O149 5657   0.286   2.569   3.959  0.6757  0.4547  0.3313
   35MOL   H150 5658   0.273   2.615   4.263  0.6819 -0.7271  1.8315
   35MOL   H151 5659   0.122   2.525   4.287 -0.1417 -3.1240 -1.4096
   35MOL   H152 5660   0.154   2.355   4.145 -0.5593 -0.0531 -2.0894
   35MOL   H153 5661   0.316   2.376   4.124 -0.6058 -1.2407  1.0349
   35MOL   C154 5662   0.038   2.545   3.994  0.5981  0.2700 -0.0423
   35MOL   C155 5663   7.858   2.537   3.846 -0.2074 -0.9429 -0.4570
   35MOL   C156 5664   7.721   2.604   3.819 -0.1875 -0.0191 -0.3236
   35MOL   O157 5665   7.634   2.619   3.904 -0.1377  0.1017 -0.4613
   35MOL   H158 5666   0.023   2.647   4.031 -0.7986 -0.0476  0.3129
   35MOL   H159 5667   7.840   2.473   4.053 -0.9753  0.4361 -1.3350
   35MOL   H160 5668   0.001   2.437   3.804 -2.3728 -0.8469 -0.8715
   35MOL   H161 5669   0.072   2.592   3.786  0.8895  0.9394  2.4808
   35MOL   H162 5670   7.696   2.638   3.718 -0.6620  2.4996  0.5844
   36MOL     C1 5671   4.996   4.546   3.678 -0.0075 -0.9785 -0.3649
   36MOL     C2 5672   4.926   4.502   3.544 -0.2183  0.8660  0.1111
   36MOL     C3 5673   4.998   4.558   3.425 -0.0488 -0.2393  0.2289
   36MOL     O4 5674   5.077   4.653   3.426 -0.5313 -0.3270 -0.5155
   36MOL     H5 5675   5.091   4.598   3.671 -0.0208 -0.3196  3.3355
   36MOL     H6 5676   4.922   4.612   3.723 -0.4092 -1.5763 -0.1401
   36MOL     H7 5677   4.827   4.546   3.536  0.7275  3.0910  0.0258
   36MOL     H8 5678   4.936   4.394   3.536  0.5352  1.0743 -2.2601
   36MOL     H9 5679   5.007   4.456   3.739 -0.1643 -0.8536 -0.1525
   36MOL    C10 5680   4.962   4.489   3.296 -0.2062  0.1882 -0.0610
   36MOL    C11 5681   5.074   4.496   3.192 -0.5415  0.4529 -0.0496
   36MOL    C12 5682   5.172   4.379   3.217  0.0791 -0.1866 -0.3305
   36MOL    O13 5683   5.144   4.298   3.301  0.0039  0.8983  0.2171
   36MOL    H14 5684   4.873   4.540   3.260 -0.8507  0.2529  1.5423
   36MOL    H15 5685   4.924   4.388   3.316  3.2300 -0.5346  3.3664
   36MOL    H16 5686   5.120   4.595   3.181 -0.2034  0.1868 -1.0900
   36MOL    H17 5687   5.028   4.464   3.098 -2.3186 -1.1633  1.3588
   36MOL    C18 5688   5.301   4.377   3.134 -0.0603 -0.6643  0.4391
   36MOL    C19 5689   5.357   4.235   3.127  0.6255  0.4955 -0.7595
   36MOL    C20 5690   5.486   4.226   3.044  0.1419  0.0384 -0.2289
   36MOL    O21 5691   5.546   4.325   3.000 -0.2329 -0.1092 -0.0490
   36MOL    H22 5692   5.373   4.448   3.176  0.7416 -1.5377  0.5738
   36MOL    H23 5693   5.277   4.416   3.035 -0.3333 -1.6655  0.0984
   36MOL    H24 5694   5.273   4.185   3.078  0.6875  1.0439 -1.4207
   36MOL    H25 5695   5.359   4.208   3.233 -0.3271  1.8164 -0.3804
   36MOL    C26 5696   5.539   4.088   3.018 -0.1593  0.6662  0.4138
   36MOL    C27 5697   5.664   4.085   2.932 -0.5202  0.6955  0.2179
   36MOL    C28 5698   5.650   4.012   2.796 -0.4572 -0.0249  0.2295
   36MOL    O29 5699   5.580   3.909   2.786  0.1636  0.3681 -0.0470
   36MOL    H30 5700   5.458   4.041   2.963  0.5828 -1.3492  1.0301
   36MOL    H31 5701   5.542   4.028   3.109  0.4506  1.8027  1.1709
   36MOL    H32 5702   5.748   4.047   2.990 -1.3682 -0.1523  0.9005
   36MOL    H33 5703   5.695   4.187   2.907 -1.1195  0.5539 -1.1550
   36MOL    C34 5704   5.718   4.077   2.678 -0.3543  0.4837  1.2010
   36MOL    C35 5705   5.686   4.002   2.543  0.4477 -0.2153 -0.1865
   36MOL    C36 5706   5.783   4.036   2.434  0.2863 -0.3193  0.2842
   36MOL    O37 5707   5.906   4.026   2.457  0.7391  0.2726  0.0798
   36MOL    H38 5708   5.823   4.063   2.703 -0.1007  2.2357  1.2232
   36MOL    H39 5709   5.704   4.185   2.666 -2.4354  0.1840  0.7125
   36MOL    H40 5710   5.587   4.028   2.504  0.0090  0.4808  1.3426
   36MOL    H41 5711   5.702   3.896   2.562  1.0056  0.2037  1.8177
   36MOL    C42 5712   5.736   4.090   2.304  0.0522 -0.4884 -0.3264
   36MOL    C43 5713   5.763   4.245   2.288 -0.5824  0.1975  0.3907
   36MOL    C44 5714   5.752   4.296   2.141  0.2638 -0.6280 -0.3910
   36MOL    O45 5715   5.719   4.220   2.051 -0.3280  0.5761  0.6250
   36MOL    H46 5716   5.630   4.076   2.284  0.0423 -1.1658  0.2110
   36MOL    H47 5717   5.780   4.032   2.223 -0.1078  0.6020 -1.2234
   36MOL    H48 5718   5.868   4.265   2.309 -1.0437  1.2963  1.6990
   36MOL    H49 5719   5.711   4.313   2.355  1.4431  0.8727  1.3096
   36MOL    C50 5720   5.771   4.450   2.128  0.5988 -0.0857 -0.4418
   36MOL    C51 5721   5.726   4.509   1.990 -0.0560  0.4618 -0.0228
   36MOL    C52 5722   5.848   4.576   1.921  0.7026  0.5646 -0.0624
   36MOL    O53 5723   5.930   4.638   1.989 -0.0554 -0.2371 -0.2749
   36MOL    H54 5724   5.876   4.465   2.154  0.4769  1.0337 -0.5661
   36MOL    H55 5725   5.709   4.511   2.194  0.2842 -0.7606 -0.1113
   36MOL    H56 5726   5.640   4.574   2.008  1.3150  2.1652  0.4606
   36MOL    H57 5727   5.698   4.429   1.921 -0.8468 -0.0737  0.8984
   36MOL    C58 5728   5.881   4.547   1.773  0.9927 -0.5723  0.1599
   36MOL    C59 5729   5.985   4.434   1.770  0.0459 -0.1205 -0.6346
   36MOL    C60 5730   6.118   4.477   1.718 -0.0772  0.6434  0.0593
   36MOL    O61 5731   6.169   4.576   1.763 -0.1728  0.2515  0.2789
   36MOL    H62 5732   5.926   4.640   1.738 -1.5391  1.1186  1.2373
   36MOL    H63 5733   5.795   4.549   1.706  0.9872 -0.5421  0.1688
   36MOL    H64 5734   5.943   4.357   1.705 -1.5131 -1.4852  1.9051
   36MOL    H65 5735   5.994   4.385   1.867 -1.0882 -0.8882 -0.9099
   36MOL    C66 5736   6.179   4.404   1.599 -0.2523  0.3875  0.1808
   36MOL    C67 5737   6.140   4.467   1.466  0.3748 -0.2819  0.1434
   36MOL    C68 5738   6.079   4.366   1.369  0.1537  0.0523 -0.1672
   36MOL    O69 5739   5.974   4.305   1.392  0.2618 -0.4203 -0.2189
   36MOL    H70 5740   6.156   4.298   1.615 -1.3873  0.5973 -0.0467
   36MOL    H71 5741   6.288   4.402   1.601 -0.2347  1.1892 -0.1021
   36MOL    H72 5742   6.224   4.519   1.420  0.2799 -2.0698 -2.1364
   36MOL    H73 5743   6.051   4.529   1.478 -0.4233 -1.2482 -0.6472
   36MOL    C74 5744   6.155   4.363   1.240  0.6614  0.4950 -0.2882
   36MOL    C75 5745   6.091   4.452   1.138  0.5152 -0.1098  0.6112
   36MOL    C76 5746   6.167   4.581   1.105 -0.9192  0.5786  0.5057
   36MOL    O77 5747   6.277   4.574   1.055  0.0331  0.1207 -0.4236
   36MOL    H78 5748   6.155   4.263   1.196  1.3974  0.5392 -0.3873
   36MOL    H79 5749   6.262   4.377   1.251  0.9360  0.5606 -2.7254
   36MOL    H80 5750   5.992   4.488   1.165 -1.0809 -2.5020 -1.8492
   36MOL    H81 5751   6.077   4.398   1.045 -0.2267 -2.8502  2.2576
   36MOL    C82 5752   6.100   4.710   1.114 -0.1031  0.3262  0.8026
   36MOL    C83 5753   6.168   4.827   1.038 -0.0393  0.3458  0.2156
   36MOL    C84 5754   6.284   4.887   1.118  0.5874 -0.2506  0.1005
   36MOL    O85 5755   6.334   4.828   1.218 -0.0586 -0.4041 -0.3331
   36MOL    H86 5756   6.097   4.734   1.221  0.2868  1.6584  0.5323
   36MOL    H87 5757   5.996   4.707   1.081  0.3168  1.0113 -0.5979
   36MOL    H88 5758   6.096   4.908   1.026 -0.3115  0.4780  2.4313
   36MOL    H89 5759   6.201   4.798   0.939  2.7038  0.0605  1.1668
   36MOL    C90 5760   6.339   5.012   1.058  0.4480  0.6614  0.1403
   36MOL    C91 5761   6.485   5.046   1.103  0.1226  0.0199 -0.1603
   36MOL    C92 5762   6.494   5.148   1.217  0.7355  0.4711  0.8748
   36MOL    O93 5763   6.393   5.203   1.254 -0.2194 -0.6427  0.5327
   36MOL    H94 5764   6.263   5.089   1.071 -0.2824  0.1150 -0.9393
   36MOL    H95 5765   6.352   5.001   0.951  0.2838  2.7126 -0.1141
   36MOL    H96 5766   6.534   5.096   1.019  0.6461 -0.4618 -0.1370
   36MOL    H97 5767   6.538   4.954   1.125  0.7085  0.1595 -0.9511
   36MOL    C98 5768   6.629   5.172   1.279 -0.5685  0.0459 -0.1613
   36MOL    C99 5769   6.650   5.291   1.369 -0.0668 -0.1030 -0.1482
   36MOL   C100 5770   6.613   5.269   1.515 -0.2003 -1.0813  0.6819
   36MOL   O101 5771   6.686   5.204   1.594  0.0005 -0.1324 -0.1220
   36MOL   H102 5772   6.687   5.187   1.188  0.7790  1.3082  0.8675
   36MOL   H103 5773   6.671   5.080   1.322  1.0316  1.7027  1.9265
   36MOL   H104 5774   6.599   5.380   1.333 -0.1808 -0.0665  0.1000
   36MOL   H105 5775   6.756   5.315   1.383 -0.0687  1.2692 -2.2997
   36MOL   C106 5776   6.482   5.331   1.558 -0.4226 -0.6491 -0.9911
   36MOL   C107 5777   6.425   5.278   1.686  0.4640  0.2888 -0.2395
   36MOL   C108 5778   6.291   5.214   1.655  0.0436  0.4723  0.6301
   36MOL   O109 5779   6.195   5.283   1.679 -0.4044 -0.3029 -0.1087
   36MOL   H110 5780   6.414   5.332   1.473 -1.5148  0.1455 -0.1144
   36MOL   H111 5781   6.507   5.435   1.580 -2.0874 -0.6086  0.7569
   36MOL   H112 5782   6.422   5.360   1.758 -1.8562  0.1703 -0.1676
   36MOL   H113 5783   6.480   5.204   1.744 -0.3030 -0.0311  0.0889
   36MOL   C114 5784   6.286   5.081   1.580 -0.3994 -0.2800 -0.4499
   36MOL   C115 5785   6.181   4.983   1.631 -0.2057 -0.2953  0.1789
   36MOL   C116 5786   6.091   4.924   1.528  0.5207 -0.6490 -0.0753
   36MOL   O117 5787   6.141   4.877   1.428 -0.2247  0.3778 -0.3172
   36MOL   H118 5788   6.380   5.030   1.561  0.5837  0.8326  1.3602
   36MOL   H119 5789   6.257   5.112   1.480  2.0834 -0.7955 -1.3624
   36MOL   H120 5790   6.113   5.027   1.703 -1.0445 -2.3210  0.6432
   36MOL   H121 5791   6.241   4.906   1.678 -4.0704 -2.8818  1.0698
   36MOL   C122 5792   5.943   4.909   1.556 -0.0939 -0.2851 -0.0957
   36MOL   C123 5793   5.864   4.891   1.423  0.1905  0.0252 -0.1347
   36MOL   C124 5794   5.822   4.750   1.402 -0.0859  0.6757  0.1209
   36MOL   O125 5795   5.831   4.655   1.480  0.1482 -0.5938  0.3276
   36MOL   H126 5796   5.906   5.005   1.592  1.4599  0.5262 -0.5979
   36MOL   H127 5797   5.931   4.839   1.639  2.6840 -0.0753  0.5283
   36MOL   H128 5798   5.934   4.918   1.344  2.0694  0.3582  1.6188
   36MOL   H129 5799   5.782   4.962   1.420 -0.6843 -0.8942  1.1712
   36MOL   C130 5800   5.764   4.727   1.269 -0.1232 -0.4625 -0.3381
   36MOL   C131 5801   5.743   4.581   1.236 -0.5923 -0.5648  0.1196
   36MOL   C132 5802   5.598   4.538   1.277  0.3721 -0.0327  0.0281
   36MOL   O133 5803   5.520   4.624   1.323 -0.2067 -0.1244 -0.6272
   36MOL   H134 5804   5.836   4.763   1.195  2.7562 -0.6544  2.2443
   36MOL   H135 5805   5.676   4.785   1.242 -0.3535 -1.0427 -0.8346
   36MOL   H136 5806   5.816   4.508   1.271 -0.1309 -1.3868 -2.4541
   36MOL   H137 5807   5.746   4.561   1.129 -3.0441  1.3603 -0.3428
   36MOL   C138 5808   5.559   4.389   1.258  0.1836  0.3943 -0.5921
   36MOL   C139 5809   5.495   4.317   1.373 -0.8127  0.4669 -0.6651
   36MOL   C140 5810   5.589   4.219   1.443  0.2577 -0.3540  0.3675
   36MOL   O141 5811   5.599   4.105   1.405 -0.1907 -0.0673  1.1002
   36MOL   H142 5812   5.651   4.349   1.216 -0.6470 -0.1592 -1.9222
   36MOL   H143 5813   5.487   4.376   1.177  0.6567 -0.7714 -0.8258
   36MOL   H144 5814   5.403   4.268   1.340 -0.9052 -0.7771  1.3021
   36MOL   H145 5815   5.454   4.379   1.453 -1.0166  0.6652 -0.9255
   36MOL   C146 5816   5.673   4.272   1.570  0.0985 -0.0601  0.2838
   36MOL   C147 5817   5.746   4.162   1.653  0.3922  0.0605  0.6004
   36MOL   C148 5818   5.655   4.074   1.733 -0.0856  0.1529 -0.2790
   36MOL   O149 5819   5.538   4.108   1.759 -0.5887 -0.2977 -0.3405
   36MOL   H150 5820   5.608   4.323   1.641 -2.3287 -1.3324 -0.9604
   36MOL   H151 5821   5.742   4.351   1.541 -0.3027 -0.7247 -2.5652
   36MOL   H152 5822   5.809   4.209   1.729  0.4414  0.2109  0.4656
   36MOL   H153 5823   5.803   4.101   1.584  0.0567 -1.4544  1.6393
   36MOL   C154 5824   5.714   3.942   1.758 -0.0462  0.4465 -0.2328
   36MOL   C155 5825   5.635   3.859   1.864 -0.2968 -0.2392  0.5827
   36MOL   C156 5826   5.706   3.860   2.002  0.1969 -0.2542  0.1208
   36MOL   O157 5827   5.830   3.840   2.005 -0.0970  0.1910 -0.2395
   36MOL   H158 5828   5.822   3.946   1.769  0.0359 -0.1233 -0.8284
   36MOL   H159 5829   5.705   3.890   1.662 -0.2965 -0.0175  0.0411
   36MOL   H160 5830   5.639   3.754   1.835  2.4012 -0.1146  0.3795
   36MOL   H161 5831   5.530   3.882   1.878 -0.2287 -0.0507  0.7943
   36MOL   H162 5832   5.639   3.875   2.086 -2.0725  0.9157 -1.8570
   37MOL     C1 5833   2.097   6.882   2.590 -0.1793  0.2733 -0.2343
   37MOL     C2 5834   1.955   6.870   2.647  0.2348 -0.1033  0.2874
   37MOL     C3 5835   1.911   6.719   2.668 -0.1790  0.6771  0.1375
   37MOL     O4 5836   1.991   6.636   2.632  0.2564  0.1362  0.0620
   37MOL     H5 5837   2.112   6.832   2.495 -0.4142 -1.9490  0.8702
   37MOL     H6 5838   2.133   6.982   2.564 -0.2348  0.1590 -0.7491
   37MOL     H7 5839   1.879   6.903   2.575 -0.4128  0.9447  1.4273
   37MOL     H8 5840   1.930   6.940   2.727  0.9323  0.1368  0.2900
   37MOL     H9 5841   2.169   6.855   2.668  1.0028 -0.4014 -1.5450
   37MOL    C10 5842   1.777   6.691   2.745  0.0011 -0.6746  0.3565
   37MOL    C11 5843   1.664   6.631   2.663  0.2028 -0.1103 -0.0147
   37MOL    C12 5844   1.577   6.726   2.590 -0.7048  0.6762  0.0611
   37MOL    O13 5845   1.608   6.844   2.583  0.2105 -0.4328  0.1871
   37MOL    H14 5846   1.752   6.787   2.790 -1.6507 -0.2240 -1.4385
   37MOL    H15 5847   1.795   6.624   2.829  1.3736 -1.2358 -0.3830
   37MOL    H16 5848   1.593   6.583   2.731  0.3916 -0.5865 -0.1519
   37MOL    H17 5849   1.702   6.559   2.591  0.0977 -1.2771  1.0842
   37MOL    C18 5850   1.467   6.676   2.505  0.2505 -0.4857 -0.2106
   37MOL    C19 5851   1.381   6.780   2.424 -0.1727 -0.0098 -0.0848
   37MOL    C20 5852   1.235   6.721   2.405  0.8854 -1.0880 -0.7927
   37MOL    O21 5853   1.194   6.628   2.479 -0.0161  0.4150 -0.2629
   37MOL    H22 5854   1.409   6.626   2.582 -0.7959 -0.3069 -0.8676
   37MOL    H23 5855   1.508   6.609   2.430  2.3322 -0.6063  0.9771
   37MOL    H24 5856   1.422   6.821   2.332  1.8841 -1.3679  0.1968
   37MOL    H25 5857   1.361   6.866   2.488  0.1193 -1.1720  1.5936
   37MOL    C26 5858   1.139   6.774   2.303  0.1045 -0.0827 -0.0509
   37MOL    C27 5859   1.200   6.776   2.160  0.5732 -0.6092  0.0402
   37MOL    C28 5860   1.095   6.785   2.051  0.3562 -0.5393 -0.4486
   37MOL    O29 5861   1.041   6.893   2.025  0.6468 -0.1784 -0.0778
   37MOL    H30 5862   1.099   6.872   2.328  1.2118  0.3484  0.0465
   37MOL    H31 5863   1.059   6.700   2.303  0.2700 -0.2585 -0.6413
   37MOL    H32 5864   1.258   6.688   2.132  0.5855  0.1070 -2.2457
   37MOL    H33 5865   1.252   6.872   2.155  0.2240 -0.4154  0.1611
   37MOL    C34 5866   1.072   6.657   1.972  1.0955  0.1744  1.0340
   37MOL    C35 5867   0.927   6.634   1.940  0.0571 -0.5026 -0.4612
   37MOL    C36 5868   0.898   6.484   1.929  0.1897  0.4691  0.5047
   37MOL    O37 5869   0.985   6.408   1.881  0.5519  0.5145  0.3664
   37MOL    H38 5870   1.120   6.576   2.026  1.8067  0.0015  0.1473
   37MOL    H39 5871   1.137   6.650   1.885 -0.3954 -0.3964 -0.0468
   37MOL    H40 5872   0.891   6.697   1.859  1.2117  0.1037 -0.5219
   37MOL    H41 5873   0.871   6.677   2.023  1.1117  1.7911 -0.8896
   37MOL    C42 5874   0.771   6.424   1.986  0.0501  0.2049 -0.6073
   37MOL    C43 5875   0.668   6.458   1.882  0.3907  0.1790 -0.1934
   37MOL    C44 5876   0.527   6.408   1.921 -0.1347  0.1356 -0.1544
   37MOL    O45 5877   0.510   6.328   2.013 -0.1047 -0.3457 -0.0301
   37MOL    H46 5878   0.740   6.461   2.084 -1.7386 -1.5716 -0.4565
   37MOL    H47 5879   0.772   6.315   1.984  0.3444  0.1954 -0.0317
   37MOL    H48 5880   0.692   6.426   1.780 -0.8780 -1.0563 -0.1336
   37MOL    H49 5881   0.670   6.566   1.870 -0.9402  0.2316 -0.0850
   37MOL    C50 5882   0.410   6.470   1.849 -0.4326 -0.1060  0.1112
   37MOL    C51 5883   0.353   6.369   1.750  0.0431 -0.0703  0.4762
   37MOL    C52 5884   0.420   6.387   1.615  0.2851 -0.4665  0.6271
   37MOL    O53 5885   0.525   6.450   1.598 -0.6032  0.3302  0.4087
   37MOL    H54 5886   0.438   6.560   1.795  1.9519 -0.7226  0.2683
   37MOL    H55 5887   0.332   6.498   1.921  0.6110 -0.0705  1.2478
   37MOL    H56 5888   0.246   6.382   1.737 -0.1661 -2.0110  0.0766
   37MOL    H57 5889   0.373   6.271   1.794  2.2718  0.5668  0.9601
   37MOL    C58 5890   0.358   6.305   1.501 -0.1941  0.0081 -0.3254
   37MOL    C59 5891   0.390   6.364   1.361  0.0168 -0.3251  0.7657
   37MOL    C60 5892   0.364   6.273   1.238 -0.4990 -0.0877  0.0669
   37MOL    O61 5893   0.457   6.215   1.178  0.5141  0.3540 -0.1303
   37MOL    H62 5894   0.254   6.284   1.524 -0.0759  1.2061  1.4205
   37MOL    H63 5895   0.403   6.206   1.498  0.9383  0.4667  0.6645
   37MOL    H64 5896   0.491   6.404   1.350  0.6237 -1.7072  1.0704
   37MOL    H65 5897   0.331   6.454   1.349 -0.4798 -0.8500 -0.8736
   37MOL    C66 5898   0.217   6.254   1.203  0.5997 -0.5193 -0.3004
   37MOL    C67 5899   0.201   6.174   1.082  0.4056 -0.1543  0.2843
   37MOL    C68 5900   0.060   6.168   1.025  0.4092  0.2134  0.4656
   37MOL    O69 5901   7.823   6.232   1.076  0.3626  0.4097  0.3249
   37MOL    H70 5902   0.177   6.355   1.192 -0.0131 -0.8728 -1.3611
   37MOL    H71 5903   0.162   6.218   1.290  1.7905 -0.8055  0.3409
   37MOL    H72 5904   0.252   6.082   1.111 -2.1830 -1.0787  2.0851
   37MOL    H73 5905   0.262   6.216   1.002  0.7856 -0.5843  0.3436
   37MOL    C74 5906   0.039   6.085   0.898  0.1033  0.2042 -0.2980
   37MOL    C75 5907   7.754   6.083   0.844 -0.0307 -0.4301  0.5091
   37MOL    C76 5908   7.721   5.972   0.750  0.0931  0.3640 -0.4272
   37MOL    O77 5909   7.768   5.974   0.637 -0.1277 -0.1368  0.3100
   37MOL    H78 5910   0.075   5.984   0.912 -1.6103 -0.1591  1.8198
   37MOL    H79 5911   0.110   6.119   0.822 -0.1218  1.8147  0.1896
   37MOL    H80 5912   7.746   6.178   0.791  0.7564 -0.2614  0.6842
   37MOL    H81 5913   7.678   6.080   0.922 -1.1101 -0.0661 -0.5185
   37MOL    C82 5914   7.633   5.854   0.798  0.0766 -0.6511 -0.0563
   37MOL    C83 5915   7.555   5.778   0.697  0.5402  0.4220 -0.1263
   37MOL    C84 5916   7.629   5.650   0.649  0.0738 -0.5035  0.0806
   37MOL    O85 5917   7.714   5.600   0.717 -0.3301 -0.1670 -0.4286
   37MOL    H86 5918   7.564   5.895   0.872 -0.2990  3.5782 -2.5659
   37MOL    H87 5919   7.682   5.785   0.867 -0.4926  0.8161  1.8809
   37MOL    H88 5920   7.529   5.838   0.610  0.6318 -1.8250 -1.7562
   37MOL    H89 5921   7.459   5.766   0.748  0.1586  1.8351 -0.4793
   37MOL    C90 5922   7.576   5.582   0.524 -0.2505 -0.6868 -0.4569
   37MOL    C91 5923   7.657   5.463   0.474 -0.1213 -0.6156  0.1566
   37MOL    C92 5924   7.561   5.353   0.412 -0.1108 -0.0673  0.0222
   37MOL    O93 5925   7.452   5.322   0.454  0.6616 -0.1578  0.0171
   37MOL    H94 5926   7.572   5.654   0.443  2.4764 -1.8192 -1.6443
   37MOL    H95 5927   7.471   5.555   0.537  0.2593 -1.5251  2.1990
   37MOL    H96 5928   7.734   5.422   0.540  0.2623 -2.3929 -1.3322
   37MOL    H97 5929   7.713   5.500   0.388 -3.1305 -0.6666 -1.9067
   37MOL    C98 5930   7.616   5.285   0.286 -0.3308 -0.4626  0.4901
   37MOL    C99 5931   7.601   5.370   0.164 -0.3991  0.0256  0.0178
   37MOL   C100 5932   7.478   5.325   0.081  0.2668  0.5580 -0.5087
   37MOL   O101 5933   7.376   5.394   0.052 -0.4088  0.0859  0.0635
   37MOL   H102 5934   7.581   5.182   0.274 -1.4021 -0.2149  1.4335
   37MOL   H103 5935   7.722   5.269   0.304  0.1115 -0.4724 -2.0377
   37MOL   H104 5936   7.684   5.366   0.094 -0.7700  0.7533 -0.4803
   37MOL   H105 5937   7.587   5.474   0.195  0.5120  0.6037 -1.4731
   37MOL   C106 5938   7.498   5.185   0.009  0.6738  0.2755 -0.5512
   37MOL   C107 5939   7.361   5.116   7.851  0.0382 -0.8515 -0.1363
   37MOL   C108 5940   7.308   5.048   0.115 -0.1485  0.2170 -0.9877
   37MOL   O109 5941   7.354   4.942   0.150  0.3789 -0.1126  0.0306
   37MOL   H110 5942   7.565   5.115   0.059 -0.9037 -1.0833 -0.2779
   37MOL   H111 5943   7.540   5.199   7.769 -0.9479  1.5880 -1.0878
   37MOL   H112 5944   7.372   5.048   7.767  0.0715 -2.8027  1.4247
   37MOL   H113 5945   7.281   5.185   7.823  1.4515  1.3151  0.9646
   37MOL   C114 5946   7.213   5.128   0.205 -0.0419 -0.0044  0.5665
   37MOL   C115 5947   7.104   5.045   0.279 -0.1415  0.1666 -0.4285
   37MOL   C116 5948   6.975   5.025   0.194  0.2850 -0.5066 -0.2414
   37MOL   O117 5949   6.953   5.075   0.084  0.2428  0.0513  0.1619
   37MOL   H118 5950   7.163   5.200   0.140  1.0069  0.2727  0.0649
   37MOL   H119 5951   7.266   5.198   0.268  0.7635  0.8614 -1.0681
   37MOL   H120 5952   7.078   5.069   0.382 -1.4227  0.7684 -0.8810
   37MOL   H121 5953   7.160   4.953   0.291  3.1926  1.9287 -1.8342
   37MOL   C122 5954   6.875   4.940   0.260 -0.0539  0.1852  0.4962
   37MOL   C123 5955   6.891   4.800   0.229 -0.2899  0.3740  0.6077
   37MOL   C124 5956   6.761   4.715   0.230 -0.4428 -0.6918  0.4631
   37MOL   O125 5957   6.734   4.634   0.317 -0.5105  0.7753 -0.1974
   37MOL   H126 5958   6.771   4.971   0.251 -0.0636  0.0513  0.1456
   37MOL   H127 5959   6.879   4.958   0.367  0.4064  0.3167  0.4561
   37MOL   H128 5960   6.968   4.752   0.289 -1.9017 -2.6448  0.4180
   37MOL   H129 5961   6.931   4.789   0.128 -0.1098  0.9871  0.6147
   37MOL   C130 5962   6.652   4.750   0.134 -0.2621  0.4376 -0.1602
   37MOL   C131 5963   6.517   4.678   0.148  0.1132  0.2596  0.6644
   37MOL   C132 5964   6.503   4.547   0.081 -0.1856 -0.9567 -0.3958
   37MOL   O133 5965   6.585   4.514   0.001 -0.1813  0.2084  0.6351
   37MOL   H134 5966   6.704   4.736   0.039  2.5562  1.9803  1.1037
   37MOL   H135 5967   6.627   4.855   0.143  1.3210  0.7516  0.7928
   37MOL   H136 5968   6.440   4.745   0.109 -0.9617 -1.5386 -0.3684
   37MOL   H137 5969   6.499   4.666   0.255  1.4802 -1.2805  0.7352
   37MOL   C138 5970   6.372   4.477   0.092 -0.0377 -0.0497  0.8117
   37MOL   C139 5971   6.372   4.331   0.034  0.1235 -0.4094  0.1261
   37MOL   C140 5972   6.258   4.309   7.789  0.0969 -0.0763 -0.3230
   37MOL   O141 5973   6.157   4.384   7.790 -0.3959  0.5156 -0.0681
   37MOL   H142 5974   6.308   4.547   0.038 -1.1508  0.1688  2.3806
   37MOL   H143 5975   6.347   4.480   0.198 -1.6098  2.3119  0.4365
   37MOL   H144 5976   6.354   4.262   0.117 -0.5374 -0.7616 -0.3094
   37MOL   H145 5977   6.475   4.309   0.008  0.0642 -0.5545  0.0131
   37MOL   C146 5978   6.262   4.183   7.709  0.3670  0.5340 -0.3633
   37MOL   C147 5979   6.149   4.075   7.737  0.0760 -0.4723 -0.1299
   37MOL   C148 5980   6.196   3.937   7.714  0.6405  0.1497  0.6147
   37MOL   O149 5981   6.254   3.908   7.609 -0.1413  0.4887  0.1929
   37MOL   H150 5982   6.362   4.143   7.727  0.7788  1.2793 -0.9790
   37MOL   H151 5983   6.258   4.207   7.603 -0.1389 -1.4698 -0.8340
   37MOL   H152 5984   6.058   4.105   7.685  0.1320 -0.6056 -0.3037
   37MOL   H153 5985   6.117   4.084   7.841 -0.2876 -1.9724 -0.1010
   37MOL   C154 5986   6.161   3.824   7.818  1.4557  0.4869  0.5876
   37MOL   C155 5987   6.027   3.759   7.794 -0.0433  1.0826 -0.5253
   37MOL   C156 5988   5.977   3.689   0.064 -0.0708  0.0926 -1.1314
   37MOL   O157 5989   5.991   3.746   0.177 -0.6249 -0.5680  0.2122
   37MOL   H158 5990   6.167   3.883   0.050 -2.8811  1.3688  0.3844
   37MOL   H159 5991   6.246   3.755   7.819  2.5801  1.8283 -0.4454
   37MOL   H160 5992   6.035   3.688   7.712  1.6272  0.5806  0.0466
   37MOL   H161 5993   5.943   3.824   7.769 -0.3295  1.2163  0.7195
   37MOL   H162 5994   5.927   3.592   0.058 -0.4791  0.3226 -1.5716
   38MOL     C1 5995   2.166   6.901   4.427 -0.1280 -0.2509  0.6635
   38MOL     C2 5996   2.119   6.880   4.566  0.1668  0.4297 -0.8122
   38MOL     C3 5997   2.155   7.004   4.653 -0.1885  0.4078  0.3143
   38MOL     O4 5998   2.151   7.120   4.607 -0.0700 -0.1198  0.1012
   38MOL     H5 5999   2.081   6.882   4.362  0.0256  0.9164  0.1003
   38MOL     H6 6000   2.193   7.003   4.400 -2.7654  0.3532  0.1988
   38MOL     H7 6001   2.161   6.794   4.618 -2.9522 -0.6920 -0.0369
   38MOL     H8 6002   2.010   6.877   4.562  0.1538 -0.1925 -0.0515
   38MOL     H9 6003   2.242   6.827   4.402 -0.4743 -0.2945 -0.2680
   38MOL    C10 6004   2.184   6.988   4.794  0.0832 -0.2539  0.5465
   38MOL    C11 6005   2.275   7.098   4.852 -0.5285 -0.2962 -0.3901
   38MOL    C12 6006   2.206   7.206   4.928 -0.4896 -0.1299  0.1916
   38MOL    O13 6007   2.092   7.232   4.913 -0.8144  0.0417  0.6712
   38MOL    H14 6008   2.226   6.889   4.810  0.8317 -0.1875 -0.8654
   38MOL    H15 6009   2.086   6.990   4.840 -0.2557 -0.3620 -0.1683
   38MOL    H16 6010   2.341   7.148   4.781 -1.2096  0.7227 -0.3192
   38MOL    H17 6011   2.333   7.055   4.934 -1.1336  1.9547  1.2655
   38MOL    C18 6012   2.280   7.292   5.034 -0.4175  0.1172  0.2419
   38MOL    C19 6013   2.185   7.344   5.147 -0.1934  0.5771  0.2180
   38MOL    C20 6014   2.234   7.323   5.285 -0.3586  0.0913 -0.6028
   38MOL    O21 6015   2.353   7.317   5.306 -0.4970 -0.6284  0.2772
   38MOL    H22 6016   2.329   7.377   4.986  0.9194 -1.0756 -0.5578
   38MOL    H23 6017   2.364   7.234   5.072  0.1506 -0.0206 -1.1685
   38MOL    H24 6018   2.080   7.315   5.136 -0.5104  1.4660  0.7943
   38MOL    H25 6019   2.180   7.453   5.144  1.0265  0.7160  1.9939
   38MOL    C26 6020   2.131   7.299   5.385  0.0280  0.2005  0.3800
   38MOL    C27 6021   2.183   7.238   5.512  0.1827 -0.9064  0.4515
   38MOL    C28 6022   2.228   7.343   5.614 -0.1275 -0.0466 -0.1813
   38MOL    O29 6023   2.153   7.430   5.667 -0.1248 -0.3248  0.1625
   38MOL    H30 6024   2.049   7.246   5.337  1.1821 -2.0569  0.7970
   38MOL    H31 6025   2.089   7.392   5.423 -0.7398 -0.7611  1.9484
   38MOL    H32 6026   2.250   7.153   5.499  0.0715 -0.8873 -0.2555
   38MOL    H33 6027   2.094   7.189   5.553 -0.6039 -0.3919 -0.6254
   38MOL    C34 6028   2.379   7.356   5.644 -0.0803 -0.8162 -0.1250
   38MOL    C35 6029   2.398   7.426   5.778 -0.2091  0.3232 -0.2232
   38MOL    C36 6030   2.463   7.562   5.771  0.0128 -0.4940  0.3021
   38MOL    O37 6031   2.535   7.605   5.678  0.4303  0.3886 -0.2061
   38MOL    H38 6032   2.420   7.407   5.558  1.4951 -1.2731  0.3423
   38MOL    H39 6033   2.417   7.254   5.648  1.2540 -0.3470 -0.5606
   38MOL    H40 6034   2.466   7.367   5.840  0.4258  0.3192 -0.9227
   38MOL    H41 6035   2.307   7.430   5.839 -0.3711 -2.1597 -0.2541
   38MOL    C42 6036   2.417   7.653   5.885  0.2019 -0.1066  0.4646
   38MOL    C43 6037   2.523   7.752   5.941 -0.4566  0.4803 -0.1862
   38MOL    C44 6038   2.489   0.036   5.929  0.2106 -0.1440 -0.4637
   38MOL    O45 6039   2.454   0.094   6.029 -0.0439  0.1280  0.2701
   38MOL    H46 6040   2.381   7.593   5.968 -0.1202 -0.7033 -0.1001
   38MOL    H47 6041   2.328   7.712   5.863 -0.8018 -1.6314  0.3462
   38MOL    H48 6042   2.622   7.737   5.900 -1.0582 -0.6006 -1.2743
   38MOL    H49 6043   2.541   7.727   6.045  0.7712  2.7062  0.1738
   38MOL    C50 6044   2.506   0.106   5.793  0.9462  0.5594  0.0457
   38MOL    C51 6045   2.463   0.255   5.794  0.1909 -0.1920  0.6725
   38MOL    C52 6046   2.320   0.284   5.746  0.2948 -0.2930  0.4941
   38MOL    O53 6047   2.230   0.198   5.734  0.1487  0.2681  0.4887
   38MOL    H54 6048   2.449   0.042   5.725  2.2725 -1.7595  1.0600
   38MOL    H55 6049   2.605   0.090   5.752  0.6831 -3.8340  0.9219
   38MOL    H56 6050   2.526   0.311   5.724 -0.9913 -0.3950 -0.5644
   38MOL    H57 6051   2.474   0.298   5.894  1.4515  2.2393 -0.4755
   38MOL    C58 6052   2.293   0.434   5.710 -0.3770  0.2665 -0.0727
   38MOL    C59 6053   2.184   0.487   5.797 -0.0368 -0.2113 -0.2725
   38MOL    C60 6054   2.064   0.556   5.721  0.7061  0.0006  0.0907
   38MOL    O61 6055   2.065   0.679   5.700  0.1680  0.5378  0.3645
   38MOL    H62 6056   2.267   0.436   5.604 -1.5201 -0.0034  0.1886
   38MOL    H63 6057   2.380   0.495   5.733 -0.5223  1.1059 -1.6662
   38MOL    H64 6058   2.226   0.562   5.864 -0.5848  1.5427 -1.8361
   38MOL    H65 6059   2.122   0.408   5.840 -0.6419  0.3920 -0.0389
   38MOL    C66 6060   1.942   0.477   5.669  0.3311  0.5491 -0.2818
   38MOL    C67 6061   1.870   0.534   5.548  0.2642 -0.0975 -0.1898
   38MOL    C68 6062   1.952   0.538   5.415  0.0921 -0.3124 -0.2085
   38MOL    O69 6063   2.053   0.469   5.399  0.3653  0.4940 -0.5044
   38MOL    H70 6064   1.883   0.452   5.757 -2.0518  0.9830 -1.7106
   38MOL    H71 6065   1.963   0.371   5.651  1.8128  0.9442 -0.9504
   38MOL    H72 6066   1.841   0.638   5.566 -1.0405 -0.6710  1.1200
   38MOL    H73 6067   1.784   0.471   5.527  2.1652 -2.6364 -0.5622
   38MOL    C74 6068   1.896   0.624   5.310  0.5278 -0.3303  0.3144
   38MOL    C75 6069   1.903   0.566   5.166  0.1942  0.4438  0.3313
   38MOL    C76 6070   1.767   0.560   5.100 -0.2408 -0.1209 -0.2316
   38MOL    O77 6071   1.664   0.542   5.167  0.5143 -0.5086  0.3397
   38MOL    H78 6072   1.937   0.724   5.322  0.9165 -0.4640  0.1098
   38MOL    H79 6073   1.795   0.634   5.351  0.1226 -1.3701 -0.4008
   38MOL    H80 6074   1.951   0.468   5.165  1.2297  0.9371  0.9996
   38MOL    H81 6075   1.968   0.631   5.107  1.5908 -2.2960 -1.2354
   38MOL    C82 6076   1.768   0.571   4.949  0.2186  0.2060  0.0242
   38MOL    C83 6077   1.808   0.703   4.882  0.6819 -0.1713 -0.3816
   38MOL    C84 6078   1.690   0.782   4.834 -0.5483 -0.3030  0.6796
   38MOL    O85 6079   1.571   0.759   4.861 -0.3864 -0.2591  0.4147
   38MOL    H86 6080   1.676   0.529   4.907  0.0089  0.3238  0.3629
   38MOL    H87 6081   1.843   0.501   4.913 -1.5911 -0.5875 -2.3728
   38MOL    H88 6082   1.855   0.679   4.787 -1.8909 -2.2888 -1.1911
   38MOL    H89 6083   1.875   0.769   4.937  0.5984  0.5180 -1.0934
   38MOL    C90 6084   1.724   0.900   4.751  0.5644 -0.6457 -0.3566
   38MOL    C91 6085   1.757   0.853   4.612  0.3180  0.3466  0.3368
   38MOL    C92 6086   1.772   0.971   4.525 -0.2357 -0.6700  0.2910
   38MOL    O93 6087   1.681   1.050   4.506  0.7200  0.6195 -0.4669
   38MOL    H94 6088   1.802   0.960   4.798  1.8880 -2.2956 -0.3951
   38MOL    H95 6089   1.634   0.961   4.742  0.1560 -1.2149 -0.1711
   38MOL    H96 6090   1.689   0.781   4.566 -0.2129  0.6704  0.6054
   38MOL    H97 6091   1.851   0.800   4.612  1.6586  2.6507  1.1995
   38MOL    C98 6092   1.915   1.010   4.481 -0.5972  0.3031 -0.5840
   38MOL    C99 6093   1.911   1.126   4.389 -0.0298 -0.1623  0.5186
   38MOL   C100 6094   2.031   1.136   4.298  0.0155 -0.6233  0.5026
   38MOL   O101 6095   2.121   1.050   4.297 -0.4711 -0.1394 -0.8057
   38MOL   H102 6096   1.959   0.923   4.432 -0.2693  1.2225 -1.9425
   38MOL   H103 6097   1.969   1.049   4.567 -0.3713 -0.6927 -0.2616
   38MOL   H104 6098   1.893   1.212   4.453  0.0439 -0.3752  0.8266
   38MOL   H105 6099   1.819   1.117   4.330 -1.4873 -1.1490  2.8379
   38MOL   C106 6100   2.047   1.267   4.217 -0.4612 -0.9217  0.8297
   38MOL   C107 6101   2.182   1.265   4.139  0.0421  0.3802 -0.4605
   38MOL   C108 6102   2.215   1.408   4.091 -0.2155 -0.0631 -0.8600
   38MOL   O109 6103   2.254   1.496   4.167 -0.6384 -0.4456  0.7944
   38MOL   H110 6104   2.045   1.355   4.281  0.3895 -1.0082  0.9824
   38MOL   H111 6105   1.963   1.280   4.148  1.1093 -0.8818 -1.1172
   38MOL   H112 6106   2.184   1.195   4.056 -0.6193  0.5499 -0.6301
   38MOL   H113 6107   2.262   1.231   4.204 -1.2861 -1.8177  0.0991
   38MOL   C114 6108   2.201   1.447   3.939  0.0138  0.0475 -0.2800
   38MOL   C115 6109   2.322   1.510   3.881  0.1730 -0.1941  0.2479
   38MOL   C116 6110   2.308   1.547   3.737  0.1899 -0.1761  0.3996
   38MOL   O117 6111   2.220   1.505   3.668  0.4181  0.3077  0.1138
   38MOL   H118 6112   2.115   1.514   3.933  0.2177  0.1073 -3.1159
   38MOL   H119 6113   2.173   1.356   3.886 -0.9633  0.9894 -1.3961
   38MOL   H120 6114   2.414   1.452   3.885  0.6225  0.3569 -1.6611
   38MOL   H121 6115   2.351   1.598   3.938  0.6971 -1.5185  2.0528
   38MOL   C122 6116   2.417   1.644   3.682 -0.3228  1.0233  0.1219
   38MOL   C123 6117   2.377   1.787   3.711  0.1844  0.3267 -0.3823
   38MOL   C124 6118   2.475   1.852   3.813  0.6775 -0.1823 -0.4136
   38MOL   O125 6119   2.508   1.794   3.921 -0.0576  0.0710  0.6640
   38MOL   H126 6120   2.428   1.623   3.576  0.5266  2.1584 -0.0290
   38MOL   H127 6121   2.508   1.613   3.733  0.0888 -0.9899 -1.7686
   38MOL   H128 6122   2.282   1.781   3.764 -0.4897 -0.1309 -1.6358
   38MOL   H129 6123   2.361   1.861   3.633  0.1001  0.8987  0.1745
   38MOL   C130 6124   2.529   1.985   3.784  0.6678  0.6387  0.9809
   38MOL   C131 6125   2.450   2.100   3.855  0.1704 -0.3098 -0.3433
   38MOL   C132 6126   2.437   2.224   3.773 -0.0198 -0.0747  0.5059
   38MOL   O133 6127   2.371   2.222   3.668 -0.2644 -0.3873 -0.2811
   38MOL   H134 6128   2.518   1.993   3.676 -1.6033 -1.9932  0.9633
   38MOL   H135 6129   2.635   1.986   3.811  0.6352  2.4235  1.1393
   38MOL   H136 6130   2.488   2.129   3.952  0.0292  0.9779 -0.6607
   38MOL   H137 6131   2.351   2.069   3.887 -1.0466  2.5030 -1.2161
   38MOL   C138 6132   2.506   2.348   3.813 -0.0744  0.2747 -0.0710
   38MOL   C139 6133   2.512   2.382   3.959  0.9406 -0.6603 -0.3698
   38MOL   C140 6134   2.577   2.515   3.972 -0.8380 -0.1249 -0.4685
   38MOL   O141 6135   2.529   2.616   3.916 -0.1891 -0.3180  0.6730
   38MOL   H142 6136   2.462   2.426   3.750 -0.6923  0.9885  1.2122
   38MOL   H143 6137   2.607   2.324   3.780  0.4863  2.7134 -0.2887
   38MOL   H144 6138   2.572   2.309   4.014  1.1011 -1.3152 -1.3790
   38MOL   H145 6139   2.411   2.387   3.998  1.2249  2.4442  0.0326
   38MOL   C146 6140   2.693   2.527   4.068  0.1629  1.0015 -0.6209
   38MOL   C147 6141   2.765   2.668   4.064 -1.1690 -0.2634 -0.1419
   38MOL   C148 6142   2.890   2.666   3.977 -0.4955 -0.0347 -0.2391
   38MOL   O149 6143   2.933   2.559   3.924  0.2348  0.1049 -0.1148
   38MOL   H150 6144   2.745   2.432   4.052 -0.1817  0.8378 -0.7902
   38MOL   H151 6145   2.660   2.503   4.169  0.2963 -2.0508 -1.2482
   38MOL   H152 6146   2.783   2.707   4.164 -0.2586  0.1468 -0.4654
   38MOL   H153 6147   2.696   2.741   4.023  0.0244  1.2226  0.4555
   38MOL   C154 6148   2.965   2.801   3.964  0.5375 -0.3157  0.3143
   38MOL   C155 6149   3.081   2.797   3.858 -0.5697 -0.1512 -0.3835
   38MOL   C156 6150   3.100   2.933   3.799  0.2486 -0.4947  0.2738
   38MOL   O157 6151   3.010   3.001   3.744  0.2714  0.3025  0.5045
   38MOL   H158 6152   3.001   2.831   4.062 -1.6081  1.5830  0.5392
   38MOL   H159 6153   2.884   2.870   3.941  0.4377 -0.3970  0.4198
   38MOL   H160 6154   3.053   2.728   3.779  0.0157 -1.3419  0.4212
   38MOL   H161 6155   3.170   2.756   3.906 -0.7540 -0.4205 -0.2686
   38MOL   H162 6156   3.199   2.978   3.808  0.6533 -1.3794  0.3146
   39MOL     C1 6157   2.016   7.111   5.973 -0.7632 -0.3962  0.6054
   39MOL     C2 6158   2.087   7.233   6.041  0.4047 -0.3120 -0.1384
   39MOL     C3 6159   2.237   7.225   6.040 -0.2476  0.2065 -0.1926
   39MOL     O4 6160   2.298   7.166   5.954 -0.5927  0.7630 -0.0756
   39MOL     H5 6161   1.917   7.099   6.016 -1.0466  0.4027  0.1719
   39MOL     H6 6162   2.009   7.130   5.866 -1.5088 -2.8281  0.1871
   39MOL     H7 6163   2.069   7.254   6.146  2.2409  3.1122 -0.4478
   39MOL     H8 6164   2.057   7.321   5.984 -0.9166  0.2294  1.3771
   39MOL     H9 6165   2.076   7.023   5.998  0.8957  0.2186 -1.0420
   39MOL    C10 6166   2.310   7.305   6.149  0.1004  0.6041  0.4170
   39MOL    C11 6167   2.460   7.277   6.144 -0.0125  0.1108  0.4688
   39MOL    C12 6168   2.525   7.248   6.279 -0.2673  0.4577 -0.0289
   39MOL    O13 6169   2.592   7.148   6.302  0.3389  0.2130 -0.4245
   39MOL    H14 6170   2.267   7.283   6.247 -1.2927  0.3603 -0.2373
   39MOL    H15 6171   2.289   7.409   6.125  0.2713  0.6134  0.3080
   39MOL    H16 6172   2.515   7.365   6.111 -0.9997  0.7220  0.4363
   39MOL    H17 6173   2.480   7.187   6.086 -0.9907 -0.3109  0.7851
   39MOL    C18 6174   2.535   7.358   6.374 -0.0605 -0.4825 -0.0581
   39MOL    C19 6175   2.592   7.328   6.517  0.4319  0.2662 -0.4297
   39MOL    C20 6176   2.583   7.449   6.603 -0.1185 -0.3991  0.3201
   39MOL    O21 6177   2.503   7.542   6.576 -0.1822 -0.1977 -0.3280
   39MOL    H22 6178   2.432   7.395   6.374  0.0518 -0.0597  2.6806
   39MOL    H23 6179   2.606   7.426   6.327 -0.2205  0.2320  0.7178
   39MOL    H24 6180   2.698   7.306   6.501  0.0052 -1.2502 -1.3139
   39MOL    H25 6181   2.538   7.239   6.550 -0.1553  0.1207 -1.7453
   39MOL    C26 6182   2.664   7.454   6.728 -0.7093  0.1862 -0.0741
   39MOL    C27 6183   2.634   7.566   6.833 -0.2949 -0.8423  0.4225
   39MOL    C28 6184   2.570   7.505   6.960  0.3341  0.5443 -0.5587
   39MOL    O29 6185   2.628   7.438   7.046  0.1595 -0.4322 -0.7367
   39MOL    H30 6186   2.768   7.470   6.700 -0.1713 -2.3089  0.3810
   39MOL    H31 6187   2.654   7.359   6.780 -1.1162  0.2265 -0.0746
   39MOL    H32 6188   2.569   7.646   6.799 -1.1981 -2.1061 -0.8914
   39MOL    H33 6189   2.731   7.608   6.859 -1.1279  1.5433 -0.1878
   39MOL    C34 6190   2.429   7.556   6.977 -0.2111  0.8368 -0.1820
   39MOL    C35 6191   2.360   7.474   7.086 -0.4118 -0.4791 -0.7897
   39MOL    C36 6192   2.209   7.502   7.081 -0.3117  0.3274 -0.2999
   39MOL    O37 6193   2.159   7.595   7.140 -0.0184 -0.2647  0.3185
   39MOL    H38 6194   2.378   7.551   6.882  0.6610  3.0124 -0.8021
   39MOL    H39 6195   2.434   7.662   7.003  1.5474  0.4594  1.1750
   39MOL    H40 6196   2.395   7.515   7.181  0.3996 -3.7450  0.3731
   39MOL    H41 6197   2.382   7.368   7.083 -0.6899 -0.6110  0.9343
   39MOL    C42 6198   2.124   7.412   6.994  0.0129 -0.1098 -0.0522
   39MOL    C43 6199   1.975   7.416   7.042  0.0483  0.4042 -0.0140
   39MOL    C44 6200   1.898   7.311   6.955 -0.1427 -0.4421 -0.6836
   39MOL    O45 6201   1.955   7.251   6.866  0.7406 -0.5590  0.7590
   39MOL    H46 6202   2.158   7.309   6.997  2.2210  0.6208  0.9585
   39MOL    H47 6203   2.134   7.450   6.893  0.3293  1.3775  0.5168
   39MOL    H48 6204   1.925   7.511   7.020  0.6715  0.6489 -0.3697
   39MOL    H49 6205   1.952   7.409   7.148  1.0543  2.3670  0.3670
   39MOL    C50 6206   1.752   7.299   6.989 -0.3747 -0.7166 -0.2600
   39MOL    C51 6207   1.714   7.152   6.983  0.2461  0.2333  0.0314
   39MOL    C52 6208   1.581   7.137   6.910  0.3598  0.6513 -0.2337
   39MOL    O53 6209   1.541   7.215   6.828  0.2023 -0.1766 -0.1612
   39MOL    H54 6210   1.711   7.372   6.919  0.2667 -0.3052 -0.2083
   39MOL    H55 6211   1.727   7.333   7.090 -0.1560  0.5008 -0.6084
   39MOL    H56 6212   1.707   7.119   7.087  3.0802  1.4012  0.6479
   39MOL    H57 6213   1.776   7.093   6.916 -0.9150 -0.1500 -0.7167
   39MOL    C58 6214   1.499   7.020   6.951  0.0730 -0.1247 -0.7108
   39MOL    C59 6215   1.371   7.065   7.011  1.2602 -0.1218 -0.1507
   39MOL    C60 6216   1.363   7.070   7.162  0.2799  0.3240  0.7990
   39MOL    O61 6217   1.467   7.093   7.226 -0.6206  0.1856 -0.1846
   39MOL    H62 6218   1.557   6.950   7.011  0.7867 -0.4186 -1.7384
   39MOL    H63 6219   1.485   6.957   6.864  1.0596 -0.0497 -0.9303
   39MOL    H64 6220   1.295   7.000   6.966 -0.7277  2.2729 -0.3463
   39MOL    H65 6221   1.351   7.167   6.980  0.3188 -0.6743 -1.4127
   39MOL    C66 6222   1.231   7.064   7.230  0.2446  0.4934  0.6041
   39MOL    C67 6223   1.246   7.113   7.369  0.3274  0.2280  0.4555
   39MOL    C68 6224   1.111   7.136   7.438 -0.4351  0.4569  0.4375
   39MOL    O69 6225   1.017   7.194   7.393 -0.0464 -0.4500 -0.1967
   39MOL    H70 6226   1.188   6.965   7.220  0.5238  0.6067 -2.3012
   39MOL    H71 6227   1.167   7.136   7.180  0.2113  0.0009 -0.0741
   39MOL    H72 6228   1.290   7.211   7.386  0.4239 -0.0285  1.7244
   39MOL    H73 6229   1.300   7.043   7.433  0.9630  0.9357  0.6942
   39MOL    C74 6230   1.092   7.072   7.581 -0.5143 -0.5668 -0.6055
   39MOL    C75 6231   1.141   7.173   7.688 -0.3357  0.6427 -0.4586
   39MOL    C76 6232   1.183   7.106   7.818  0.0135 -0.0311 -0.5732
   39MOL    O77 6233   1.197   6.983   7.834 -0.2961  0.3440  0.4905
   39MOL    H78 6234   1.147   6.978   7.589  0.0949 -0.1968 -0.4447
   39MOL    H79 6235   0.987   7.049   7.603  0.2161 -0.4487  3.2703
   39MOL    H80 6236   1.054   7.233   7.716 -0.3368  0.0017  0.9655
   39MOL    H81 6237   1.220   7.237   7.650  1.2360 -1.0926 -0.1986
   39MOL    C82 6238   1.226   7.198   0.074 -0.0476  0.0071 -0.6648
   39MOL    C83 6239   1.280   7.118   0.191 -1.3042  0.5510  0.0949
   39MOL    C84 6240   1.431   7.081   0.185  0.7360  0.5728 -0.0813
   39MOL    O85 6241   1.497   7.130   0.091 -0.2063  0.0895 -0.2016
   39MOL    H86 6242   1.137   7.256   0.100  0.3822  0.1348  0.5594
   39MOL    H87 6243   1.312   7.254   0.035 -0.2608  0.8585  0.0589
   39MOL    H88 6244   1.216   7.031   0.205 -0.4193 -0.1161  0.0256
   39MOL    H89 6245   1.270   7.182   0.279 -0.1511 -2.4557  2.5038
   39MOL    C90 6246   1.488   6.981   0.293 -0.7199 -0.5282 -0.0726
   39MOL    C91 6247   1.568   7.037   0.413  0.0910 -0.1482  0.4358
   39MOL    C92 6248   1.476   7.069   0.529  0.2745  0.6575 -0.0515
   39MOL    O93 6249   1.351   7.073   0.518 -0.5734 -0.3427 -0.2088
   39MOL    H94 6250   1.562   6.917   0.245 -0.2757  0.7059 -1.0470
   39MOL    H95 6251   1.412   6.912   0.330 -0.5293  0.8596  3.0903
   39MOL    H96 6252   1.628   7.125   0.389 -1.9071  0.7019 -1.6411
   39MOL    H97 6253   1.623   6.949   0.448 -3.4421 -2.1506  1.1754
   39MOL    C98 6254   1.531   7.064   0.664 -0.0146  0.5853  0.8033
   39MOL    C99 6255   1.424   7.069   0.774 -0.0757 -0.7363 -0.3515
   39MOL   C100 6256   1.377   7.216   0.801  0.1658 -0.2984 -0.3022
   39MOL   O101 6257   1.436   7.315   0.752  0.1857  0.6719  0.4395
   39MOL   H102 6258   1.607   7.140   0.682  0.6787  0.2975 -0.8165
   39MOL   H103 6259   1.584   6.972   0.687  0.5639  0.9144  0.7962
   39MOL   H104 6260   1.467   7.038   0.870  2.1974  0.5044 -0.9294
   39MOL   H105 6261   1.336   7.008   0.754 -0.7130  0.1389 -0.2601
   39MOL   C106 6262   1.252   7.231   0.898  0.2794 -0.9754  0.1993
   39MOL   C107 6263   1.209   7.378   0.938 -0.3764 -0.6448  0.1009
   39MOL   C108 6264   1.138   7.382   1.073 -0.0844 -0.3419 -0.5102
   39MOL   O109 6265   1.075   7.285   1.121 -0.6577  0.0252  0.0360
   39MOL   H110 6266   1.275   7.188   0.996  0.5805  0.1574  0.6342
   39MOL   H111 6267   1.169   7.176   0.854 -1.0862  1.0791  0.1702
   39MOL   H112 6268   1.147   7.428   0.863 -2.0212  0.7186  2.2832
   39MOL   H113 6269   1.301   7.435   0.947 -1.4414  1.1429 -0.0468
   39MOL   C114 6270   1.139   7.523   1.131  0.1792  0.1225 -0.5704
   39MOL   C115 6271   1.011   7.536   1.213 -0.0274  0.8881 -0.9386
   39MOL   C116 6272   1.016   7.494   1.365  0.6919  0.4241  0.2063
   39MOL   O117 6273   1.126   7.487   1.423 -0.4368  0.1289  0.5368
   39MOL   H118 6274   1.146   7.607   1.063 -0.4052  1.0081  0.4289
   39MOL   H119 6275   1.228   7.521   1.194  1.8915  1.1254 -2.9056
   39MOL   H120 6276   0.925   7.487   1.167  1.5399 -1.8275 -1.0920
   39MOL   H121 6277   0.983   7.641   1.212  2.1581  1.5347  1.6631
   39MOL   C122 6278   0.886   7.473   1.438 -0.2843 -0.8677 -0.0432
   39MOL   C123 6279   0.867   7.570   1.550  0.3607 -0.6836  0.1316
   39MOL   C124 6280   0.784   7.692   1.516 -0.5792 -0.2462 -0.2171
   39MOL   O125 6281   0.858   7.782   1.478  0.2473  0.1916  0.9021
   39MOL   H126 6282   0.884   7.370   1.473 -0.8440 -1.1477 -0.8836
   39MOL   H127 6283   0.804   7.495   1.370  0.1254  1.1723  0.0627
   39MOL   H128 6284   0.961   7.591   1.601  0.7741 -0.5632 -0.6738
   39MOL   H129 6285   0.818   7.517   1.632 -1.5289 -0.5770 -0.9063
   39MOL   C130 6286   0.637   7.705   1.544  0.4639  0.2599 -0.1704
   39MOL   C131 6287   0.575   7.848   1.520 -0.8155 -0.1263 -0.0750
   39MOL   C132 6288   0.433   7.845   1.481  0.4438 -0.7452  0.1656
   39MOL   O133 6289   0.366   7.743   1.490 -0.0372 -0.0821  0.3283
   39MOL   H134 6290   0.616   7.684   1.649  2.2423 -0.3965  0.0812
   39MOL   H135 6291   0.580   7.628   1.491  0.5440 -1.4122  2.0968
   39MOL   H136 6292   0.639   0.051   1.457  0.2168 -0.8324  0.2812
   39MOL   H137 6293   0.594   0.034   1.617 -0.9108 -1.3320  0.5158
   39MOL   C138 6294   0.376   0.115   1.422 -0.4621 -0.6518 -0.4684
   39MOL   C139 6295   0.226   0.117   1.393  0.0785 -0.0942  0.3124
   39MOL   C140 6296   0.190   0.196   1.274  0.3810  0.6698  0.2129
   39MOL   O141 6297   0.230   0.309   1.260  0.1648 -0.1469  0.4605
   39MOL   H142 6298   0.438   0.128   1.334  0.6016  0.3974  0.4223
   39MOL   H143 6299   0.398   0.204   1.480 -0.5781 -0.1838 -1.1388
   39MOL   H144 6300   0.165   0.162   1.472  1.0819  1.3925  0.2776
   39MOL   H145 6301   0.199   0.013   1.376  1.1353 -0.2144 -0.6350
   39MOL   C146 6302   0.104   0.125   1.166 -0.3217  0.7029  0.1920
   39MOL   C147 6303   0.002   0.234   1.111  0.1109 -0.2073  0.8004
   39MOL   C148 6304   7.723   0.177   1.076  0.0691  0.2287  0.7097
   39MOL   O149 6305   7.697   0.057   1.053 -0.0903 -0.2287 -0.0382
   39MOL   H150 6306   0.059   0.038   1.215  0.3761  0.5206  0.5247
   39MOL   H151 6307   0.176   0.097   1.089  0.3954  3.7045 -0.2848
   39MOL   H152 6308   0.038   0.271   1.014 -2.0915 -1.0640 -0.3946
   39MOL   H153 6309   7.845   0.318   1.179  1.4619  2.0115 -1.5061
   39MOL   C154 6310   7.619   0.288   1.059 -0.3355  0.4382 -0.8987
   39MOL   C155 6311   7.477   0.243   1.023  0.3813 -0.2847  0.3797
   39MOL   C156 6312   7.398   0.182   1.142 -0.2006 -0.0260  0.2379
   39MOL   O157 6313   7.435   0.202   1.258  0.2975 -0.4424 -0.3108
   39MOL   H158 6314   7.646   0.357   0.979 -1.6977  1.7321 -0.2655
   39MOL   H159 6315   7.629   0.348   1.149  2.3992  1.3668 -1.7615
   39MOL   H160 6316   7.479   0.181   0.933  2.3860  0.5859 -0.2030
   39MOL   H161 6317   7.423   0.333   0.995 -0.1283 -0.9001 -0.6389
   39MOL   H162 6318   7.304   0.129   1.126 -0.8989  1.2030  0.1906
   40MOL     C1 6319   6.884   5.390   1.814  0.2886  0.1834  0.2906
   40MOL     C2 6320   7.025   5.401   1.864  0.4725 -0.1343 -0.5870
   40MOL     C3 6321   7.051   5.359   2.010 -0.2562 -0.4282  0.3194
   40MOL     O4 6322   6.964   5.286   2.063 -0.0877 -0.2994 -0.2800
   40MOL     H5 6323   6.863   5.285   1.795  3.0978 -0.5059  0.7885
   40MOL     H6 6324   6.813   5.437   1.881 -0.0804  0.2657 -0.1544
   40MOL     H7 6325   7.071   5.500   1.855 -0.3642  0.1967 -1.3121
   40MOL     H8 6326   7.091   5.335   1.809  1.3032  0.7368 -0.6587
   40MOL     H9 6327   6.877   5.431   1.713  0.3485 -1.4287 -0.3923
   40MOL    C10 6328   7.182   5.399   2.074  0.1642  0.8977  0.1547
   40MOL    C11 6329   7.220   5.296   2.185 -0.0092 -0.9282 -0.2274
   40MOL    C12 6330   7.250   5.357   2.324 -1.0227 -0.0635  0.4656
   40MOL    O13 6331   7.286   5.472   2.332 -0.2328  0.2497 -0.0126
   40MOL    H14 6332   7.181   5.501   2.112 -0.3341  0.4685  1.3066
   40MOL    H15 6333   7.261   5.417   2.001  1.8467  0.2354  1.7532
   40MOL    H16 6334   7.305   5.241   2.143  2.3822  0.6281  2.3617
   40MOL    H17 6335   7.142   5.220   2.195 -0.9857  0.1822  0.7000
   40MOL    C18 6336   7.219   5.276   2.447 -0.2858 -0.5831 -0.8499
   40MOL    C19 6337   7.258   5.348   2.578  0.6880 -0.0586 -0.1815
   40MOL    C20 6338   7.406   5.337   2.600 -0.2372 -0.3680  0.6844
   40MOL    O21 6339   7.473   5.243   2.562  0.2755  0.1044 -0.0747
   40MOL    H22 6340   7.273   5.183   2.431  0.0898 -0.6097  0.5511
   40MOL    H23 6341   7.111   5.264   2.439 -0.5601 -0.1024  1.7253
   40MOL    H24 6342   7.206   5.313   2.667 -0.3725 -1.8733 -1.4708
   40MOL    H25 6343   7.233   5.454   2.573  1.0237 -0.0224 -1.4262
   40MOL    C26 6344   7.465   5.454   2.671 -0.0758  0.4803 -0.1521
   40MOL    C27 6345   7.501   5.568   2.567 -0.1464 -0.3692  0.1491
   40MOL    C28 6346   7.634   5.633   2.612  0.4156 -0.9229  0.5690
   40MOL    O29 6347   7.688   5.613   2.724 -0.1721 -0.1118 -0.4396
   40MOL    H30 6348   7.552   5.410   2.719  0.4476  1.0903 -0.5290
   40MOL    H31 6349   7.405   5.485   2.756  0.3092 -1.4894  0.8700
   40MOL    H32 6350   7.423   5.643   2.582 -1.6428 -1.7739 -0.4004
   40MOL    H33 6351   7.507   5.527   2.467 -0.5141  2.4880 -1.1017
   40MOL    C34 6352   7.690   5.726   2.502 -0.7555 -0.1610  0.0089
   40MOL    C35 6353   7.728   5.865   2.554 -0.0092  0.1935  1.2074
   40MOL    C36 6354   7.608   5.959   2.551  0.2814  0.2926  0.3316
   40MOL    O37 6355   7.498   5.921   2.528 -0.6105  0.1568  0.4001
   40MOL    H38 6356   7.617   5.729   2.420 -0.3405  0.4903 -0.3405
   40MOL    H39 6357   7.787   5.689   2.471 -0.7883  0.1580 -0.4754
   40MOL    H40 6358   7.800   5.911   2.486 -0.7382  0.6742  0.7544
   40MOL    H41 6359   7.780   5.865   2.650  1.6208  0.9873  0.3505
   40MOL    C42 6360   7.641   6.108   2.571 -0.5199  0.0384 -0.0834
   40MOL    C43 6361   7.527   6.202   2.543 -0.2762  0.2457  0.3310
   40MOL    C44 6362   7.500   6.238   2.391  0.6688  0.8011  0.0388
   40MOL    O45 6363   7.599   6.245   2.312 -0.1966 -0.4086  0.0226
   40MOL    H46 6364   7.731   6.126   2.513 -0.7636  0.9342 -0.1862
   40MOL    H47 6365   7.665   6.129   2.675  1.8120  0.5528 -0.6890
   40MOL    H48 6366   7.556   6.299   2.582  1.0770 -0.5327  1.3610
   40MOL    H49 6367   7.435   6.164   2.587 -0.4815  1.0836  0.6254
   40MOL    C50 6368   7.360   6.251   2.331 -0.2954 -0.1185  0.9597
   40MOL    C51 6369   7.360   6.255   2.176  0.4441 -0.1992 -0.2963
   40MOL    C52 6370   7.224   6.238   2.111  0.0297 -0.3828  0.2859
   40MOL    O53 6371   7.118   6.269   2.169 -0.0714  0.2941  0.2669
   40MOL    H54 6372   7.307   6.342   2.357 -2.3984 -1.1047  0.2260
   40MOL    H55 6373   7.303   6.164   2.363  0.1724 -0.5699  0.5770
   40MOL    H56 6374   7.434   6.187   2.135  2.1257 -0.5810  3.1644
   40MOL    H57 6375   7.407   6.346   2.141  1.3556 -0.6364 -0.2315
   40MOL    C58 6376   7.224   6.183   1.963 -0.8604 -0.1494 -0.5473
   40MOL    C59 6377   7.099   6.107   1.921  0.2461 -0.3747  0.6176
   40MOL    C60 6378   7.013   6.198   1.834  0.3643 -0.5326 -0.0656
   40MOL    O61 6379   6.986   6.315   1.860  0.0398  0.2322  0.3726
   40MOL    H62 6380   7.313   6.120   1.965 -0.7184  0.0587 -0.0118
   40MOL    H63 6381   7.247   6.266   1.897 -1.6129 -0.6196 -1.4068
   40MOL    H64 6382   7.048   6.065   2.009 -1.1870 -0.8551 -0.4230
   40MOL    H65 6383   7.131   6.020   1.864 -0.7755 -0.3751  0.0293
   40MOL    C66 6384   6.960   6.138   1.704 -0.2116 -0.3902 -0.0788
   40MOL    C67 6385   6.909   6.235   1.591  0.3304  0.0736  0.2590
   40MOL    C68 6386   6.994   6.231   1.466 -0.4060 -0.5158  0.6876
   40MOL    O69 6387   7.113   6.198   1.470 -0.0449  0.2025 -0.3449
   40MOL    H70 6388   6.876   6.079   1.740 -0.5837  0.0046 -0.2982
   40MOL    H71 6389   7.020   6.054   1.669 -0.2321 -0.9194  1.1376
   40MOL    H72 6390   6.924   6.339   1.619  0.1216  0.6647 -1.8062
   40MOL    H73 6391   6.806   6.215   1.561 -0.7465 -0.0017  3.7499
   40MOL    C74 6392   6.933   6.281   1.334 -0.3030 -0.5492  0.0823
   40MOL    C75 6393   6.892   6.167   1.242  0.0428 -0.0687 -0.2844
   40MOL    C76 6394   6.935   6.182   1.100  0.2819  0.0801  0.1835
   40MOL    O77 6395   7.054   6.213   1.072 -0.0196 -0.0370  0.6642
   40MOL    H78 6396   7.011   6.341   1.287  0.8830 -2.2671 -0.1821
   40MOL    H79 6397   6.854   6.354   1.352 -1.9354 -1.7759 -1.9643
   40MOL    H80 6398   6.784   6.158   1.235 -0.2732  0.4566  3.0311
   40MOL    H81 6399   6.935   6.073   1.276  1.0138  0.3844 -0.2527
   40MOL    C82 6400   6.819   6.185   1.002 -0.3426 -0.0426  0.3687
   40MOL    C83 6401   6.843   6.277   0.881 -0.1747  0.1516  0.2183
   40MOL    C84 6402   6.799   6.215   0.756 -0.4134  0.3848  0.7398
   40MOL    O85 6403   6.859   6.122   0.708  0.3989 -0.2075  0.1579
   40MOL    H86 6404   6.724   6.211   1.049 -0.3419  0.2572  0.1990
   40MOL    H87 6405   6.800   6.083   0.968 -0.9692 -0.1365  0.9745
   40MOL    H88 6406   6.945   6.314   0.877 -0.4745  1.2042  1.8189
   40MOL    H89 6407   6.785   6.366   0.905  1.0103  1.1377 -0.5144
   40MOL    C90 6408   6.669   6.274   0.699  0.9162 -0.2671  0.0301
   40MOL    C91 6409   6.601   6.185   0.599  0.3208  0.3308  0.0329
   40MOL    C92 6410   6.542   6.269   0.483 -0.0281  0.3713 -0.4332
   40MOL    O93 6411   6.582   6.383   0.460  0.1014 -0.3386  0.2239
   40MOL    H94 6412   6.701   6.375   0.673 -0.4416  0.0947 -0.2935
   40MOL    H95 6413   6.600   6.302   0.779  0.6919  0.0875 -0.2864
   40MOL    H96 6414   6.519   6.125   0.637 -1.0079  0.6130 -2.3055
   40MOL    H97 6415   6.663   6.113   0.546  1.2514  1.0564  0.1147
   40MOL    C98 6416   6.440   6.211   0.384  0.1566  0.2678 -0.0875
   40MOL    C99 6417   6.302   6.199   0.444 -0.0346  0.7978  0.0699
   40MOL   C100 6418   6.197   6.267   0.365  0.7216 -0.8007 -0.0260
   40MOL   O101 6419   6.220   6.374   0.308 -0.1933 -0.2090  0.9072
   40MOL   H102 6420   6.480   6.111   0.367  1.4574  1.1349 -2.3280
   40MOL   H103 6421   6.436   6.263   0.289 -0.2923  0.7465  0.1900
   40MOL   H104 6422   6.298   6.235   0.547  0.1092 -1.9954  1.0906
   40MOL   H105 6423   6.272   6.097   0.467  0.9324  1.0868  2.7678
   40MOL   C106 6424   6.060   6.206   0.375  0.4591 -0.2714 -1.2280
   40MOL   C107 6425   5.952   6.316   0.367  0.4513 -0.2101  0.8040
   40MOL   C108 6426   5.898   6.364   0.496  0.7864 -0.0531 -0.3476
   40MOL   O109 6427   5.964   6.351   0.602 -0.2202  0.1666  0.0840
   40MOL   H110 6428   6.040   6.145   0.464 -0.5692 -0.0400 -1.2893
   40MOL   H111 6429   6.042   6.147   0.285 -0.4846  0.6603 -1.6577
   40MOL   H112 6430   5.876   6.272   0.303  1.9307  0.3396 -1.3771
   40MOL   H113 6431   5.985   6.402   0.308  5.1477 -2.2311  0.2849
   40MOL   C114 6432   5.753   6.400   0.489  0.2528  0.5213  0.2840
   40MOL   C115 6433   5.677   6.394   0.614 -0.2654  0.5974  0.2883
   40MOL   C116 6434   5.673   6.524   0.691  0.4903  0.4164 -0.3825
   40MOL   O117 6435   5.575   6.597   0.686 -0.4483  0.3902  0.6294
   40MOL   H118 6436   5.703   6.329   0.423 -0.5623  1.6854 -0.3749
   40MOL   H119 6437   5.735   6.498   0.445  2.3531  0.6669 -0.2770
   40MOL   H120 6438   5.716   6.321   0.685  0.8631  0.0310 -0.8929
   40MOL   H121 6439   5.574   6.368   0.591  0.7091 -2.2959 -1.0728
   40MOL   C122 6440   5.794   6.572   0.777  0.4111  0.2564 -0.5658
   40MOL   C123 6441   5.874   6.687   0.722  0.1375  0.7486  0.1297
   40MOL   C124 6442   5.950   6.763   0.821  0.4161 -0.5568  0.0053
   40MOL   O125 6443   5.972   6.717   0.933  0.0635  0.3158 -0.3259
   40MOL   H126 6444   5.858   6.484   0.788 -1.2597 -0.7612  1.3419
   40MOL   H127 6445   5.773   6.601   0.880 -1.0462  2.0795 -1.3593
   40MOL   H128 6446   5.800   6.755   0.681 -0.1894 -0.7720 -1.8809
   40MOL   H129 6447   5.946   6.652   0.648 -0.7276 -1.8508  0.4502
   40MOL   C130 6448   5.976   6.920   0.786 -0.5369  0.4138 -0.4089
   40MOL   C131 6449   5.993   7.019   0.907  0.0077 -0.7358 -0.0513
   40MOL   C132 6450   5.906   7.141   0.878  0.1845  0.6069  0.1268
   40MOL   O133 6451   5.899   7.186   0.769 -0.0062  0.3552  0.7992
   40MOL   H134 6452   5.909   6.947   0.705 -2.0807 -0.8900  0.3948
   40MOL   H135 6453   6.071   6.926   0.734  0.1258 -0.7674  0.6304
   40MOL   H136 6454   6.096   7.053   0.909  0.1432 -0.9484 -2.1475
   40MOL   H137 6455   5.969   6.981   1.007 -2.7953  2.6052  0.6394
   40MOL   C138 6456   5.834   7.191   0.997 -0.5911  0.1319  0.3598
   40MOL   C139 6457   5.769   7.325   0.978  0.6635 -0.2490 -0.3888
   40MOL   C140 6458   5.847   7.437   1.040  0.0546 -0.9682 -0.1246
   40MOL   O141 6459   5.972   7.451   1.025  0.1089 -0.4364  0.1849
   40MOL   H142 6460   5.901   7.192   1.083 -1.1527 -3.3060  0.9195
   40MOL   H143 6461   5.761   7.118   1.034  1.6343  0.2369  5.3133
   40MOL   H144 6462   5.680   7.315   1.040 -0.4093  2.0387 -1.5009
   40MOL   H145 6463   5.732   7.343   0.877  0.0568  1.5354  0.1425
   40MOL   C146 6464   5.761   7.540   1.115 -0.0446  0.2053  0.3612
   40MOL   C147 6465   5.830   7.602   1.232 -0.2347  0.6179  0.6264
   40MOL   C148 6466   5.934   7.705   1.200  0.3967 -0.1536 -0.3217
   40MOL   O149 6467   5.964   7.740   1.090  0.0617  0.0806  0.1110
   40MOL   H150 6468   5.679   7.488   1.165  0.9986 -1.0669  0.7516
   40MOL   H151 6469   5.721   7.621   1.053 -0.6132  0.6527  1.2931
   40MOL   H152 6470   5.884   7.530   1.294 -0.5838  1.6835  2.1857
   40MOL   H153 6471   5.758   7.634   1.307 -0.8634 -0.2500  0.3995
   40MOL   C154 6472   6.008   7.764   1.324  0.5206 -0.7295  0.0257
   40MOL   C155 6473   6.106   7.664   1.391  0.2956  0.2539 -0.9429
   40MOL   C156 6474   6.048   7.605   1.527  0.4720  0.0903  0.2959
   40MOL   O157 6475   5.925   7.592   1.550  0.0740 -0.0681 -0.5503
   40MOL   H158 6476   5.927   7.785   1.394 -1.2550 -0.1039 -2.1655
   40MOL   H159 6477   6.043   0.007   1.306  0.6954 -0.8837 -0.4968
   40MOL   H160 6478   6.211   7.692   1.399  0.5037  0.1984 -3.1909
   40MOL   H161 6479   6.115   7.578   1.324  2.6294 -0.1370 -0.1824
   40MOL   H162 6480   6.113   7.577   1.610 -0.1383 -1.9739  0.1161
   41MOL     C1 6481   5.646   4.603   2.604  0.7714  0.2608 -0.0325
   41MOL     C2 6482   5.535   4.532   2.688 -0.2749  0.5966  0.6202
   41MOL     C3 6483   5.472   4.411   2.624  0.3384  0.0816  0.0194
   41MOL     O4 6484   5.493   4.370   2.510  0.6816 -0.2132 -0.1802
   41MOL     H5 6485   5.715   4.521   2.581 -0.7963 -2.1326  3.2899
   41MOL     H6 6486   5.618   4.649   2.509  1.8251 -0.6906 -0.8195
   41MOL     H7 6487   5.447   4.596   2.694 -1.5784 -1.1592  0.9961
   41MOL     H8 6488   5.578   4.507   2.785 -0.1510 -1.2012  0.1173
   41MOL     H9 6489   5.695   4.686   2.654  0.2437  0.0091  0.9289
   41MOL    C10 6490   5.385   4.333   2.724  0.6047  0.3084 -0.2005
   41MOL    C11 6491   5.256   4.271   2.665  0.2834 -0.5337  0.6088
   41MOL    C12 6492   5.185   4.188   2.764  0.5580  0.0373 -0.8272
   41MOL    O13 6493   5.142   4.235   2.873  0.0810 -0.1870  0.1403
   41MOL    H14 6494   5.364   4.399   2.807  0.2413  0.4357 -0.3911
   41MOL    H15 6495   5.448   4.263   2.779  0.4198  1.0117  0.9172
   41MOL    H16 6496   5.291   4.200   2.590 -0.8194 -1.3666  0.8742
   41MOL    H17 6497   5.183   4.335   2.614  0.2855 -1.2658 -0.3293
   41MOL    C18 6498   5.141   4.042   2.718 -0.5137 -0.5352 -0.7435
   41MOL    C19 6499   5.252   3.954   2.674  0.0938  0.3841 -0.1528
   41MOL    C20 6500   5.215   3.808   2.696  0.3640 -0.0045  0.1657
   41MOL    O21 6501   5.147   3.746   2.612 -0.5263 -0.2618 -0.1559
   41MOL    H22 6502   5.073   4.063   2.636  0.1492  2.1536 -0.6473
   41MOL    H23 6503   5.096   3.991   2.803 -0.8449 -1.8864 -1.7174
   41MOL    H24 6504   5.352   3.967   2.716  0.3029  1.2568 -0.9079
   41MOL    H25 6505   5.274   3.969   2.568  0.9199  2.4525  0.3025
   41MOL    C26 6506   5.271   3.726   2.817  0.3641  0.1435 -0.3758
   41MOL    C27 6507   5.156   3.718   2.919 -0.8382  0.6227  0.4329
   41MOL    C28 6508   5.176   3.824   3.032  0.0994  0.2375  0.5202
   41MOL    O29 6509   5.273   3.899   3.033  0.1390  0.5110 -0.1252
   41MOL    H30 6510   5.366   3.769   2.849 -0.1294  1.3505 -0.4849
   41MOL    H31 6511   5.293   3.633   2.765  1.9959  0.3525 -0.0569
   41MOL    H32 6512   5.144   3.620   2.966 -1.9484 -0.0112 -1.1234
   41MOL    H33 6513   5.064   3.755   2.874 -1.3888 -1.4701 -0.2263
   41MOL    C34 6514   5.064   3.833   3.132  0.2855  0.9790 -0.4702
   41MOL    C35 6515   5.019   3.980   3.140  1.4183 -0.4140 -0.2319
   41MOL    C36 6516   4.917   4.007   3.253 -0.0379  0.3086  0.8844
   41MOL    O37 6517   4.861   3.917   3.319  0.2401  0.0679 -0.0174
   41MOL    H38 6518   5.104   3.808   3.230  0.2728  3.6496  0.2643
   41MOL    H39 6519   4.982   3.761   3.123  2.2240 -1.3977  0.4742
   41MOL    H40 6520   4.979   4.007   3.042  1.7141 -0.8917 -0.4839
   41MOL    H41 6521   5.096   4.052   3.166 -1.3523  2.2349  0.9980
   41MOL    C42 6522   4.875   4.150   3.267 -0.0796 -0.0577  0.2212
   41MOL    C43 6523   4.716   4.165   3.276  0.3572  0.4089  0.5281
   41MOL    C44 6524   4.680   4.181   3.419  0.3903  1.0485  0.2239
   41MOL    O45 6525   4.709   4.285   3.487 -0.3322  0.0478  0.2690
   41MOL    H46 6526   4.913   4.212   3.186 -0.9325 -0.3141 -0.3867
   41MOL    H47 6527   4.913   4.191   3.360  0.1875  0.1129  0.0405
   41MOL    H48 6528   4.668   4.072   3.247  0.3326  0.5116  0.2285
   41MOL    H49 6529   4.668   4.247   3.221  1.9348  0.8527 -0.2354
   41MOL    C50 6530   4.597   4.067   3.487  0.0816  0.5176 -0.2662
   41MOL    C51 6531   4.469   4.028   3.418 -0.0785  0.0510  0.0114
   41MOL    C52 6532   4.368   3.972   3.512 -0.0606  0.0770 -0.0261
   41MOL    O53 6533   4.385   3.956   3.634  0.0033 -0.0184 -0.0063
   41MOL    H54 6534   4.571   4.098   3.588 -1.4049  1.6647 -0.9681
   41MOL    H55 6535   4.662   3.980   3.479  0.3533  0.7683 -0.8540
   41MOL    H56 6536   4.499   3.944   3.355 -1.0971  0.6603 -1.3272
   41MOL    H57 6537   4.422   4.111   3.366  0.8310 -0.5867 -1.8977
   41MOL    C58 6538   4.238   3.932   3.444 -0.2659  0.5008  0.8079
   41MOL    C59 6539   4.131   3.911   3.554  0.1666  0.6432  0.5363
   41MOL    C60 6540   4.011   3.851   3.482  0.2733 -0.8786  0.1814
   41MOL    O61 6541   3.998   3.733   3.460  0.3033 -0.1864  0.3202
   41MOL    H62 6542   4.257   3.848   3.378 -0.1322  2.2210 -1.4169
   41MOL    H63 6543   4.201   4.016   3.385  0.0745 -0.5217 -0.8668
   41MOL    H64 6544   4.104   4.007   3.597 -1.7750  0.0324  0.7612
   41MOL    H65 6545   4.163   3.853   3.640 -1.8819  2.1814  2.4015
   41MOL    C66 6546   3.910   3.955   3.444  0.3476 -0.1451 -0.4180
   41MOL    C67 6547   3.779   3.884   3.389 -0.5331 -0.1251 -0.1241
   41MOL    C68 6548   3.782   3.851   3.239 -0.0407  0.2671  0.0500
   41MOL    O69 6549   3.837   3.933   3.164 -0.1227 -0.9041  0.2149
   41MOL    H70 6550   3.949   4.022   3.368  1.8042  1.2860  1.5483
   41MOL    H71 6551   3.879   4.019   3.527 -0.2322 -1.6361  0.5435
   41MOL    H72 6552   3.696   3.954   3.397  1.1049  1.7708  0.6987
   41MOL    H73 6553   3.758   3.793   3.446  1.7468 -0.1741  0.6775
   41MOL    C74 6554   3.718   3.724   3.197  0.3277 -0.0983  0.3527
   41MOL    C75 6555   3.644   3.724   3.065  0.6817 -0.7293 -0.2099
   41MOL    C76 6556   3.494   3.751   3.092 -0.1985  0.8899  0.2750
   41MOL    O77 6557   3.452   3.815   3.186 -0.2046 -0.2383 -0.3261
   41MOL    H78 6558   3.661   3.692   3.285  0.8443  0.9131  1.0674
   41MOL    H79 6559   3.785   3.639   3.189  1.9086  1.3532 -2.3456
   41MOL    H80 6560   3.659   3.634   3.006  1.9898 -0.8543  0.2973
   41MOL    H81 6561   3.670   3.808   3.000 -1.7027  0.6607  0.5384
   41MOL    C82 6562   3.396   3.700   2.984  0.1508  0.6248 -0.1423
   41MOL    C83 6563   3.365   3.825   2.885 -0.2397 -0.0262 -0.2927
   41MOL    C84 6564   3.393   3.793   2.735  0.3436 -0.3370  0.4585
   41MOL    O85 6565   3.419   3.680   2.694 -0.2391  0.2854  0.4992
   41MOL    H86 6566   3.308   3.661   3.035 -0.7871 -0.6763 -2.6717
   41MOL    H87 6567   3.441   3.622   2.922  0.4175  0.4794  0.2374
   41MOL    H88 6568   3.420   3.919   2.897  0.1420  0.1841 -3.3946
   41MOL    H89 6569   3.263   3.856   2.908 -0.2960 -0.1654 -0.3518
   41MOL    C90 6570   3.369   3.905   2.634 -0.4811  0.1178 -0.3940
   41MOL    C91 6571   3.245   3.886   2.551 -0.7375  0.4431  0.2284
   41MOL    C92 6572   3.195   4.012   2.487  0.3108  0.4034  0.2421
   41MOL    O93 6573   3.128   4.091   2.547 -0.4565  0.3741 -0.3004
   41MOL    H94 6574   3.454   3.921   2.567 -0.7077 -0.6848 -0.8740
   41MOL    H95 6575   3.358   4.003   2.679 -1.8830 -0.2188 -0.0017
   41MOL    H96 6576   3.163   3.838   2.604  0.0089  1.4565  2.3449
   41MOL    H97 6577   3.254   3.816   2.468 -1.2677  1.0986 -0.3906
   41MOL    C98 6578   3.214   4.017   2.334 -0.5135 -0.0747  0.1039
   41MOL    C99 6579   3.068   3.995   2.269  0.0152  0.0143 -0.1472
   41MOL   C100 6580   3.069   3.931   2.132  0.7582  0.1046  0.0938
   41MOL   O101 6581   3.171   3.889   2.078 -0.0290 -0.0083  0.3361
   41MOL   H102 6582   3.292   3.949   2.298  0.7534  1.1932  0.3821
   41MOL   H103 6583   3.239   4.118   2.301 -0.0199  0.0999  0.9845
   41MOL   H104 6584   3.013   4.089   2.262 -0.4023 -0.3506 -1.9458
   41MOL   H105 6585   3.008   3.933   2.335 -1.9813 -1.0435 -2.8746
   41MOL   C106 6586   2.932   3.925   2.067 -0.0186  0.3712 -0.1887
   41MOL   C107 6587   2.933   3.910   1.916  0.1962  0.5922 -0.5767
   41MOL   C108 6588   2.932   3.758   1.877 -0.1253 -0.8052 -0.1772
   41MOL   O109 6589   2.977   3.672   1.958 -0.2312 -0.9565 -0.0191
   41MOL   H110 6590   2.877   4.011   2.106 -0.8220  0.1156 -0.7371
   41MOL   H111 6591   2.868   3.848   2.111 -0.6330  1.5513  1.0378
   41MOL   H112 6592   3.011   3.963   1.862  0.8386  0.1939 -0.0445
   41MOL   H113 6593   2.844   3.944   1.865 -0.3480 -1.2009 -0.8774
   41MOL   C114 6594   2.879   3.722   1.739 -0.4115  0.3513 -0.3624
   41MOL   C115 6595   2.828   3.575   1.754 -0.6440  0.8506 -0.2859
   41MOL   C116 6596   2.945   3.474   1.730 -0.5779 -1.1329 -0.0941
   41MOL   O117 6597   3.035   3.509   1.656  0.2977 -0.2538  0.6597
   41MOL   H118 6598   2.958   3.732   1.664  0.7914 -1.0330  0.6954
   41MOL   H119 6599   2.795   3.788   1.722  0.5685  1.7443  0.1158
   41MOL   H120 6600   2.753   3.554   1.678 -0.5244 -0.7015 -0.0073
   41MOL   H121 6601   2.786   3.564   1.854  1.1634  0.9879  0.5104
   41MOL   C122 6602   2.937   3.343   1.805  0.4988 -0.7327  0.1690
   41MOL   C123 6603   3.068   3.268   1.821 -0.6936 -0.3608 -0.3470
   41MOL   C124 6604   3.149   3.313   1.943  0.1666 -0.7744 -0.0452
   41MOL   O125 6605   3.133   3.259   2.050 -0.2808  0.1749 -0.2930
   41MOL   H126 6606   2.861   3.284   1.754  0.9720 -0.1624 -1.2364
   41MOL   H127 6607   2.903   3.357   1.907  1.4247 -0.2077  0.4129
   41MOL   H128 6608   3.145   3.295   1.748  0.2160 -1.5485  0.1573
   41MOL   H129 6609   3.061   3.160   1.833  1.7148 -0.3180  2.2892
   41MOL   C130 6610   3.235   3.443   1.939  0.8850  0.3002  0.0004
   41MOL   C131 6611   3.256   3.510   2.079 -0.5542 -0.1546 -0.0326
   41MOL   C132 6612   3.386   3.595   2.081 -0.3712  0.1593  0.1331
   41MOL   O133 6613   3.474   3.591   1.994  0.0838  0.1898  0.4793
   41MOL   H134 6614   3.175   3.511   1.878  0.1378  1.0978  1.5978
   41MOL   H135 6615   3.326   3.432   1.879  0.6476  0.1295 -0.3313
   41MOL   H136 6616   3.271   3.435   2.156  0.5047  1.3792  1.3152
   41MOL   H137 6617   3.166   3.568   2.100  1.1280  1.2491  3.7902
   41MOL   C138 6618   3.411   3.683   2.204 -0.3177 -0.2066  0.0373
   41MOL   C139 6619   3.554   3.659   2.255  0.2581  0.3901  0.1564
   41MOL   C140 6620   3.632   3.789   2.253  0.0099 -0.4807 -0.0857
   41MOL   O141 6621   3.588   3.885   2.312 -0.4935  0.1114 -0.4856
   41MOL   H142 6622   3.332   3.671   2.279 -1.1011  0.5075 -0.6690
   41MOL   H143 6623   3.394   3.788   2.179 -0.5850  0.0527  1.2678
   41MOL   H144 6624   3.596   3.581   2.191  1.0898  0.6548  0.3626
   41MOL   H145 6625   3.545   3.620   2.357 -0.0639 -2.4051 -0.8898
   41MOL   C146 6626   3.760   3.801   2.166 -0.0208  0.6293  0.2822
   41MOL   C147 6627   3.802   3.952   2.152  0.1801 -0.2565  0.4779
   41MOL   C148 6628   3.927   3.963   2.062 -0.2624  0.3919  0.7204
   41MOL   O149 6629   3.979   3.869   2.003  0.0529  0.0841  0.4771
   41MOL   H150 6630   3.744   3.752   2.069 -0.3450  1.1887  0.0536
   41MOL   H151 6631   3.841   3.750   2.219 -1.4825 -0.9180  1.0842
   41MOL   H152 6632   3.838   3.992   2.247 -0.1697 -1.0234  0.9428
   41MOL   H153 6633   3.716   4.013   2.125 -0.0237 -0.2722  1.0740
   41MOL   C154 6634   3.986   4.103   2.036 -0.3186 -0.3703  0.6558
   41MOL   C155 6635   4.127   4.121   2.095  0.3079 -0.2125  0.0086
   41MOL   C156 6636   4.226   4.182   2.001 -0.3750  1.1025 -0.2717
   41MOL   O157 6637   4.193   4.281   1.938  0.6877 -0.1077  0.3957
   41MOL   H158 6638   3.918   4.173   2.086  0.8936  0.2251  1.5074
   41MOL   H159 6639   3.984   4.130   1.930 -1.3407  1.2989  1.0723
   41MOL   H160 6640   4.156   4.016   2.107 -0.6081 -0.6920 -1.7453
   41MOL   H161 6641   4.136   4.172   2.190  1.5586  1.9420 -1.2428
   41MOL   H162 6642   4.324   4.135   1.997  0.4151  2.8323 -2.3293
   42MOL     C1 6643   7.686   3.604   4.661 -0.0481  0.1350  0.5891
   42MOL     C2 6644   7.577   3.676   4.582  0.4194 -0.0548 -0.4087
   42MOL     C3 6645   7.593   3.671   4.429 -0.0892 -0.5241  1.1621
   42MOL     O4 6646   7.688   3.617   4.372 -0.0655 -0.1505  0.0970
   42MOL     H5 6647   7.786   3.638   4.632  0.0326  0.0979  0.8221
   42MOL     H6 6648   7.663   3.592   4.767  0.7820 -0.3143  0.7294
   42MOL     H7 6649   7.579   3.782   4.607 -1.0724  0.2921 -1.6501
   42MOL     H8 6650   7.480   3.629   4.599  0.3134  0.0332 -0.7535
   42MOL     H9 6651   7.669   3.504   4.620 -2.1290  1.5547 -2.1477
   42MOL    C10 6652   7.488   3.752   4.355 -0.0898 -0.1736  0.7302
   42MOL    C11 6653   7.492   3.745   4.201 -0.7710 -0.1610 -0.3287
   42MOL    C12 6654   7.458   3.881   4.142 -0.0766  0.3809  0.5689
   42MOL    O13 6655   7.507   3.985   4.176  0.3309 -0.5642 -0.2076
   42MOL    H14 6656   7.489   3.855   4.392  0.0360 -0.2829  1.0300
   42MOL    H15 6657   7.393   3.713   4.391  0.2890 -1.3296  0.4963
   42MOL    H16 6658   7.416   3.675   4.168  1.6679 -2.2220 -1.8119
   42MOL    H17 6659   7.592   3.736   4.157  0.1232 -0.5570  1.7251
   42MOL    C18 6660   7.354   3.883   4.033 -0.0473 -0.1918 -0.4254
   42MOL    C19 6661   7.402   3.807   3.910 -0.3135  0.5375 -0.1111
   42MOL    C20 6662   7.447   3.899   3.791  0.5669  0.4303 -0.4635
   42MOL    O21 6663   7.492   4.013   3.800 -0.2926  0.1131 -0.0392
   42MOL    H22 6664   7.336   3.989   4.014  1.8748  0.1118 -0.6859
   42MOL    H23 6665   7.265   3.841   4.079 -0.3869  0.2520 -0.6738
   42MOL    H24 6666   7.311   3.757   3.875 -1.4931  3.3797 -1.2788
   42MOL    H25 6667   7.492   3.749   3.928  0.6149  1.5841 -1.2341
   42MOL    C26 6668   7.429   3.836   3.656 -0.3232  0.0526  0.2775
   42MOL    C27 6669   7.472   3.924   3.544  0.0087  0.4231 -1.0034
   42MOL    C28 6670   7.399   3.882   3.414  0.2830 -0.6613 -0.5516
   42MOL    O29 6671   7.286   3.826   3.410  0.1641  0.3929 -0.0898
   42MOL    H30 6672   7.327   3.799   3.647 -0.0564 -0.3536 -1.2076
   42MOL    H31 6673   7.497   3.752   3.641 -0.1231  0.4873 -1.2753
   42MOL    H32 6674   7.576   3.905   3.517  0.3006  0.2384  0.1949
   42MOL    H33 6675   7.466   4.029   3.573  1.8629  0.5877 -1.1260
   42MOL    C34 6676   7.460   3.929   3.283 -0.0822  0.1831  0.4203
   42MOL    C35 6677   7.352   4.003   3.199  0.1078  0.2154  0.9140
   42MOL    C36 6678   7.409   4.079   3.079  0.1626 -0.8982 -0.4579
   42MOL    O37 6679   7.522   4.127   3.073  0.5876 -0.2177 -0.5075
   42MOL    H38 6680   7.513   3.848   3.233 -0.7149  0.4146 -0.6456
   42MOL    H39 6681   7.535   4.001   3.313  0.5867  0.7582 -2.4691
   42MOL    H40 6682   7.288   4.075   3.251 -3.2469  0.4316 -3.1806
   42MOL    H41 6683   7.279   3.933   3.158 -0.0223 -0.0356  1.5737
   42MOL    C42 6684   7.313   4.104   2.960  0.5504 -0.4453 -0.4801
   42MOL    C43 6685   7.169   4.140   2.991 -0.2957  0.7717  0.2156
   42MOL    C44 6686   7.067   4.078   2.894  0.2453 -0.2305  0.1536
   42MOL    O45 6687   7.104   4.027   2.789 -0.5649 -0.0004 -0.2670
   42MOL    H46 6688   7.310   4.014   2.899  0.9172  1.0988 -2.8511
   42MOL    H47 6689   7.351   4.187   2.901  1.7856  0.8832  2.1014
   42MOL    H48 6690   7.162   4.248   3.000  0.2176  0.7000  1.4285
   42MOL    H49 6691   7.123   4.104   3.083  1.2313 -0.7709  0.3803
   42MOL    C50 6692   6.918   4.097   2.914  0.1260 -0.5390 -0.7130
   42MOL    C51 6693   6.828   3.970   2.923 -0.2133 -0.1567  0.0119
   42MOL    C52 6694   6.721   3.954   2.815  0.4692 -0.3253  0.3369
   42MOL    O53 6695   6.721   4.019   2.710  0.5036  0.2007  0.1346
   42MOL    H54 6696   6.882   4.169   2.839 -0.9306 -1.2484 -0.9091
   42MOL    H55 6697   6.910   4.158   3.004  1.0533 -2.9659  1.0572
   42MOL    H56 6698   6.782   3.973   3.022  0.8310 -0.5655  0.5233
   42MOL    H57 6699   6.891   3.881   2.921 -2.0609 -1.4826 -1.9527
   42MOL    C58 6700   6.617   3.844   2.851  0.2823 -0.2223 -0.1827
   42MOL    C59 6701   6.480   3.881   2.792  0.3982 -0.0921 -0.0517
   42MOL    C60 6702   6.370   3.823   2.874  0.6263 -0.3782  0.9973
   42MOL    O61 6703   6.365   3.697   2.896 -0.6744  0.3583  0.2390
   42MOL    H62 6704   6.611   3.850   2.960 -2.7908 -1.2464 -0.2679
   42MOL    H63 6705   6.645   3.745   2.816  1.0226  0.0986 -0.5119
   42MOL    H64 6706   6.465   3.856   2.686  0.5784  1.4881 -0.4571
   42MOL    H65 6707   6.465   3.987   2.808 -0.1662 -0.0431 -0.8608
   42MOL    C66 6708   6.263   3.915   2.927 -0.1969  0.3636  0.3022
   42MOL    C67 6709   6.312   4.003   3.033 -0.5232 -0.1179 -0.0472
   42MOL    C68 6710   6.222   4.014   3.147 -0.2064 -0.0860 -0.6951
   42MOL    O69 6711   6.193   3.914   3.210  0.4229 -0.5710 -0.5300
   42MOL    H70 6712   6.177   3.859   2.963  0.4461  1.1816  3.2323
   42MOL    H71 6713   6.237   3.980   2.844  1.4757 -0.1934 -0.6842
   42MOL    H72 6714   6.343   4.100   2.993  1.4387 -1.6933 -2.5309
   42MOL    H73 6715   6.410   3.968   3.067 -0.3004  0.2778 -0.2726
   42MOL    C74 6716   6.171   4.157   3.185  0.1994  0.4246 -0.1643
   42MOL    C75 6717   6.058   4.158   3.293  0.0246  0.1484  0.4292
   42MOL    C76 6718   5.923   4.164   3.235  0.6697  0.3772  0.7901
   42MOL    O77 6719   5.900   4.194   3.117  0.4663  0.2965 -0.0952
   42MOL    H78 6720   6.122   4.193   3.095 -1.0672  2.7116  1.4238
   42MOL    H79 6721   6.255   4.222   3.208 -1.1974  2.2979 -0.2723
   42MOL    H80 6722   6.072   4.244   3.359  2.3646 -0.0887  0.3106
   42MOL    H81 6723   6.064   4.079   3.368 -0.7164 -0.6592 -0.3421
   42MOL    C82 6724   5.814   4.116   3.323 -0.7134  0.6613  0.1935
   42MOL    C83 6725   5.694   4.212   3.340  0.3245  0.3447 -0.4381
   42MOL    C84 6726   5.623   4.209   3.472  0.6508  0.4917 -0.2811
   42MOL    O85 6727   5.663   4.149   3.572 -0.1764  0.8429  0.2102
   42MOL    H86 6728   5.865   4.097   3.417 -0.4912 -0.0200 -0.0594
   42MOL    H87 6729   5.779   4.020   3.284  0.5417  0.3923 -0.2976
   42MOL    H88 6730   5.614   4.170   3.278  1.1455 -0.6407 -0.8270
   42MOL    H89 6731   5.727   4.314   3.321  1.7504 -0.2278 -1.0413
   42MOL    C90 6732   5.493   4.287   3.484  0.6170  0.2288  0.0913
   42MOL    C91 6733   5.518   4.423   3.563 -0.0068 -0.5401  0.3438
   42MOL    C92 6734   5.397   4.485   3.622  0.1995 -0.1485  0.2842
   42MOL    O93 6735   5.287   4.436   3.597 -0.4467  0.3220  0.5985
   42MOL    H94 6736   5.420   4.219   3.528 -1.4148  1.5849 -1.1379
   42MOL    H95 6737   5.451   4.308   3.385  0.1157  1.8436  0.6344
   42MOL    H96 6738   5.574   4.497   3.506  0.5423 -0.9474  0.3627
   42MOL    H97 6739   5.582   4.407   3.649 -0.9285  2.1178  1.5887
   42MOL    C98 6740   5.413   4.600   3.716  0.5917  0.5058 -0.2507
   42MOL    C99 6741   5.406   4.565   3.870  0.3071 -0.6736  0.2891
   42MOL   C100 6742   5.532   4.517   3.929  0.7695 -0.8172  0.2047
   42MOL   O101 6743   5.604   4.595   3.984 -0.3059 -0.1654  0.5619
   42MOL   H102 6744   5.330   4.667   3.691 -2.6099 -2.9164  0.6435
   42MOL   H103 6745   5.510   4.638   3.687  1.0835  0.3123  1.0650
   42MOL   H104 6746   5.322   4.497   3.885 -1.3939  0.6352 -2.7270
   42MOL   H105 6747   5.383   4.661   3.917 -3.0774 -0.1097 -2.2693
   42MOL   C106 6748   5.565   4.366   3.920 -0.0684 -0.2196  0.0417
   42MOL   C107 6749   5.565   4.293   4.057 -0.3206 -0.1977 -0.2283
   42MOL   C108 6750   5.668   4.175   4.062  0.2271  0.3072 -0.2946
   42MOL   O109 6751   5.724   4.143   3.958 -0.2536 -0.3771 -0.5643
   42MOL   H110 6752   5.667   4.363   3.881  0.1863  0.8812  0.5852
   42MOL   H111 6753   5.499   4.323   3.845  3.0694 -1.8074 -1.9336
   42MOL   H112 6754   5.463   4.262   4.074  0.0403 -0.4709  1.5290
   42MOL   H113 6755   5.591   4.355   4.143  1.9859 -1.3756 -0.0247
   42MOL   C114 6756   5.688   4.080   4.187  0.4617 -1.2686 -0.7950
   42MOL   C115 6757   5.818   3.998   4.164 -0.0079 -0.2549 -0.2284
   42MOL   C116 6758   5.919   4.006   4.280 -0.6169  0.1860  1.1675
   42MOL   O117 6759   5.917   4.093   4.367  0.6338 -0.2161 -0.0804
   42MOL   H118 6760   5.604   4.013   4.204 -2.0930  2.1805  0.7318
   42MOL   H119 6761   5.694   4.130   4.284  1.3594 -1.8528 -0.5433
   42MOL   H120 6762   5.880   4.028   4.080 -0.8004 -1.5233 -1.2890
   42MOL   H121 6763   5.790   3.893   4.155 -1.2979  0.0577  0.0738
   42MOL   C122 6764   6.026   3.897   4.283 -0.1825  0.0350  0.9792
   42MOL   C123 6765   6.091   3.858   4.412 -0.2283 -0.2712  0.7192
   42MOL   C124 6766   6.020   3.739   4.488  0.1729 -0.1058 -0.3002
   42MOL   O125 6767   5.936   3.672   4.426 -0.2050 -0.0312  0.4985
   42MOL   H126 6768   6.105   3.941   4.223 -0.6329 -0.5708 -0.0708
   42MOL   H127 6769   5.988   3.805   4.239  0.5453  0.3809 -0.3977
   42MOL   H128 6770   6.095   3.951   4.469 -1.6190 -1.2729  2.5173
   42MOL   H129 6771   6.191   3.822   4.392 -0.3654 -0.0063 -0.4330
   42MOL   C130 6772   6.063   3.692   4.627 -0.0692  0.4487 -0.0587
   42MOL   C131 6773   6.015   3.555   4.671 -0.2349 -0.2076  0.8215
   42MOL   C132 6774   5.878   3.558   4.729 -0.5246 -0.0089  0.2896
   42MOL   O133 6775   5.861   3.575   4.847 -0.3327 -0.7946 -0.2468
   42MOL   H134 6776   6.014   3.754   4.702 -0.4828 -1.3164  1.1738
   42MOL   H135 6777   6.171   3.695   4.643 -0.2793  0.6419  1.3944
   42MOL   H136 6778   6.080   3.522   4.752 -0.8062 -2.4514  0.4017
   42MOL   H137 6779   6.027   3.489   4.584  0.1271 -2.4446  2.5179
   42MOL   C138 6780   5.763   3.512   4.633 -0.4370  0.1914 -0.2319
   42MOL   C139 6781   5.650   3.437   4.716  0.2569 -0.0753  0.2637
   42MOL   C140 6782   5.648   3.285   4.704  0.4188  0.4162  0.8866
   42MOL   O141 6783   5.739   3.225   4.645 -0.0903 -0.8233 -0.1035
   42MOL   H142 6784   5.815   3.456   4.556 -0.0388  1.2030 -0.7070
   42MOL   H143 6785   5.709   3.600   4.598 -0.9539 -0.1523 -0.3077
   42MOL   H144 6786   5.561   3.478   4.668  0.9272  1.9825  0.7374
   42MOL   H145 6787   5.633   3.470   4.819  0.3706  1.2747 -0.1339
   42MOL   C146 6788   5.539   3.208   4.780 -0.1653 -0.0417 -0.1167
   42MOL   C147 6789   5.565   3.052   4.769  0.1683 -0.1305 -0.8174
   42MOL   C148 6790   5.477   2.987   4.668 -0.5164  0.6278 -0.0636
   42MOL   O149 6791   5.501   2.997   4.546 -0.0003  0.1230 -0.1127
   42MOL   H150 6792   5.444   3.234   4.734 -0.1593  0.7416  0.3233
   42MOL   H151 6793   5.543   3.248   4.881 -1.8932 -0.9591  0.3270
   42MOL   H152 6794   5.554   3.015   4.871 -0.8814  0.4498 -0.7072
   42MOL   H153 6795   5.667   3.023   4.748  0.4437  0.8607 -0.8613
   42MOL   C154 6796   5.384   2.884   4.729  0.0760 -0.4111 -0.5746
   42MOL   C155 6797   5.321   2.799   4.614 -0.9888  0.0674  0.4554
   42MOL   C156 6798   5.220   2.695   4.668 -0.0797  0.0810  0.1381
   42MOL   O157 6799   5.201   2.678   4.787 -0.4419 -0.5954 -0.5957
   42MOL   H158 6800   5.309   2.942   4.783  1.4800 -0.2445  1.2513
   42MOL   H159 6801   5.444   2.830   4.802  1.2539  2.3433  0.5712
   42MOL   H160 6802   5.398   2.748   4.558 -0.3904  1.3216  0.1332
   42MOL   H161 6803   5.254   2.856   4.550 -2.0237 -1.5871  0.0198
   42MOL   H162 6804   5.170   2.638   4.590  1.8897 -1.7156  0.1230
   43MOL     C1 6805   1.340   6.904   1.077 -0.2248  0.5172  0.5357
   43MOL     C2 6806   1.235   6.949   1.173 -0.2503 -0.4744 -0.4028
   43MOL     C3 6807   1.294   6.980   1.307 -1.7536 -0.0793  0.3467
   43MOL     O4 6808   1.394   6.920   1.350  0.0297 -0.0287 -0.1939
   43MOL     H5 6809   1.389   6.811   1.105 -0.7950 -0.7593 -2.5414
   43MOL     H6 6810   1.310   6.883   0.974 -2.0030  1.3666  0.8508
   43MOL     H7 6811   1.164   6.867   1.186 -0.4505 -0.0776  1.1200
   43MOL     H8 6812   1.199   7.043   1.133  0.9123  0.3603  0.4777
   43MOL     H9 6813   1.414   6.985   1.082  1.1228 -0.7938  2.7162
   43MOL    C10 6814   1.248   7.102   1.380 -0.0198  0.2808  0.6116
   43MOL    C11 6815   1.231   7.080   1.526  0.3785  0.6668 -0.5411
   43MOL    C12 6816   1.085   7.045   1.567 -0.8228 -0.3858  0.1129
   43MOL    O13 6817   0.999   7.012   1.486 -0.3839 -0.2145 -0.5729
   43MOL    H14 6818   1.147   7.121   1.343 -0.3198 -2.7610 -0.3452
   43MOL    H15 6819   1.314   7.186   1.359 -0.0913  0.5483  1.4665
   43MOL    H16 6820   1.243   7.173   1.583  2.4115  0.1155 -0.0139
   43MOL    H17 6821   1.300   7.011   1.575  1.2718  2.2970  0.5683
   43MOL    C18 6822   1.053   7.039   1.715 -0.4738 -0.0146 -0.0328
   43MOL    C19 6823   0.901   7.066   1.752 -0.3057  0.2541  0.5374
   43MOL    C20 6824   0.868   7.214   1.769  0.0308 -0.2918 -0.8082
   43MOL    O21 6825   0.950   7.302   1.748 -0.9783 -0.1516  0.6669
   43MOL    H22 6826   1.108   7.122   1.759  2.4912 -0.9021 -1.8910
   43MOL    H23 6827   1.095   6.950   1.761 -0.1300 -0.0551 -0.4263
   43MOL    H24 6828   0.877   7.000   1.835 -0.4077  1.3226  1.3681
   43MOL    H25 6829   0.834   7.039   1.670  0.8173 -1.9089  0.2959
   43MOL    C26 6830   0.731   7.235   1.844 -0.2440 -0.1505  0.5775
   43MOL    C27 6831   0.612   7.203   1.748 -0.0747 -0.6118 -0.1743
   43MOL    C28 6832   0.547   7.322   1.686  0.2688 -0.3724  0.3649
   43MOL    O29 6833   0.601   7.432   1.681  0.3287 -0.5123  0.4633
   43MOL    H30 6834   0.719   7.333   1.890  0.4282  0.5387 -0.6945
   43MOL    H31 6835   0.732   7.164   1.927  2.9501 -0.0951  0.6567
   43MOL    H32 6836   0.539   7.155   1.813  0.3036  1.1987  1.6747
   43MOL    H33 6837   0.639   7.132   1.670 -1.4019  0.0595 -1.2530
   43MOL    C34 6838   0.405   7.299   1.639  0.1190 -0.1724 -0.6073
   43MOL    C35 6839   0.330   7.421   1.577  0.4178  1.0862  0.8938
   43MOL    C36 6840   0.282   7.395   1.431  0.0452  0.4597 -0.0981
   43MOL    O37 6841   0.192   7.317   1.412 -0.0029  0.0846 -0.7996
   43MOL    H38 6842   0.345   7.262   1.722 -0.1335  0.2508 -0.5977
   43MOL    H39 6843   0.404   7.213   1.572  0.7842 -2.4281  2.1954
   43MOL    H40 6844   0.393   7.509   1.570 -1.5196  2.3836 -0.7109
   43MOL    H41 6845   0.248   7.444   1.645 -0.0525 -2.0935  1.5020
   43MOL    C42 6846   0.351   7.469   1.319  0.3434  0.1674 -0.0160
   43MOL    C43 6847   0.407   7.366   1.213  0.1929 -0.8385  0.6034
   43MOL    C44 6848   0.555   7.332   1.230  0.2141 -0.3203  0.3505
   43MOL    O45 6849   0.639   7.409   1.181 -0.0779  0.0813 -0.4572
   43MOL    H46 6850   0.431   7.540   1.337 -0.1445  0.5201  0.7645
   43MOL    H47 6851   0.273   7.520   1.262  1.3861  0.4603 -1.1839
   43MOL    H48 6852   0.379   7.404   1.114  0.5864  0.6675  1.0493
   43MOL    H49 6853   0.346   7.276   1.209  1.2584 -1.5374  0.0618
   43MOL    C50 6854   0.590   7.196   1.287  0.5764 -0.1966  0.1602
   43MOL    C51 6855   0.730   7.140   1.268 -0.1702  0.6971  0.4629
   43MOL    C52 6856   0.733   6.999   1.197  0.3707  0.0044  0.2921
   43MOL    O53 6857   0.657   6.914   1.224 -0.7978 -0.2547 -0.6751
   43MOL    H54 6858   0.514   7.123   1.259  0.4243  0.8125 -2.1166
   43MOL    H55 6859   0.575   7.209   1.394  1.0248  0.7582  0.1131
   43MOL    H56 6860   0.776   7.145   1.367  0.4936  1.3659  0.1305
   43MOL    H57 6861   0.795   7.200   1.205  0.1035 -0.1181 -0.0360
   43MOL    C58 6862   0.831   6.992   1.078 -0.7241 -0.0569  0.0469
   43MOL    C59 6863   0.800   6.877   0.988 -0.3017  0.2596  0.7378
   43MOL    C60 6864   0.931   6.814   0.931 -0.3919  0.1581  0.4443
   43MOL    O61 6865   1.012   6.887   0.873 -0.5111 -0.1863  0.2460
   43MOL    H62 6866   0.931   6.974   1.118 -0.2219 -0.8316 -1.5268
   43MOL    H63 6867   0.842   7.085   1.022  0.0409 -0.7426 -0.9502
   43MOL    H64 6868   0.737   6.922   0.911 -0.9951 -0.6982  0.7436
   43MOL    H65 6869   0.734   6.803   1.032 -1.2469  0.8480  0.3173
   43MOL    C66 6870   0.964   6.668   0.960 -0.1849 -0.2100  0.9049
   43MOL    C67 6871   1.120   6.646   0.959  0.1599  0.5437 -0.4959
   43MOL    C68 6872   1.168   6.513   1.021  0.0260  0.3498 -0.3984
   43MOL    O69 6873   1.100   6.408   1.023 -0.2165  0.3566  0.1706
   43MOL    H70 6874   0.907   6.598   0.900  3.1766 -2.0006 -0.3366
   43MOL    H71 6875   0.938   6.649   1.064 -1.1846  0.2716  0.7543
   43MOL    H72 6876   1.162   6.727   1.019 -1.8380  1.6871 -0.6180
   43MOL    H73 6877   1.158   6.646   0.857 -2.5165  0.1491 -1.5129
   43MOL    C74 6878   1.299   6.521   1.103 -0.7457 -0.0941  0.2864
   43MOL    C75 6879   1.360   6.378   1.127  0.0640 -0.6144  0.0701
   43MOL    C76 6880   1.497   6.357   1.077  0.2156 -0.2650  0.2175
   43MOL    O77 6881   1.547   6.436   0.994 -0.0545  0.1348  0.2050
   43MOL    H78 6882   1.262   6.567   1.195  0.0990  0.7623  0.2048
   43MOL    H79 6883   1.367   6.597   1.065 -1.0197 -0.0138 -0.0464
   43MOL    H80 6884   1.299   6.297   1.086  1.7837 -2.3435  0.8417
   43MOL    H81 6885   1.365   6.361   1.235  4.2584 -2.7600 -0.3793
   43MOL    C82 6886   1.574   6.233   1.119  0.1922  0.2901  0.0917
   43MOL    C83 6887   1.560   6.128   1.009 -0.4667 -0.3266  0.1037
   43MOL    C84 6888   1.483   6.003   1.057  0.7166  0.1529  0.2937
   43MOL    O85 6889   1.457   5.989   1.177 -0.0057  0.4340 -0.1855
   43MOL    H86 6890   1.547   6.203   1.220  1.7991 -0.1827  0.3949
   43MOL    H87 6891   1.678   6.265   1.130  0.1813  0.5632 -0.5459
   43MOL    H88 6892   1.658   6.090   0.980 -0.2052  0.2330  0.2291
   43MOL    H89 6893   1.515   6.162   0.916 -0.4040 -1.6135 -0.3960
   43MOL    C90 6894   1.432   5.909   0.953  1.1365 -0.3721 -0.0895
   43MOL    C91 6895   1.371   5.779   1.024 -0.0442 -0.7574  0.0571
   43MOL    C92 6896   1.417   5.650   0.953  1.3664 -0.1719  0.0763
   43MOL    O93 6897   1.527   5.648   0.897 -0.7078 -0.0109 -0.2859
   43MOL    H94 6898   1.512   5.884   0.884  1.3319 -1.2534  0.4465
   43MOL    H95 6899   1.353   5.958   0.895  2.0693  2.9444  1.3009
   43MOL    H96 6900   1.264   5.790   1.044  0.0414 -0.0257  0.1261
   43MOL    H97 6901   1.414   5.774   1.124  0.2701 -1.2774 -0.1071
   43MOL    C98 6902   1.325   5.525   0.962  0.6502 -0.3466  0.0668
   43MOL    C99 6903   1.316   5.456   0.820  0.1094  0.2962 -0.2324
   43MOL   C100 6904   1.206   5.531   0.752 -0.3305 -0.6787  0.0181
   43MOL   O101 6905   1.209   5.652   0.743 -0.0358  0.0198 -0.0174
   43MOL   H102 6906   1.224   5.547   0.994 -0.4828 -0.3945 -3.2405
   43MOL   H103 6907   1.367   5.455   1.034  0.1255 -0.5145  0.2059
   43MOL   H104 6908   1.289   5.351   0.829 -3.2265  1.2247  1.1445
   43MOL   H105 6909   1.404   5.467   0.756 -0.4820  2.5932 -0.6790
   43MOL   C106 6910   1.091   5.452   0.693  0.4678 -0.1081  0.6016
   43MOL   C107 6911   0.960   5.474   0.776 -1.1130  0.0780  0.4502
   43MOL   C108 6912   0.842   5.422   0.701 -0.0786 -0.3002  0.0335
   43MOL   O109 6913   0.848   5.325   0.625 -0.0615 -0.4403  0.0553
   43MOL   H110 6914   1.111   5.345   0.701  0.3416 -0.1792 -0.0259
   43MOL   H111 6915   1.065   5.483   0.592  0.7677  1.1530  0.8948
   43MOL   H112 6916   0.935   5.573   0.814 -0.5968  0.8456 -1.1742
   43MOL   H113 6917   0.966   5.413   0.866  3.5635  1.0114  0.9069
   43MOL   C114 6918   0.709   5.483   0.731 -0.2817  0.1462 -0.5187
   43MOL   C115 6919   0.588   5.396   0.704 -0.4463 -0.2901  0.0820
   43MOL   C116 6920   0.596   5.264   0.771  0.1828 -0.1043 -0.2829
   43MOL   O117 6921   0.658   5.248   0.877  0.5698  0.4376 -0.3146
   43MOL   H118 6922   0.705   5.580   0.681 -3.2669 -0.7697 -2.1252
   43MOL   H119 6923   0.703   5.493   0.839 -3.6440 -1.6004 -0.4986
   43MOL   H120 6924   0.563   5.396   0.598  0.8531  1.4352 -0.2442
   43MOL   H121 6925   0.508   5.455   0.749 -1.6083 -1.3277 -0.6088
   43MOL   C122 6926   0.508   5.151   0.717 -0.5894 -1.1307  0.2046
   43MOL   C123 6927   0.575   5.081   0.596  0.2446 -0.2694  0.4310
   43MOL   C124 6928   0.484   5.063   0.477 -0.0631  0.1156 -1.0419
   43MOL   O125 6929   0.380   5.134   0.468 -0.0634  0.4598 -0.0877
   43MOL   H126 6930   0.402   5.171   0.705 -0.6383 -0.5623  1.5594
   43MOL   H127 6931   0.520   5.074   0.793  0.9190  3.5397  4.9563
   43MOL   H128 6932   0.598   4.981   0.632 -0.1145 -0.5166 -0.0258
   43MOL   H129 6933   0.672   5.117   0.563  0.6171 -0.9041  0.8311
   43MOL   C130 6934   0.541   4.975   0.363 -0.3589  0.7046 -0.3590
   43MOL   C131 6935   0.484   4.991   0.221  0.1469 -0.3151 -0.0328
   43MOL   C132 6936   0.404   4.873   0.161 -1.6115  0.0149  0.4615
   43MOL   O133 6937   0.314   4.825   0.229 -0.1869  0.9960 -0.7861
   43MOL   H134 6938   0.525   4.868   0.381  0.7929  0.6360  0.3363
   43MOL   H135 6939   0.649   4.984   0.353 -0.1356  0.5594  1.7746
   43MOL   H136 6940   0.574   5.009   0.161 -0.4240 -2.2624 -1.5451
   43MOL   H137 6941   0.419   5.077   0.207  0.9240  0.0658 -1.4172
   43MOL   C138 6942   0.420   4.849   0.007  0.4391 -0.5011  0.5857
   43MOL   C139 6943   0.380   4.705   7.825 -0.7604 -0.2900 -0.1414
   43MOL   C140 6944   0.450   4.664   7.698  0.7639  0.1504  0.3170
   43MOL   O141 6945   0.546   4.731   7.657 -0.3179  0.2485 -0.6510
   43MOL   H142 6946   0.526   4.869   7.848  0.4561  0.9394  2.0693
   43MOL   H143 6947   0.356   4.922   7.816  1.6401 -0.4274 -0.8470
   43MOL   H144 6948   0.274   4.717   7.801 -0.3254  3.8488 -0.4001
   43MOL   H145 6949   0.407   4.645   0.053  1.6549 -0.7364 -1.1401
   43MOL   C146 6950   0.386   4.542   7.623  0.0626 -0.0492 -0.0734
   43MOL   C147 6951   0.494   4.453   7.568 -0.6171  0.0308  0.2925
   43MOL   C148 6952   0.568   4.377   7.675  0.3844 -0.1266  0.5565
   43MOL   O149 6953   0.540   4.390   7.798  0.6484  0.6008 -0.3493
   43MOL   H150 6954   0.329   4.577   7.536  1.2384  3.7394  0.5541
   43MOL   H151 6955   0.307   4.502   7.686  2.2999 -0.8576  2.2986
   43MOL   H152 6956   0.561   4.521   7.516 -0.3826 -0.9461 -0.7028
   43MOL   H153 6957   0.438   4.391   7.498 -2.6007  2.1178 -0.0197
   43MOL   C154 6958   0.693   4.301   7.635  0.2302 -0.5055  0.6450
   43MOL   C155 6959   0.819   4.383   7.652  0.6777 -0.8020  0.7168
   43MOL   C156 6960   0.915   4.323   7.757  0.2981  0.0562 -0.9265
   43MOL   O157 6961   0.885   4.224   7.827 -0.2448  0.2621 -0.8674
   43MOL   H158 6962   0.695   4.291   7.526 -0.0579  1.3899  0.4537
   43MOL   H159 6963   0.707   4.199   7.672 -1.2971 -0.8311  0.3305
   43MOL   H160 6964   0.793   4.486   7.676  1.2650 -0.3426 -0.5388
   43MOL   H161 6965   0.878   4.373   7.560 -0.2430  1.5289 -0.1698
   43MOL   H162 6966   1.012   4.371   7.768  0.1301  0.0770  0.5092
   44MOL     C1 6967   0.663   0.257   0.685 -0.8810 -0.0356 -0.6294
   44MOL     C2 6968   0.597   0.167   0.584  0.1787  0.1011 -0.4009
   44MOL     C3 6969   0.479   0.095   0.634 -0.9251 -0.0922 -0.2273
   44MOL     O4 6970   0.387   0.161   0.687  0.0663 -0.1946 -0.7191
   44MOL     H5 6971   0.718   0.201   0.760  1.4176  1.8906 -0.7948
   44MOL     H6 6972   0.726   0.322   0.624  1.8173 -0.0013  2.0415
   44MOL     H7 6973   0.669   0.094   0.545  1.6726  1.1346  0.3496
   44MOL     H8 6974   0.565   0.226   0.498 -0.6431  0.4983  0.1775
   44MOL     H9 6975   0.595   0.328   0.732 -0.7693 -1.4852  1.7681
   44MOL    C10 6976   0.465   7.800   0.603 -0.1838 -0.4613  0.0876
   44MOL    C11 6977   0.410   7.710   0.712 -0.1143  0.3301  0.0391
   44MOL    C12 6978   0.261   7.692   0.707 -0.4054  0.1674  0.6736
   44MOL    O13 6979   0.207   7.609   0.635 -0.2172  0.2408 -0.6265
   44MOL    H14 6980   0.561   7.758   0.571 -0.5726 -0.3781 -1.2114
   44MOL    H15 6981   0.396   7.796   0.519 -1.8420  1.0164  1.3673
   44MOL    H16 6982   0.429   7.747   0.812 -1.2110 -0.4660  0.5512
   44MOL    H17 6983   0.474   7.621   0.711  0.3498  0.6661 -0.4963
   44MOL    C18 6984   0.183   7.787   0.801 -1.0949 -0.4302 -0.6509
   44MOL    C19 6985   0.049   7.724   0.830  0.1585 -0.5760 -0.6327
   44MOL    C20 6986   0.059   7.636   0.955  0.4126 -0.7177 -0.4781
   44MOL    O21 6987   0.103   7.686   1.061  0.0315 -0.2808 -0.0916
   44MOL    H22 6988   0.161   0.028   0.762 -1.1620 -1.4588 -3.4165
   44MOL    H23 6989   0.245   7.806   0.888  0.8679 -0.9547 -1.9106
   44MOL    H24 6990   0.005   7.674   0.744 -0.8719  1.3546 -1.2687
   44MOL    H25 6991   7.847   7.811   0.856 -2.5047 -2.7205  0.5260
   44MOL    C26 6992   0.004   7.496   0.941  0.0261  0.2672  0.5345
   44MOL    C27 6993   7.748   7.455   1.038 -0.0821 -0.1932 -0.5248
   44MOL    C28 6994   7.772   7.352   1.144  0.0922  0.0224  0.4673
   44MOL    O29 6995   0.027   7.319   1.170  0.1974 -0.2575  0.4643
   44MOL    H30 6996   0.089   7.432   0.964 -0.8630 -0.4351  1.8757
   44MOL    H31 6997   7.839   7.484   0.835  1.1063 -0.8202  0.3941
   44MOL    H32 6998   7.659   7.430   0.981 -0.5973 -0.0511  0.2204
   44MOL    H33 6999   7.700   7.535   1.093 -0.6188 -0.5913 -0.4157
   44MOL    C34 7000   7.649   7.312   1.227 -0.2533 -0.4302 -0.3517
   44MOL    C35 7001   7.689   7.220   1.338 -0.2022  0.0287 -0.0595
   44MOL    C36 7002   7.557   7.174   1.402 -0.1202 -1.1998  0.4221
   44MOL    O37 7003   7.500   7.255   1.473  0.2225  0.4908  0.0949
   44MOL    H38 7004   7.574   7.272   1.159 -1.7272 -1.9784  2.1194
   44MOL    H39 7005   7.596   7.394   1.276  1.0244 -0.4398  1.0601
   44MOL    H40 7006   7.748   7.265   1.418  0.3108 -0.2062 -0.3043
   44MOL    H41 7007   7.747   7.149   1.279 -1.5257 -0.7871 -0.4049
   44MOL    C42 7008   7.485   7.041   1.369  0.1754  0.3599  0.0212
   44MOL    C43 7009   7.412   6.974   1.487  0.8730  0.1104  0.0190
   44MOL    C44 7010   7.442   6.827   1.498 -0.6887  0.1808 -0.1781
   44MOL    O45 7011   7.452   6.752   1.401  0.4198 -0.1598 -0.6006
   44MOL    H46 7012   7.559   6.974   1.324 -0.3248  0.1795 -0.5347
   44MOL    H47 7013   7.409   7.063   1.293  0.3647  0.0108 -0.2716
   44MOL    H48 7014   7.304   6.971   1.482  0.8804 -2.1546  0.5763
   44MOL    H49 7015   7.442   7.025   1.579  0.8337 -1.1249  0.7406
   44MOL    C50 7016   7.462   6.762   1.638  0.0186 -0.1229  0.0355
   44MOL    C51 7017   7.348   6.662   1.649 -0.0811 -0.9207 -0.0247
   44MOL    C52 7018   7.306   6.631   1.790 -0.1250 -1.0915  0.9754
   44MOL    O53 7019   7.389   6.608   1.879  0.0557 -0.2154 -0.5365
   44MOL    H54 7020   7.469   6.837   1.717  0.7076  0.4770 -0.5857
   44MOL    H55 7021   7.559   6.713   1.632  0.4563  0.5805  1.2332
   44MOL    H56 7022   7.376   6.567   1.602 -0.2300 -1.4766  0.9904
   44MOL    H57 7023   7.268   6.709   1.592  0.1395  0.8504  1.1036
   44MOL    C58 7024   7.148   6.616   1.804  0.2801 -0.3231 -0.0973
   44MOL    C59 7025   7.106   6.584   1.948  0.1210  0.0378  0.2747
   44MOL    C60 7026   6.968   6.642   1.993 -0.3728 -0.0673  0.2681
   44MOL    O61 7027   6.903   6.709   1.911 -0.9379 -0.0811 -0.3544
   44MOL    H62 7028   7.124   6.532   1.739  0.6655  0.6261 -1.4899
   44MOL    H63 7029   7.103   6.706   1.761  0.3721  0.1394  0.7539
   44MOL    H64 7030   7.183   6.635   2.006 -1.3561  1.7823  0.7709
   44MOL    H65 7031   7.102   6.478   1.974 -0.5395  0.0579  0.2783
   44MOL    C66 7032   6.900   6.587   2.120 -0.1855  0.1503 -0.8318
   44MOL    C67 7033   6.751   6.596   2.124 -0.5108  0.2241 -0.3675
   44MOL    C68 7034   6.694   6.720   2.185 -0.0303  0.1144 -0.3435
   44MOL    O69 7035   6.761   6.806   2.237 -0.3422  0.0757  0.2862
   44MOL    H70 7036   6.946   6.634   2.207 -1.2097 -1.0024  0.3707
   44MOL    H71 7037   6.928   6.481   2.115  0.4215 -0.0242  3.6984
   44MOL    H72 7038   6.724   6.516   2.193  0.4549  0.1957 -0.0235
   44MOL    H73 7039   6.705   6.578   2.026 -0.9864  2.0059 -0.4750
   44MOL    C74 7040   6.538   6.738   2.192 -0.0617 -0.1555  0.0387
   44MOL    C75 7041   6.494   6.873   2.258 -0.9108  0.4092 -0.0145
   44MOL    C76 7042   6.343   6.887   2.274 -0.1326  0.1241  0.5931
   44MOL    O77 7043   6.256   6.824   2.205  0.4828 -0.2442 -0.9425
   44MOL    H78 7044   6.498   6.662   2.259 -0.9392  0.7500  0.5613
   44MOL    H79 7045   6.496   6.723   2.093  0.2449 -1.1590  0.0548
   44MOL    H80 7046   6.517   6.958   2.195 -2.0115 -0.3657 -1.4969
   44MOL    H81 7047   6.545   6.888   2.353  0.9785  1.7862 -1.2238
   44MOL    C82 7048   6.293   6.998   2.363 -0.4580 -0.2218 -0.0372
   44MOL    C83 7049   6.335   7.144   2.321 -0.2984  0.0163 -0.1827
   44MOL    C84 7050   6.229   7.244   2.364 -0.1606  0.1344 -0.1717
   44MOL    O85 7051   6.180   7.223   2.474  0.3327 -1.1217  0.1814
   44MOL    H86 7052   6.326   6.986   2.466  1.4479  2.6810 -0.2698
   44MOL    H87 7053   6.185   6.988   2.374 -0.2939 -0.0345  1.9024
   44MOL    H88 7054   6.348   7.153   2.213  2.0420  1.6511  0.2174
   44MOL    H89 7055   6.431   7.173   2.363 -0.3372 -0.7860  0.4833
   44MOL    C90 7056   6.168   7.341   2.264 -0.2641 -0.4999  0.0530
   44MOL    C91 7057   6.094   7.454   2.335  0.2513 -0.0834 -0.1746
   44MOL    C92 7058   6.182   7.571   2.367  0.5450 -0.0163 -0.0688
   44MOL    O93 7059   6.196   7.664   2.286  0.1265 -0.4193 -0.4474
   44MOL    H94 7060   6.103   7.276   2.207 -0.0507  0.5623 -1.4288
   44MOL    H95 7061   6.237   7.379   2.189 -2.0079  0.4441 -1.0953
   44MOL    H96 7062   6.054   7.416   2.429 -0.2968 -0.2634 -0.4778
   44MOL    H97 7063   6.012   7.494   2.275 -0.9434 -0.9976  0.8344
   44MOL    C98 7064   6.261   7.570   2.504 -0.0297  0.3285 -0.3192
   44MOL    C99 7065   6.339   7.694   2.544 -0.2748 -0.0398  0.0900
   44MOL   C100 7066   6.251   7.793   2.614  0.9446  0.6930 -0.7169
   44MOL   O101 7067   6.169   7.761   2.701  0.2757 -0.3391 -0.2216
   44MOL   H102 7068   6.335   7.494   2.478  0.0391  0.8583 -1.7189
   44MOL   H103 7069   6.199   7.527   2.583  0.0220  0.0848 -0.4095
   44MOL   H104 7070   6.397   7.725   2.457 -2.9992  1.5851 -1.1997
   44MOL   H105 7071   6.424   7.678   2.611  0.2593 -0.4441 -0.6751
   44MOL   C106 7072   6.296   0.084   2.592  0.3128 -0.4050 -0.5377
   44MOL   C107 7073   6.197   0.181   2.661 -0.1017 -0.0022  0.6872
   44MOL   C108 7074   6.076   0.214   2.572 -0.5250 -0.7433 -0.2994
   44MOL   O109 7075   6.024   0.134   2.499  0.0596 -0.3964  0.2001
   44MOL   H110 7076   6.305   0.109   2.487  0.1776  0.4380 -0.3535
   44MOL   H111 7077   6.392   0.094   2.642 -1.1108  1.0956  2.0433
   44MOL   H112 7078   6.229   0.281   2.692  1.0741 -0.1267 -0.0558
   44MOL   H113 7079   6.157   0.131   2.749  2.4225 -0.7718  1.4350
   44MOL   C114 7080   6.024   0.355   2.596 -0.0563  0.2535  0.0335
   44MOL   C115 7081   5.911   0.392   2.507  0.0461  1.0507 -0.1566
   44MOL   C116 7082   5.783   0.367   2.584 -0.8597  0.2622  0.2056
   44MOL   O117 7083   5.732   0.444   2.662  0.4800 -0.8922 -0.0082
   44MOL   H118 7084   6.107   0.422   2.573  0.2079  0.1996  0.8075
   44MOL   H119 7085   5.997   0.374   2.700 -0.4393 -1.0516  0.1791
   44MOL   H120 7086   5.908   0.331   2.416 -1.7641  1.2439 -0.2395
   44MOL   H121 7087   5.920   0.496   2.476  1.9813  1.0893  0.4642
   44MOL   C122 7088   5.704   0.232   2.561 -0.0277 -0.7951  0.4307
   44MOL   C123 7089   5.632   0.166   2.680 -0.5862 -0.3658 -0.4451
   44MOL   C124 7090   5.723   0.147   2.806 -0.2302 -0.2859 -0.6216
   44MOL   O125 7091   5.848   0.151   2.806  0.5627  0.1634 -0.2076
   44MOL   H126 7092   5.779   0.163   2.523  1.3816  0.6460  0.5508
   44MOL   H127 7093   5.625   0.253   2.488 -0.2857 -0.8846  0.6865
   44MOL   H128 7094   5.605   0.064   2.651  1.5422 -0.8635 -0.8247
   44MOL   H129 7095   5.540   0.214   2.713  1.1818  3.6475 -1.0439
   44MOL   C130 7096   5.642   0.117   2.928 -0.0505 -0.4283 -0.2397
   44MOL   C131 7097   5.715   0.034   3.034  0.3822 -0.1695 -0.8171
   44MOL   C132 7098   5.715   0.121   3.166  0.5286  0.1468  0.4546
   44MOL   O133 7099   5.721   0.241   3.171 -1.1461  0.2181 -0.1214
   44MOL   H134 7100   5.560   0.051   2.902 -1.2419  0.7044  0.5841
   44MOL   H135 7101   5.594   0.208   2.964  0.2799 -0.2307 -0.2899
   44MOL   H136 7102   5.815   0.004   3.004 -0.3582 -4.0351  0.2773
   44MOL   H137 7103   5.663   7.797   3.044  0.4516 -0.0691  0.7088
   44MOL   C138 7104   5.730   0.042   3.294  0.1712  0.5320  0.3467
   44MOL   C139 7105   5.586   0.036   3.360  0.0195 -0.5343  1.0769
   44MOL   C140 7106   5.509   7.761   3.344  0.2131 -0.1233 -0.7510
   44MOL   O141 7107   5.543   7.676   3.267  0.0668  0.1520  0.0526
   44MOL   H142 7108   5.798   0.095   3.361  0.1834 -0.4709  1.1390
   44MOL   H143 7109   5.771   7.802   3.275 -1.1801  0.3041 -1.6284
   44MOL   H144 7110   5.515   0.105   3.313  1.8757  0.1994 -0.7481
   44MOL   H145 7111   5.579   0.072   3.462 -2.1290 -1.3217  1.2368
   44MOL   C146 7112   5.387   7.731   3.434 -0.0852  0.5452  0.1368
   44MOL   C147 7113   5.426   7.661   3.570 -0.7032  0.5102  0.7294
   44MOL   C148 7114   5.377   7.735   3.686 -0.7396  0.2860 -0.0274
   44MOL   O149 7115   5.402   7.853   3.698  0.0138  0.1694 -0.1505
   44MOL   H150 7116   5.324   7.671   3.368  1.1387  0.9145 -1.4094
   44MOL   H151 7117   5.332   7.825   3.439 -1.4668 -0.1036 -2.1108
   44MOL   H152 7118   5.534   7.654   3.585 -0.5158  0.7385 -0.5196
   44MOL   H153 7119   5.397   7.557   3.562  1.6185 -0.0025 -1.3587
   44MOL   C154 7120   5.312   7.654   3.796  0.2755  0.4574  0.2137
   44MOL   C155 7121   5.313   7.714   3.938  0.1869 -0.0441 -0.1604
   44MOL   C156 7122   5.227   7.629   4.039 -0.5754 -0.3245 -0.1727
   44MOL   O157 7123   5.271   7.516   4.069  0.4816 -0.1490  0.4831
   44MOL   H158 7124   5.339   7.549   3.788 -1.7083  0.0423 -1.3643
   44MOL   H159 7125   5.206   7.657   3.772  0.0968 -1.2527  0.7297
   44MOL   H160 7126   5.273   7.813   3.914  3.2599  0.4173 -4.1150
   44MOL   H161 7127   5.413   7.734   3.977  0.9306 -2.2291 -0.9027
   44MOL   H162 7128   5.133   7.680   4.059 -0.2876  0.6244 -1.1595
   45MOL     C1 7129   7.586   0.292   0.666 -0.2214 -0.4253 -0.0704
   45MOL     C2 7130   7.645   0.223   0.546 -0.3790 -0.0726 -0.5392
   45MOL     C3 7131   7.800   0.200   0.573  0.6276 -0.7405 -0.5387
   45MOL     O4 7132   7.849   0.200   0.690 -0.3796 -0.0769  0.7148
   45MOL     H5 7133   7.605   0.399   0.656  2.1877 -0.9437 -1.3986
   45MOL     H6 7134   7.479   0.276   0.674 -0.2750 -0.5984 -1.0761
   45MOL     H7 7135   7.630   0.287   0.459  1.3113 -4.1016 -3.9566
   45MOL     H8 7136   7.603   0.127   0.515 -1.8880 -0.4030  2.4192
   45MOL     H9 7137   7.643   0.259   0.754  2.2006  0.8690 -1.1018
   45MOL    C10 7138   0.034   0.166   0.453 -0.5821 -0.8369  0.0162
   45MOL    C11 7139   0.072   0.022   0.442  0.0708  0.7910 -0.9004
   45MOL    C12 7140   7.853   7.797   0.338 -0.3771 -0.2225  0.4164
   45MOL    O13 7141   7.730   7.813   0.319  0.2516  0.4060 -0.8723
   45MOL    H14 7142   0.120   0.233   0.459 -1.8510  0.6938  1.1980
   45MOL    H15 7143   7.837   0.191   0.363 -1.6773  0.1135  0.9465
   45MOL    H16 7144   0.062   7.832   0.539 -0.6630  2.2627 -0.2187
   45MOL    H17 7145   0.175   0.008   0.410 -0.6926 -1.2277 -2.6272
   45MOL    C18 7146   0.078   7.694   0.254 -0.2289 -0.5444 -0.1511
   45MOL    C19 7147   0.139   7.745   0.123 -0.1391  0.2302  0.5651
   45MOL    C20 7148   0.291   7.778   0.150 -0.0756 -0.7414  0.1784
   45MOL    O21 7149   0.342   7.768   0.264 -0.3566  0.1794 -0.4707
   45MOL    H22 7150   0.011   7.612   0.231 -0.9334  0.5820 -2.2811
   45MOL    H23 7151   0.151   7.658   0.327  0.3678 -0.7079 -0.8267
   45MOL    H24 7152   0.103   7.842   0.090  0.0166  0.3708  0.8056
   45MOL    H25 7153   0.138   7.676   0.039  2.4966  1.4096 -0.5015
   45MOL    C26 7154   0.371   7.804   0.023  0.7015  0.1544  0.0461
   45MOL    C27 7155   0.475   0.058   0.039 -0.0160 -0.0388  0.2534
   45MOL    C28 7156   0.413   0.185   7.827 -0.9703  0.5234 -0.5473
   45MOL    O29 7157   0.303   0.190   7.766 -0.2330 -0.6091  0.0300
   45MOL    H30 7158   0.305   7.801   7.796  1.2718 -2.0054 -0.3263
   45MOL    H31 7159   0.414   7.705   0.012 -1.3899 -0.6136 -1.4698
   45MOL    H32 7160   0.565   0.031   7.843 -0.0331  1.0375 -0.3193
   45MOL    H33 7161   0.500   0.078   0.143 -0.1318  0.2009  0.2367
   45MOL    C34 7162   0.514   0.304   7.843  0.0428 -0.5307  0.3373
   45MOL    C35 7163   0.513   0.382   7.713 -0.3872  0.3158 -0.3938
   45MOL    C36 7164   0.603   0.324   7.602 -0.8355 -0.4834 -0.1066
   45MOL    O37 7165   0.689   0.237   7.616  0.7636  0.1985  0.0843
   45MOL    H38 7166   0.615   0.266   0.002 -0.5688 -1.7834  1.1419
   45MOL    H39 7167   0.477   0.365   0.066 -0.1098  0.9280 -0.7773
   45MOL    H40 7168   0.536   0.487   7.731 -1.5626 -0.1352  4.4921
   45MOL    H41 7169   0.410   0.376   7.679 -0.0716 -0.0487 -1.2963
   45MOL    C42 7170   0.572   0.398   7.473  0.2599  0.0646  0.1288
   45MOL    C43 7171   0.593   0.304   7.350  0.4191 -0.6840 -0.2503
   45MOL    C44 7172   0.700   0.353   7.251  0.7473  0.2848 -0.2333
   45MOL    O45 7173   0.682   0.449   7.181 -1.1042 -0.5140 -0.4023
   45MOL    H46 7174   0.640   0.483   7.480  1.1057 -0.5949 -0.0055
   45MOL    H47 7175   0.470   0.438   7.470  0.6268  1.0796  0.6299
   45MOL    H48 7176   0.496   0.293   7.301 -0.2286 -1.6348  1.2104
   45MOL    H49 7177   0.618   0.204   7.385 -1.4878 -1.1336 -0.1099
   45MOL    C50 7178   0.821   0.265   7.245  0.2969  0.5974 -0.3453
   45MOL    C51 7179   0.920   0.317   7.147  0.1770 -0.1166 -0.3682
   45MOL    C52 7180   1.017   0.407   7.219 -0.2529 -0.3601 -0.4310
   45MOL    O53 7181   1.132   0.369   7.238  0.2106  0.0036  0.1052
   45MOL    H54 7182   0.790   0.169   7.202 -1.6565  1.6318 -1.3006
   45MOL    H55 7183   0.869   0.259   7.343  0.8056 -2.1041 -0.7264
   45MOL    H56 7184   0.880   0.355   7.053 -0.4598 -1.8564 -0.8294
   45MOL    H57 7185   0.980   0.232   7.112  2.1020  1.6942 -1.5713
   45MOL    C58 7186   0.974   0.542   7.279  0.4691  0.2403 -0.1103
   45MOL    C59 7187   1.081   0.627   7.342  0.6140 -0.4659  0.6945
   45MOL    C60 7188   1.059   0.783   7.337  0.6436  0.4120 -0.7963
   45MOL    O61 7189   0.950   0.836   7.311  0.1855  0.2656 -0.0881
   45MOL    H62 7190   0.902   0.517   7.357 -0.7657  1.4524 -0.8321
   45MOL    H63 7191   0.910   0.612   7.225 -0.8970 -0.2580  0.8051
   45MOL    H64 7192   1.177   0.611   7.293  0.1378 -2.2585  0.3029
   45MOL    H65 7193   1.106   0.603   7.446  2.1173  1.3523  0.7774
   45MOL    C66 7194   1.181   0.865   7.388 -0.0043  0.1558  0.4825
   45MOL    C67 7195   1.229   0.976   7.291  0.5900 -0.7187  0.2929
   45MOL    C68 7196   1.332   0.935   7.188  0.1268 -0.1729  0.0545
   45MOL    O69 7197   1.325   0.827   7.134 -0.4754 -0.2689  0.5755
   45MOL    H70 7198   1.272   0.807   7.405  2.5146  3.7479 -0.0852
   45MOL    H71 7199   1.152   0.912   7.482 -0.7672 -3.5805  2.2146
   45MOL    H72 7200   1.282   1.054   7.346  2.3311 -0.4324 -1.7209
   45MOL    H73 7201   1.140   1.011   7.239  0.6241 -2.4839 -0.9928
   45MOL    C74 7202   1.436   1.033   7.148 -0.4399  0.0413 -0.4527
   45MOL    C75 7203   1.535   0.981   7.048 -0.0603 -0.3918 -0.4398
   45MOL    C76 7204   1.522   1.033   6.907 -0.2652 -0.9177  0.3050
   45MOL    O77 7205   1.572   1.141   6.870  0.8091  0.3863 -0.3412
   45MOL    H78 7206   1.474   1.056   7.248 -1.3737 -1.1381  0.1783
   45MOL    H79 7207   1.383   1.121   7.109 -0.8343  1.0139  2.1528
   45MOL    H80 7208   1.541   0.872   7.051  1.5745 -0.3028 -0.2120
   45MOL    H81 7209   1.632   1.019   7.081 -0.9583 -0.1840  2.0440
   45MOL    C82 7210   1.443   0.946   6.809  0.1921  0.7116 -0.3459
   45MOL    C83 7211   1.439   1.005   6.675 -0.0367 -0.3576 -0.2541
   45MOL    C84 7212   1.342   0.926   6.585 -0.6998 -0.1365 -0.4577
   45MOL    O85 7213   1.293   0.819   6.622  0.0286  0.7078  0.4810
   45MOL    H86 7214   1.342   0.957   6.849  0.4333  0.8586  0.2386
   45MOL    H87 7215   1.480   0.845   6.793  0.5614  0.7814  0.0450
   45MOL    H88 7216   1.544   1.007   6.645 -0.1679  1.9571 -0.6554
   45MOL    H89 7217   1.407   1.108   6.695  0.0138 -0.4325  0.2344
   45MOL    C90 7218   1.294   0.999   6.466  0.6470  0.0828 -0.0727
   45MOL    C91 7219   1.211   0.911   6.373  0.0490 -0.1133 -0.3997
   45MOL    C92 7220   1.067   0.965   6.349 -0.5513 -0.1152 -0.3191
   45MOL    O93 7221   1.031   1.000   6.240 -0.2124 -0.0985 -0.5629
   45MOL    H94 7222   1.387   1.031   6.418  0.5368 -0.8615 -0.9233
   45MOL    H95 7223   1.237   1.087   6.495  0.6302  0.2288 -0.5549
   45MOL    H96 7224   1.208   0.804   6.394  0.6154 -0.0818 -0.1678
   45MOL    H97 7225   1.255   0.936   6.276  0.0280  0.5774 -0.2378
   45MOL    C98 7226   0.969   0.967   6.465 -0.3557  0.5042 -0.1817
   45MOL    C99 7227   0.834   1.043   6.438 -0.2535 -0.0032  0.2885
   45MOL   C100 7228   0.786   1.107   6.563 -0.2692 -0.3770 -0.2421
   45MOL   O101 7229   0.782   1.043   6.670  0.4873 -0.2919  0.2936
   45MOL   H102 7230   1.020   1.023   6.543 -2.3525  1.4187  0.4976
   45MOL   H103 7231   0.937   0.869   6.500 -0.5961 -0.1734 -2.2309
   45MOL   H104 7232   0.758   0.975   6.401 -0.9172  1.4188 -1.0204
   45MOL   H105 7233   0.848   1.111   6.354 -0.4409  0.5739  0.7157
   45MOL   C106 7234   0.736   1.253   6.546  0.0399  0.2149 -0.4289
   45MOL   C107 7235   0.702   1.315   6.683 -0.0454  0.5525 -0.0872
   45MOL   C108 7236   0.641   1.454   6.676 -0.0455 -0.9021  0.5052
   45MOL   O109 7237   0.644   1.518   6.572 -0.4029  0.0101  0.5679
   45MOL   H110 7238   0.646   1.249   6.484 -0.8245 -1.1679  0.8595
   45MOL   H111 7239   0.808   1.315   6.494  1.3671 -0.9668 -0.0216
   45MOL   H112 7240   0.794   1.328   6.740 -0.3406  0.6820  0.3697
   45MOL   H113 7241   0.649   1.241   6.744 -1.1990 -0.2673 -2.0556
   45MOL   C114 7242   0.579   1.510   6.807 -0.1361  0.0812  0.7642
   45MOL   C115 7243   0.594   1.664   6.809 -0.7676  0.6373  0.4285
   45MOL   C116 7244   0.737   1.702   6.846  0.0929 -0.3059 -0.2184
   45MOL   O117 7245   0.802   1.651   6.933  0.2256  0.4101  0.7015
   45MOL   H118 7246   0.650   1.462   6.874  0.6839 -0.5698 -0.5587
   45MOL   H119 7247   0.476   1.474   6.813  0.5692 -2.2524 -0.5108
   45MOL   H120 7248   0.530   1.704   6.888 -0.8722  0.4900  0.4180
   45MOL   H121 7249   0.562   1.696   6.710  0.2101  0.5819  0.0901
   45MOL   C122 7250   0.796   1.798   6.750 -0.1783 -0.0558  0.8175
   45MOL   C123 7251   0.950   1.798   6.752 -0.3398 -0.3977  0.1184
   45MOL   C124 7252   1.002   1.889   6.644  0.0301  0.2725  0.9041
   45MOL   O125 7253   0.923   1.922   6.549  0.2650  0.0392 -0.0743
   45MOL   H126 7254   0.749   1.896   6.765 -0.1323  0.1296 -0.1905
   45MOL   H127 7255   0.766   1.760   6.652 -0.7205 -1.3345  1.4798
   45MOL   H128 7256   0.982   1.695   6.737 -1.2803 -0.8748  1.3727
   45MOL   H129 7257   0.990   1.833   6.847  0.6992  0.4103 -0.5903
   45MOL   C130 7258   1.137   1.947   6.658 -0.3732 -0.5077  0.0692
   45MOL   C131 7259   1.251   1.879   6.577 -0.1710  0.8500  0.2764
   45MOL   C132 7260   1.390   1.928   6.609  0.3265  1.0030 -0.1816
   45MOL   O133 7261   1.416   2.039   6.659  0.0644 -0.1261  0.4494
   45MOL   H134 7262   1.169   1.941   6.762  1.8045  1.5734 -0.4072
   45MOL   H135 7263   1.125   2.051   6.627  0.3063 -0.5639 -0.4113
   45MOL   H136 7264   1.230   1.883   6.471 -1.2038 -0.6290  0.4128
   45MOL   H137 7265   1.246   1.775   6.609 -0.3386  0.6397 -0.4454
   45MOL   C138 7266   1.498   1.846   6.545 -0.2722  0.5650  0.0561
   45MOL   C139 7267   1.516   1.875   6.389 -0.5148 -0.2113 -0.5495
   45MOL   C140 7268   1.448   1.772   6.301  0.5330  0.6646 -0.3802
   45MOL   O141 7269   1.350   1.704   6.343 -0.0076 -0.3422 -0.5758
   45MOL   H142 7270   1.459   1.747   6.565  1.8919 -0.5166 -0.8942
   45MOL   H143 7271   1.599   1.855   6.587  0.3298 -2.2570 -0.6894
   45MOL   H144 7272   1.621   1.876   6.362 -0.9313  1.0757 -2.1892
   45MOL   H145 7273   1.476   1.968   6.348 -0.1505 -0.0636 -0.5744
   45MOL   C146 7274   1.496   1.762   6.152 -0.1079  0.4267 -0.4948
   45MOL   C147 7275   1.402   1.679   6.054 -0.5671  0.5297  0.0394
   45MOL   C148 7276   1.481   1.567   5.998  0.1951 -0.8230 -0.3523
   45MOL   O149 7277   1.516   1.553   5.880  0.2527 -0.6788 -0.2284
   45MOL   H150 7278   1.600   1.730   6.146 -0.1198 -0.4444  3.0437
   45MOL   H151 7279   1.500   1.865   6.116  1.8780  0.9485  1.1152
   45MOL   H152 7280   1.378   1.726   5.959  1.4119  0.0382 -0.7200
   45MOL   H153 7281   1.311   1.642   6.102 -1.0904  2.2843  0.4330
   45MOL   C154 7282   1.529   1.465   6.099 -0.7891 -0.3325  0.5210
   45MOL   C155 7283   1.529   1.320   6.043 -0.4034 -0.3544 -0.4048
   45MOL   C156 7284   1.467   1.224   6.136 -0.4248  0.3154  0.3915
   45MOL   O157 7285   1.525   1.207   6.240 -0.6930  0.7610  0.7336
   45MOL   H158 7286   1.464   1.475   6.186 -1.0058  0.3347  0.2823
   45MOL   H159 7287   1.628   1.497   6.131 -0.6602 -2.3958  2.2836
   45MOL   H160 7288   1.630   1.285   6.025 -0.4496 -1.3567  1.1962
   45MOL   H161 7289   1.483   1.323   5.944 -0.8439  1.5935 -0.1765
   45MOL   H162 7290   1.374   1.175   6.105 -0.1160 -0.0421  0.0364
   46MOL     C1 7291   6.543   3.571   7.722 -0.1761 -0.5275 -0.3545
   46MOL     C2 7292   6.481   3.462   7.636 -0.6458  0.0642  0.1580
   46MOL     C3 7293   6.330   3.440   7.677 -0.1570 -0.3220  0.0158
   46MOL     O4 7294   6.253   3.531   7.699  0.1728 -0.5200  0.5097
   46MOL     H5 7295   6.506   3.673   7.731 -2.8938 -1.3439 -1.5756
   46MOL     H6 7296   6.558   3.537   7.824  1.4443 -2.2628 -1.1358
   46MOL     H7 7297   6.533   3.367   7.649  1.1821  1.0590  0.1953
   46MOL     H8 7298   6.484   3.481   7.529 -0.1817 -1.4462 -0.1124
   46MOL     H9 7299   6.642   3.579   7.677 -0.6256  0.7730 -1.1176
   46MOL    C10 7300   6.297   3.288   7.692 -0.4400 -0.3249  0.0360
   46MOL    C11 7301   6.150   3.275   7.693  0.2314 -0.4251  0.5653
   46MOL    C12 7302   6.084   3.240   7.831  0.3601 -0.3691  0.1941
   46MOL    O13 7303   6.142   3.266   0.082 -0.2031  0.4878  0.2119
   46MOL    H14 7304   6.340   3.265   7.789 -2.2345 -0.0871  0.9121
   46MOL    H15 7305   6.357   3.242   7.613  0.3246 -0.5464  0.7451
   46MOL    H16 7306   6.131   3.191   7.626 -2.8899 -0.1981  1.0873
   46MOL    H17 7307   6.107   3.360   7.640 -0.4090 -0.5168  0.9290
   46MOL    C18 7308   5.946   3.176   7.832  0.6061 -0.8913 -0.9394
   46MOL    C19 7309   5.839   3.253   0.051  0.2930 -0.2867 -0.7861
   46MOL    C20 7310   5.764   3.358   7.827 -0.3191 -0.1012  0.0485
   46MOL    O21 7311   5.827   3.417   7.735 -0.3768  0.3866  0.1864
   46MOL    H22 7312   5.950   3.080   0.024 -1.8985 -0.6963 -0.3267
   46MOL    H23 7313   5.914   3.158   7.729 -1.2365 -0.3229 -0.4855
   46MOL    H24 7314   5.877   3.309   0.137 -0.6391  1.1728 -1.3091
   46MOL    H25 7315   5.779   3.177   0.101 -0.6771  1.2648  0.4682
   46MOL    C26 7316   5.611   3.373   7.837  0.2125 -0.0410 -0.3176
   46MOL    C27 7317   5.554   3.514   7.831  0.2551 -0.0677 -0.1616
   46MOL    C28 7318   5.530   3.562   7.686  0.5449 -0.1365  0.2588
   46MOL    O29 7319   5.536   3.488   7.590  0.0886 -0.0522  0.3448
   46MOL    H30 7320   5.582   3.335   0.076  0.6955  1.8548  0.5722
   46MOL    H31 7321   5.560   3.302   7.772  1.6903  0.3719 -1.9588
   46MOL    H32 7322   5.607   3.592   0.026  0.4589  0.5202 -1.1947
   46MOL    H33 7323   5.452   3.514   0.010  0.3889  1.4784  0.1972
   46MOL    C34 7324   5.487   3.706   7.672  0.4374  0.0827 -0.3976
   46MOL    C35 7325   5.476   3.743   7.531 -0.0588 -0.2296  0.0578
   46MOL    C36 7326   5.482   3.895   7.520  0.2630  0.5898  0.8419
   46MOL    O37 7327   5.433   3.970   7.607 -0.6809  0.7111 -0.1387
   46MOL    H38 7328   5.568   3.763   7.717  1.1995 -1.4145  0.1658
   46MOL    H39 7329   5.398   3.735   7.728 -0.5560 -0.7388 -1.5229
   46MOL    H40 7330   5.389   3.699   7.483  0.5596 -1.0174 -0.3400
   46MOL    H41 7331   5.568   3.712   7.481  1.3654  2.5118  0.8003
   46MOL    C42 7332   5.534   3.940   7.384  0.2476  0.4449  0.3190
   46MOL    C43 7333   5.441   4.038   7.314 -0.0786  0.1887  0.5687
   46MOL    C44 7334   5.357   3.980   7.212  0.2316 -0.0064 -0.6983
   46MOL    O45 7335   5.366   3.861   7.179 -0.6852 -0.3532  0.1484
   46MOL    H46 7336   5.539   3.845   7.329  0.0407  0.1849  0.7474
   46MOL    H47 7337   5.633   3.983   7.402  0.7291 -0.0247 -1.1177
   46MOL    H48 7338   5.497   4.119   7.266  1.0213  0.3265  2.0581
   46MOL    H49 7339   5.379   4.096   7.383 -0.0214  2.2755 -1.0621
   46MOL    C50 7340   5.259   4.074   7.149 -0.7277 -0.1826  0.5165
   46MOL    C51 7341   5.189   4.008   7.029 -0.5537 -0.3230  0.0251
   46MOL    C52 7342   5.293   3.998   6.913 -0.3286 -0.1434  0.1743
   46MOL    O53 7343   5.351   4.101   6.878 -0.5063  0.1205 -0.2426
   46MOL    H54 7344   5.319   4.158   7.114 -1.0593 -0.1924 -0.0785
   46MOL    H55 7345   5.202   4.105   7.237  2.1225  1.5365  1.8168
   46MOL    H56 7346   5.108   4.061   6.978 -0.4041 -0.6276 -0.5273
   46MOL    H57 7347   5.140   3.912   7.041  2.5246 -1.9346  0.0103
   46MOL    C58 7348   5.315   3.863   6.860 -0.0755  0.0572 -0.2120
   46MOL    C59 7349   5.351   3.869   6.714 -0.0638 -0.0061 -0.0278
   46MOL    C60 7350   5.497   3.888   6.673  0.0135 -0.4007  0.7876
   46MOL    O61 7351   5.577   3.925   6.755  0.7958 -0.2342  0.5046
   46MOL    H62 7352   5.232   3.795   6.878  0.0624 -0.0419  0.0539
   46MOL    H63 7353   5.398   3.813   6.909  0.0061  0.9585  0.6030
   46MOL    H64 7354   5.291   3.946   6.666  2.1274  1.2945 -0.7659
   46MOL    H65 7355   5.318   3.773   6.675  0.8241 -0.2604 -0.1558
   46MOL    C66 7356   5.538   3.862   6.527 -0.3755 -0.0276  0.3648
   46MOL    C67 7357   5.658   3.944   6.484  0.3063 -0.1018 -0.2664
   46MOL    C68 7358   5.787   3.870   6.526  0.6035 -0.3539  0.4320
   46MOL    O69 7359   5.792   3.751   6.556 -0.2099  0.0633  0.3841
   46MOL    H70 7360   5.459   3.874   6.452 -0.5130 -1.4402  0.2680
   46MOL    H71 7361   5.547   3.753   6.519 -1.5433 -0.2450  1.7421
   46MOL    H72 7362   5.673   4.044   6.527  0.9745  0.0893 -0.9400
   46MOL    H73 7363   5.643   3.965   6.378 -0.0945 -1.8253 -0.5639
   46MOL    C74 7364   5.913   3.954   6.506 -0.2390 -0.2129  0.7001
   46MOL    C75 7365   6.016   3.950   6.615 -0.0304  0.2777 -0.2674
   46MOL    C76 7366   6.058   4.086   6.684  0.1640  0.1260 -0.7961
   46MOL    O77 7367   5.975   4.179   6.702  0.0441 -0.1757 -0.1292
   46MOL    H78 7368   5.880   4.055   6.484 -0.1981 -0.6878 -1.7228
   46MOL    H79 7369   5.965   3.929   6.413  1.9011  3.6001  0.8143
   46MOL    H80 7370   6.105   3.901   6.576  1.6994  2.0942  1.2787
   46MOL    H81 7371   5.960   3.908   6.698  0.9468  1.2915  0.9250
   46MOL    C82 7372   6.209   4.087   6.717 -0.3918  0.4904  0.1040
   46MOL    C83 7373   6.248   4.149   6.851 -0.2146 -0.3138  0.5475
   46MOL    C84 7374   6.312   4.050   6.945  0.4856 -0.2146 -0.8206
   46MOL    O85 7375   6.395   3.963   6.913 -0.1237  0.6735  0.0692
   46MOL    H86 7376   6.260   4.138   6.635 -1.9764 -1.0325 -1.8621
   46MOL    H87 7377   6.242   3.983   6.725 -0.3556  0.3971 -1.2052
   46MOL    H88 7378   6.157   4.194   6.893  0.2272  0.0256  1.1387
   46MOL    H89 7379   6.311   4.237   6.844 -0.9277  0.1409 -0.3240
   46MOL    C90 7380   6.284   4.078   7.093  0.6584  0.1912 -0.2696
   46MOL    C91 7381   6.364   3.987   7.185  0.2276 -0.4283  0.0692
   46MOL    C92 7382   6.416   4.070   7.309 -0.0533 -0.6060 -0.5033
   46MOL    O93 7383   6.367   4.175   7.338 -0.1441  0.3039  0.5392
   46MOL    H94 7384   6.177   4.068   7.112  0.2751  1.7078 -1.4642
   46MOL    H95 7385   6.305   4.184   7.106  2.1032 -0.2788  1.4575
   46MOL    H96 7386   6.450   3.936   7.142 -1.9319 -1.7687 -2.7373
   46MOL    H97 7387   6.308   3.908   7.234 -0.0418 -0.5651 -0.4661
   46MOL    C98 7388   6.528   3.997   7.395  0.2013 -0.2832 -0.2562
   46MOL    C99 7389   6.559   4.062   7.532  0.1882  0.5519  0.0398
   46MOL   C100 7390   6.700   4.105   7.552  0.0020  0.0040 -0.0939
   46MOL   O101 7391   6.798   4.048   7.498  0.5228  0.1011 -0.2687
   46MOL   H102 7392   6.620   3.981   7.340  0.8138 -1.8238  1.1898
   46MOL   H103 7393   6.480   3.902   7.416 -0.8937  0.4773  0.7954
   46MOL   H104 7394   6.531   3.986   7.606  0.5281 -1.2674 -1.6618
   46MOL   H105 7395   6.505   4.154   7.553  1.8761  1.3680  0.8719
   46MOL   C106 7396   6.728   4.222   7.645  0.6352 -0.1636  0.1736
   46MOL   C107 7397   6.858   4.312   7.632 -0.2626 -0.8490  0.0110
   46MOL   C108 7398   6.829   4.461   7.603 -0.3060 -0.5059 -0.8959
   46MOL   O109 7399   6.757   4.485   7.503  0.1219 -0.2602  0.3560
   46MOL   H110 7400   6.717   4.190   7.749 -2.8884  1.6354  0.4270
   46MOL   H111 7401   6.645   4.288   7.622  1.4366  1.3128  1.3928
   46MOL   H112 7402   6.922   4.285   7.548  0.0374  0.1493 -0.0827
   46MOL   H113 7403   6.918   4.309   7.723 -0.0306 -1.6687 -0.1623
   46MOL   C114 7404   6.881   4.566   7.695  0.1040 -0.1645  0.2034
   46MOL   C115 7405   6.836   4.708   7.649 -0.6030 -0.4804 -0.1957
   46MOL   C116 7406   6.946   4.815   7.681  0.3528  0.4918  0.0826
   46MOL   O117 7407   7.019   4.802   7.783  0.6383 -0.4526 -0.3522
   46MOL   H118 7408   6.989   4.555   7.689 -0.0391 -1.4026 -0.2821
   46MOL   H119 7409   6.861   4.551   7.801  0.3898 -1.1038  0.1301
   46MOL   H120 7410   6.744   4.736   7.700  0.4978 -1.5518  2.4820
   46MOL   H121 7411   6.817   4.713   7.542  1.6047 -2.1560 -0.7106
   46MOL   C122 7412   6.944   4.947   7.603  0.2480 -0.2141 -0.3790
   46MOL   C123 7413   7.071   4.975   7.525  0.1993 -0.6074  0.2548
   46MOL   C124 7414   7.063   4.953   7.376  0.5567 -0.8949  0.2192
   46MOL   O125 7415   6.958   4.924   7.315 -0.3912 -0.1030 -0.3755
   46MOL   H126 7416   6.923   5.035   7.663  0.9512  0.1966 -0.7205
   46MOL   H127 7417   6.862   4.952   7.532 -1.6707  0.0185  1.8306
   46MOL   H128 7418   7.154   4.916   7.563 -0.0395 -1.9451 -1.2294
   46MOL   H129 7419   7.095   5.079   7.544  0.6551 -0.2798 -1.9434
   46MOL   C130 7420   7.188   4.994   7.301  0.4423  0.9916  0.6510
   46MOL   C131 7421   7.159   4.988   7.151 -0.1221  0.0997 -0.5277
   46MOL   C132 7422   7.294   5.004   7.076  0.8393 -0.4588  0.1496
   46MOL   O133 7423   7.388   5.070   7.117  0.0056  0.2330 -0.3250
   46MOL   H134 7424   7.268   4.923   7.323 -0.7938 -0.7077 -0.2251
   46MOL   H135 7425   7.225   5.090   7.334  2.0077  0.4003  0.6539
   46MOL   H136 7426   7.079   5.056   7.123 -1.6271 -0.2402  2.7686
   46MOL   H137 7427   7.121   4.890   7.122 -0.2994  1.0594 -3.7847
   46MOL   C138 7428   7.301   4.931   6.944  0.9959  0.0377  0.2970
   46MOL   C139 7429   7.420   4.978   6.864  0.0371 -0.4986 -0.3269
   46MOL   C140 7430   7.539   4.888   6.884 -0.7801  0.4793 -0.2289
   46MOL   O141 7431   7.538   4.789   6.963  0.2367 -0.1982  0.0882
   46MOL   H142 7432   7.214   4.962   6.887  0.5364 -3.7059 -1.2088
   46MOL   H143 7433   7.283   4.826   6.968 -2.3432  0.2611 -0.9622
   46MOL   H144 7434   7.442   5.084   6.874  1.6929 -0.7978 -0.6739
   46MOL   H145 7435   7.397   4.971   6.757  0.1849  0.8504 -0.4616
   46MOL   C146 7436   7.666   4.915   6.805  0.3381  0.3434 -0.0050
   46MOL   C147 7437   7.782   4.830   6.853  0.4260  0.2885  0.1191
   46MOL   C148 7438   0.053   4.895   6.820  0.1402  0.0624 -0.0822
   46MOL   O149 7439   0.062   5.019   6.820  0.1442 -0.2795  0.0271
   46MOL   H150 7440   7.684   5.022   6.807 -1.3973  0.7023 -1.7237
   46MOL   H151 7441   7.644   4.888   6.701 -1.1429 -0.9934  0.6294
   46MOL   H152 7442   7.772   4.727   6.818 -0.4815  0.8238 -1.1860
   46MOL   H153 7443   7.776   4.820   6.962  1.4488  1.0674  0.2503
   46MOL   C154 7444   0.161   4.808   6.779  0.3947 -0.3718 -0.6762
   46MOL   C155 7445   0.214   4.724   6.888  0.5989 -0.0291  0.0350
   46MOL   C156 7446   0.299   4.615   6.828  0.0362  0.9774 -0.4003
   46MOL   O157 7447   0.351   4.637   6.721  0.1563 -0.4182  1.0120
   46MOL   H158 7448   0.235   4.866   6.724  0.2670  0.8894  0.4763
   46MOL   H159 7449   0.110   4.740   6.711  1.1600  0.4005 -2.0575
   46MOL   H160 7450   0.136   4.685   6.953  0.7784  1.3735  1.1102
   46MOL   H161 7451   0.274   4.787   6.954  0.7429  2.2560 -2.1813
   46MOL   H162 7452   0.308   4.522   6.885 -0.0875  0.2657 -1.5223
   47MOL     C1 7453   6.275   1.753   4.789  0.1329 -0.6484 -0.2151
   47MOL     C2 7454   6.282   1.745   4.641 -0.0700 -0.0410  0.1769
   47MOL     C3 7455   6.324   1.597   4.597  0.2193 -0.2485 -0.7407
   47MOL     O4 7456   6.257   1.498   4.642 -0.2050 -0.0536  0.5368
   47MOL     H5 7457   6.258   1.851   4.833 -1.2306 -1.1720  0.4936
   47MOL     H6 7458   6.186   1.697   4.819 -0.6245  1.3391  1.3541
   47MOL     H7 7459   6.352   1.817   4.598  1.7473 -1.0973  1.3444
   47MOL     H8 7460   6.183   1.776   4.606  0.1683 -1.2930 -1.7119
   47MOL     H9 7461   6.359   1.708   4.841 -0.4047 -0.3806  0.9064
   47MOL    C10 7462   6.444   1.593   4.505  0.3760  0.2841 -0.0358
   47MOL    C11 7463   6.498   1.449   4.500 -0.3529  0.0620  0.1653
   47MOL    C12 7464   6.638   1.448   4.442  0.8531  0.3497  0.0261
   47MOL    O13 7465   6.664   1.534   4.356 -0.0259 -0.4372  0.0241
   47MOL    H14 7466   6.529   1.648   4.546 -1.5681  3.8728 -0.6093
   47MOL    H15 7467   6.419   1.628   4.405  0.1959 -0.5868 -0.2976
   47MOL    H16 7468   6.426   1.410   4.428 -0.2218  1.2696 -0.6262
   47MOL    H17 7469   6.493   1.388   4.591  1.3646  0.8118  0.7880
   47MOL    C18 7470   6.734   1.356   4.509  0.6849  0.3110 -0.2487
   47MOL    C19 7471   6.879   1.355   4.471  0.6493  0.2435  0.4860
   47MOL    C20 7472   6.981   1.370   4.586  0.1535  0.7090  0.9841
   47MOL    O21 7473   6.945   1.418   4.690 -0.2331 -0.1564 -0.7028
   47MOL    H22 7474   6.692   1.256   4.510 -1.4959  1.1996 -0.6608
   47MOL    H23 7475   6.735   1.395   4.611 -2.6261 -1.8878  0.6995
   47MOL    H24 7476   6.892   1.445   4.410  3.1862  0.4817  1.3094
   47MOL    H25 7477   6.912   1.267   4.417  1.0074  1.1635 -0.8363
   47MOL    C26 7478   7.123   1.337   4.555  0.2055  0.4770 -0.6678
   47MOL    C27 7479   7.216   1.361   4.678 -0.1294  0.3791 -0.4622
   47MOL    C28 7480   7.362   1.416   4.660  0.2965  0.1064  0.2629
   47MOL    O29 7481   7.425   1.412   4.556 -0.1854  0.1350 -0.4942
   47MOL    H30 7482   7.166   1.372   4.461  1.1207  1.8955  0.2540
   47MOL    H31 7483   7.115   1.229   4.544 -1.1104  0.5043 -0.0455
   47MOL    H32 7484   7.210   1.268   4.734 -0.6233 -0.8901 -2.5447
   47MOL    H33 7485   7.161   1.433   4.739 -2.2323 -0.4618 -1.3369
   47MOL    C34 7486   7.420   1.488   4.786 -0.3001 -0.3109 -0.0877
   47MOL    C35 7487   7.578   1.506   4.781 -0.3707  0.6868  0.5133
   47MOL    C36 7488   7.623   1.620   4.865  0.4365  0.1597 -0.1309
   47MOL    O37 7489   7.581   1.637   4.979  0.4034 -0.1749  0.0694
   47MOL    H38 7490   7.398   1.414   4.862 -2.1562  0.3292  0.0345
   47MOL    H39 7491   7.361   1.575   4.817 -1.3745 -1.3669  0.8817
   47MOL    H40 7492   7.616   1.501   4.679 -2.2478 -0.8433 -0.1513
   47MOL    H41 7493   7.628   1.417   4.817  1.5639  1.0607 -1.1668
   47MOL    C42 7494   7.730   1.703   4.801 -0.3658  0.3500  0.1430
   47MOL    C43 7495   7.848   1.743   4.895 -0.8181  0.6436 -0.8049
   47MOL    C44 7496   7.821   1.875   4.976  0.7005 -0.0359  0.8289
   47MOL    O45 7497   7.755   1.968   4.927  0.2919  0.3042 -0.5116
   47MOL    H46 7498   7.684   1.799   4.777 -0.5155  0.4747  0.9211
   47MOL    H47 7499   7.764   1.672   4.702  1.0321  0.2985  0.6229
   47MOL    H48 7500   0.070   1.764   4.825 -0.2238  0.9109 -0.0316
   47MOL    H49 7501   0.015   1.650   4.946 -1.8520  1.8229  1.9691
   47MOL    C50 7502   0.022   1.886   5.120  0.4755 -0.0870  0.1015
   47MOL    C51 7503   7.787   1.975   5.211  0.1350 -0.2162 -0.1044
   47MOL    C52 7504   7.845   2.115   5.239  0.3741  0.2743  0.2068
   47MOL    O53 7505   0.084   2.152   5.177 -0.3467  0.4999  0.0531
   47MOL    H54 7506   0.125   1.921   5.112  0.2495  0.1178 -2.2273
   47MOL    H55 7507   0.024   1.785   5.158  3.2934 -1.0694 -2.4591
   47MOL    H56 7508   7.773   1.920   5.304 -0.8816  1.0130  0.4866
   47MOL    H57 7509   7.687   1.972   5.169  0.8734  0.2810 -1.9466
   47MOL    C58 7510   7.779   2.199   5.350 -0.5187 -0.2395 -0.3438
   47MOL    C59 7511   0.014   2.320   5.374 -0.5273  0.8654  0.3219
   47MOL    C60 7512   7.823   2.431   5.291  0.7406  0.2043  0.1998
   47MOL    O61 7513   7.705   2.464   5.292 -0.2430 -0.0120  0.4220
   47MOL    H62 7514   7.758   2.148   5.444  0.4613 -0.8358 -0.4499
   47MOL    H63 7515   7.685   2.220   5.297 -0.5587  2.5216  0.7427
   47MOL    H64 7516   0.117   2.287   5.361 -0.0460  3.1036 -1.9595
   47MOL    H65 7517   0.010   2.337   5.481 -1.2579  1.8278  0.1514
   47MOL    C66 7518   0.072   2.504   5.209  0.1064  0.2672 -0.1363
   47MOL    C67 7519   0.023   2.626   5.140  0.4289 -0.6535 -0.6632
   47MOL    C68 7520   0.107   2.753   5.146 -0.0249  0.1750 -0.0723
   47MOL    O69 7521   0.212   2.749   5.206 -0.1815  0.1323 -0.1401
   47MOL    H70 7522   0.116   2.428   5.144 -2.0416 -0.4738 -0.7700
   47MOL    H71 7523   0.147   2.522   5.285  1.1443 -0.4666 -0.9642
   47MOL    H72 7524   7.790   2.656   5.191 -0.2943 -1.8024 -1.2626
   47MOL    H73 7525   7.840   2.608   5.042 -0.8903 -0.8951 -0.0703
   47MOL    C74 7526   0.050   2.879   5.088 -0.6411 -0.6665 -0.1579
   47MOL    C75 7527   0.154   2.985   5.047 -0.0691 -0.1921 -0.2083
   47MOL    C76 7528   0.168   3.101   5.143 -0.7621 -0.0864  0.4693
   47MOL    O77 7529   0.087   3.126   5.231  0.1031  0.1721 -0.4094
   47MOL    H78 7530   7.840   2.925   5.160 -0.3480  2.1220 -1.5972
   47MOL    H79 7531   7.846   2.852   5.003 -2.1854  0.5784  0.5634
   47MOL    H80 7532   0.117   3.029   4.955 -1.0580 -0.1338  0.2191
   47MOL    H81 7533   0.252   2.952   5.012 -0.3047 -0.3529 -0.7160
   47MOL    C82 7534   0.291   3.190   5.137 -0.1515  0.5910  0.0112
   47MOL    C83 7535   0.264   3.344   5.139  0.9514 -0.3287 -0.0920
   47MOL    C84 7536   0.338   3.422   5.028 -0.6425 -0.3201 -0.0843
   47MOL    O85 7537   0.452   3.393   4.993  0.4520  0.4587  0.0138
   47MOL    H86 7538   0.341   3.153   5.048 -0.5419 -0.7608  0.3389
   47MOL    H87 7539   0.354   3.168   5.224 -1.7906 -0.9491  0.8304
   47MOL    H88 7540   0.283   3.391   5.236 -0.4583  0.3148 -0.1151
   47MOL    H89 7541   0.158   3.358   5.120  1.2943  2.6890 -0.0622
   47MOL    C90 7542   0.263   3.530   4.939  0.9922 -0.1817  0.7660
   47MOL    C91 7543   0.132   3.479   4.882  0.3491 -0.1647  0.6627
   47MOL    C92 7544   0.147   3.356   4.799  0.2945  0.5513 -0.3813
   47MOL    O93 7545   0.144   3.249   4.859 -0.1817 -0.5616  0.1947
   47MOL    H94 7546   0.327   3.559   4.856  2.1947  2.3658  2.5411
   47MOL    H95 7547   0.233   3.614   5.000 -0.7585  0.2268 -0.6072
   47MOL    H96 7548   0.089   3.559   4.822  0.3971 -0.8422 -0.2828
   47MOL    H97 7549   0.067   3.463   4.969 -1.7445 -0.3384 -0.8993
   47MOL    C98 7550   0.167   3.380   4.645  0.1527 -0.1276  0.3447
   47MOL    C99 7551   0.146   3.250   4.573 -0.3798  0.7115 -0.1782
   47MOL   C100 7552   0.043   3.256   4.452 -0.9337  0.1035  0.5354
   47MOL   O101 7553   7.798   3.312   4.465 -0.5679 -0.2174  0.1743
   47MOL   H102 7554   0.269   3.420   4.640  0.5592 -0.8070  2.6808
   47MOL   H103 7555   0.098   3.458   4.614  0.1222  0.0741  0.9114
   47MOL   H104 7556   0.131   3.165   4.639 -0.7253  1.1146  0.2612
   47MOL   H105 7557   0.241   3.218   4.529  0.1912  2.4154 -0.2381
   47MOL   C106 7558   0.086   3.213   4.316  0.6021  0.7882  0.3777
   47MOL   C107 7559   0.003   3.285   4.208 -0.4044  0.0833 -0.1239
   47MOL   C108 7560   0.079   3.404   4.140  0.0410 -1.1144  0.6540
   47MOL   O109 7561   0.177   3.454   4.185  0.0314 -0.7716 -0.1234
   47MOL   H110 7562   0.078   3.105   4.303  0.9720  1.0362 -2.2247
   47MOL   H111 7563   0.192   3.233   4.305  0.8012 -0.6511 -0.5762
   47MOL   H112 7564   7.780   3.346   4.247  0.3961  1.4261 -0.5213
   47MOL   H113 7565   7.821   3.209   4.141 -1.2331  0.2665  0.1656
   47MOL   C114 7566   0.026   3.450   4.007  0.1079  0.3710 -0.2963
   47MOL   C115 7567   0.126   3.513   3.913  0.7267 -0.4369  0.2014
   47MOL   C116 7568   0.201   3.413   3.825  0.2536  0.0210  0.2385
   47MOL   O117 7569   0.233   3.302   3.872 -0.4481 -0.2110  0.6195
   47MOL   H118 7570   7.802   3.514   4.036  1.9393  2.0992  1.3119
   47MOL   H119 7571   7.841   3.367   3.951  1.3213 -1.3068  1.1775
   47MOL   H120 7572   0.200   3.573   3.967  1.2465 -2.5709  1.9262
   47MOL   H121 7573   0.069   3.574   3.843  0.2379 -1.5895 -0.4113
   47MOL   C122 7574   0.261   3.458   3.693 -0.1754 -0.6767 -0.3109
   47MOL   C123 7575   0.415   3.436   3.697 -0.1164  0.2370 -0.1122
   47MOL   C124 7576   0.468   3.303   3.636  0.5568 -0.1999  0.2914
   47MOL   O125 7577   0.395   3.211   3.615  0.4873 -0.3896  0.1890
   47MOL   H126 7578   0.245   3.566   3.686 -3.3031 -0.9335  1.8802
   47MOL   H127 7579   0.213   3.400   3.614 -0.2074  0.7967 -1.4142
   47MOL   H128 7580   0.455   3.456   3.797 -0.7951 -3.5284  0.9663
   47MOL   H129 7581   0.460   3.511   3.632  0.9114  2.6778  3.2678
   47MOL   C130 7582   0.615   3.290   3.600 -0.2214 -0.0400 -0.4916
   47MOL   C131 7583   0.676   3.163   3.666  0.0707  0.2599  0.5778
   47MOL   C132 7584   0.676   3.045   3.571  0.1033  0.3956  0.5927
   47MOL   O133 7585   0.757   3.033   3.476 -0.5394  0.3974 -0.0130
   47MOL   H134 7586   0.664   3.382   3.632  0.6073 -0.6489  0.0077
   47MOL   H135 7587   0.620   3.294   3.491 -0.3844 -0.2456 -0.5052
   47MOL   H136 7588   0.633   3.146   3.765  0.4289  0.3268  0.7454
   47MOL   H137 7589   0.777   3.197   3.687  0.7208  0.3557 -2.4827
   47MOL   C138 7590   0.575   2.937   3.613 -0.2912 -0.3819  0.2378
   47MOL   C139 7591   0.611   2.793   3.570 -0.0088  0.5331 -0.0585
   47MOL   C140 7592   0.487   2.706   3.535 -0.0695  0.2840  0.9891
   47MOL   O141 7593   0.433   2.718   3.423  0.2566 -0.2202  0.4155
   47MOL   H142 7594   0.480   2.964   3.568  0.1717  0.4456 -0.2440
   47MOL   H143 7595   0.551   2.942   3.720 -1.2733 -2.7600  0.1717
   47MOL   H144 7596   0.681   2.748   3.640 -0.2743  0.6722  0.2997
   47MOL   H145 7597   0.655   2.808   3.471 -0.8677 -1.9938 -0.8430
   47MOL   C146 7598   0.448   2.602   3.639 -0.8255 -0.4688 -0.0072
   47MOL   C147 7599   0.325   2.509   3.598  0.0078  0.3606 -0.0012
   47MOL   C148 7600   0.370   2.389   3.515  0.2417  0.2659  0.8104
   47MOL   O149 7601   0.478   2.389   3.461 -0.2169 -0.4243 -0.0127
   47MOL   H150 7602   0.428   2.653   3.734 -0.0061 -2.9433  1.5518
   47MOL   H151 7603   0.540   2.549   3.663 -1.2482 -0.8132  0.9027
   47MOL   H152 7604   0.245   2.560   3.544  0.2603 -1.0706 -1.7564
   47MOL   H153 7605   0.278   2.476   3.691 -1.5223  0.2217 -0.8225
   47MOL   C154 7606   0.287   2.259   3.512 -0.1438  0.4382  0.4058
   47MOL   C155 7607   0.364   2.131   3.476 -0.0051  0.1115 -0.2001
   47MOL   C156 7608   0.401   2.055   3.603  0.1982  0.3980 -0.7388
   47MOL   O157 7609   0.311   2.013   3.676  0.3808  0.1888  0.2995
   47MOL   H158 7610   0.194   2.264   3.455 -1.2781  1.8710  2.3189
   47MOL   H159 7611   0.243   2.257   3.612  1.6881 -0.7537  1.2076
   47MOL   H160 7612   0.454   2.150   3.419  0.4758  0.6761  0.7308
   47MOL   H161 7613   0.311   2.055   3.418 -0.2872  0.6365 -0.6322
   47MOL   H162 7614   0.506   2.038   3.628 -0.5046 -3.2164  0.0619
   48MOL     C1 7615   6.283   6.088   7.414 -0.0912 -0.0855 -0.3096
   48MOL     C2 7616   6.347   5.953   7.462 -0.4231 -0.0997  1.0002
   48MOL     C3 7617   6.500   5.947   7.452  0.6060 -0.6794 -0.0887
   48MOL     O4 7618   6.568   6.053   7.447 -0.2687  0.2652  0.2842
   48MOL     H5 7619   6.275   6.096   7.306 -0.0227 -1.6405 -0.4500
   48MOL     H6 7620   6.180   6.084   7.450 -1.4367 -1.4280 -4.0507
   48MOL     H7 7621   6.313   5.864   7.409  0.8300 -1.0512  1.7646
   48MOL     H8 7622   6.334   5.925   7.567 -1.4939  1.2087  1.2182
   48MOL     H9 7623   6.331   6.177   7.453 -0.7943  0.6172 -1.0489
   48MOL    C10 7624   6.565   5.816   7.453 -0.2874 -0.5658 -0.2981
   48MOL    C11 7625   6.650   5.784   7.327  0.0094 -0.2670 -0.3993
   48MOL    C12 7626   6.569   5.719   7.214  0.2469 -0.0507  0.1357
   48MOL    O13 7627   6.445   5.719   7.221  0.3569  0.1180 -0.4606
   48MOL    H14 7628   6.496   5.741   7.492 -1.4760  1.0354  0.7364
   48MOL    H15 7629   6.640   5.830   7.530  0.7968  0.0506 -1.4494
   48MOL    H16 7630   6.733   5.715   7.347  1.1799  0.9889 -0.8130
   48MOL    H17 7631   6.698   5.877   7.294  1.4194 -0.8007  0.0771
   48MOL    C18 7632   6.652   5.659   7.096  0.3757  0.2144 -0.7837
   48MOL    C19 7633   6.578   5.554   7.020  0.3373 -0.1070  0.8420
   48MOL    C20 7634   6.668   5.451   6.951 -0.5740  0.2398  0.2501
   48MOL    O21 7635   6.791   5.463   6.947 -0.4186 -0.1762 -0.4726
   48MOL    H22 7636   6.755   5.638   7.125  0.9170 -0.4049 -3.0851
   48MOL    H23 7637   6.669   5.737   7.022  0.5455  1.1428  0.2251
   48MOL    H24 7638   6.535   5.605   6.934  1.6651 -2.0206 -1.0105
   48MOL    H25 7639   6.514   5.504   7.093 -0.7624  1.3464  0.8887
   48MOL    C26 7640   6.596   5.339   6.879 -0.2904  0.0701 -0.2675
   48MOL    C27 7641   6.674   5.229   6.817  0.6625  0.4199  0.0851
   48MOL    C28 7642   6.599   5.119   6.740  0.0409 -0.3625 -0.1647
   48MOL    O29 7643   6.542   5.033   6.804  0.0060  0.2311  0.0834
   48MOL    H30 7644   6.540   5.392   6.802 -1.2652 -0.9048 -0.2525
   48MOL    H31 7645   6.518   5.306   6.947 -0.7368  2.5237  0.4639
   48MOL    H32 7646   6.704   5.176   6.908  1.4033 -1.6764 -1.3182
   48MOL    H33 7647   6.763   5.267   6.768  1.0832 -1.0077 -0.3075
   48MOL    C34 7648   6.625   5.113   6.589  0.1724 -0.4328  0.1731
   48MOL    C35 7649   6.545   4.997   6.531  0.0529 -0.2071 -0.0369
   48MOL    C36 7650   6.612   4.863   6.531  0.2639  0.1642 -0.1027
   48MOL    O37 7651   6.703   4.829   6.606  0.3722 -0.1766 -0.2206
   48MOL    H38 7652   6.731   5.096   6.575  0.1775 -0.0596 -0.2591
   48MOL    H39 7653   6.593   5.208   6.546 -1.3079  0.3277  2.8068
   48MOL    H40 7654   6.530   5.014   6.425  3.0453 -0.6668 -0.5864
   48MOL    H41 7655   6.446   4.983   6.575 -0.0314 -1.6811 -0.6664
   48MOL    C42 7656   6.556   4.756   6.435  0.0704  0.3634  0.2776
   48MOL    C43 7657   6.668   4.681   6.366 -0.5903 -0.2070  0.0018
   48MOL    C44 7658   6.670   4.697   6.210 -0.2254  0.3411  0.3511
   48MOL    O45 7659   6.568   4.722   6.147  0.0074  0.1686  0.2130
   48MOL    H46 7660   6.504   4.814   6.358  2.1041 -0.5951 -1.8827
   48MOL    H47 7661   6.491   4.690   6.493  0.8951 -1.2912 -0.6500
   48MOL    H48 7662   6.650   4.574   6.378  0.1192 -0.2787  0.4220
   48MOL    H49 7663   6.767   4.692   6.409 -0.1668  0.2888 -1.0922
   48MOL    C50 7664   6.799   4.654   6.143 -0.6650 -0.0276 -0.2483
   48MOL    C51 7665   6.780   4.567   6.021  0.0975 -0.1148  0.6677
   48MOL    C52 7666   6.893   4.583   5.912  0.2566 -0.0220 -0.8020
   48MOL    O53 7667   6.995   4.638   5.945 -0.0588  0.3809  0.2423
   48MOL    H54 7668   6.859   4.608   6.222 -1.1442 -0.9556 -0.4132
   48MOL    H55 7669   6.843   4.749   6.113 -0.0662  0.1242  1.0837
   48MOL    H56 7670   6.686   4.583   5.968 -0.1453  1.1187  1.4329
   48MOL    H57 7671   6.790   4.461   6.044  1.2212 -0.0953  0.2840
   48MOL    C58 7672   6.860   4.528   5.775  0.4419  0.4927  0.0564
   48MOL    C59 7673   6.963   4.580   5.677 -0.0146  0.0272 -0.1668
   48MOL    C60 7674   6.924   4.711   5.606 -0.3799  0.2978 -0.6996
   48MOL    O61 7675   6.933   4.817   5.664  0.2379  0.0351  0.6425
   48MOL    H62 7676   6.763   4.563   5.740  1.4717  1.9098 -1.4211
   48MOL    H63 7677   6.843   4.420   5.776  1.0970  0.3831  0.0563
   48MOL    H64 7678   6.967   4.496   5.608  0.8616  0.1260 -0.2405
   48MOL    H65 7679   7.065   4.587   5.714 -0.3343  2.0933  0.3781
   48MOL    C66 7680   6.856   4.706   5.469 -0.0172 -0.5775 -0.1607
   48MOL    C67 7681   6.886   4.831   5.380  0.3231  0.2767 -0.7032
   48MOL    C68 7682   6.769   4.924   5.354  0.3477  0.6073 -0.8453
   48MOL    O69 7683   6.660   4.919   5.414  0.1033 -0.0195  0.2839
   48MOL    H70 7684   6.748   4.697   5.472 -0.1196  0.7536  0.4391
   48MOL    H71 7685   6.898   4.622   5.414  1.3901  0.9501 -1.4802
   48MOL    H72 7686   6.916   4.791   5.283 -1.9956 -4.0378  0.1954
   48MOL    H73 7687   6.969   4.888   5.421 -0.5417  2.4624 -1.9173
   48MOL    C74 7688   6.794   5.030   5.240 -0.1686 -0.3038  0.7286
   48MOL    C75 7689   6.674   5.111   5.185 -0.4952 -0.1408  0.1958
   48MOL    C76 7690   6.699   5.143   5.037  0.0384  0.4822 -1.0303
   48MOL    O77 7691   6.759   5.069   4.967  0.5783 -0.1385  0.0099
   48MOL    H78 7692   6.851   4.979   5.162 -0.2916  0.1955  0.3127
   48MOL    H79 7693   6.872   5.094   5.281  0.0186 -0.2499  0.2866
   48MOL    H80 7694   6.637   5.195   5.244 -1.1566  0.0881 -0.5331
   48MOL    H81 7695   6.590   5.042   5.193 -0.0486 -0.7876 -0.6495
   48MOL    C82 7696   6.641   5.274   4.974  0.5546 -0.6976 -0.1424
   48MOL    C83 7697   6.518   5.247   4.892  0.5952  0.1846  0.4934
   48MOL    C84 7698   6.554   5.197   4.752  0.4840  0.1119  0.4458
   48MOL    O85 7699   6.636   5.254   4.688 -0.4081  0.4137  0.0447
   48MOL    H86 7700   6.722   5.313   4.912  0.1270  2.7199  1.2961
   48MOL    H87 7701   6.613   5.349   5.049 -1.7882 -0.9045 -0.7615
   48MOL    H88 7702   6.470   5.344   4.883 -1.8964 -0.7752  2.7589
   48MOL    H89 7703   6.454   5.173   4.941  0.0118 -0.2138 -0.8427
   48MOL    C90 7704   6.496   5.059   4.710  0.1188  0.0074  0.5071
   48MOL    C91 7705   6.463   5.057   4.553 -0.2104  0.8309  0.1038
   48MOL    C92 7706   6.576   5.010   4.461 -0.3518 -0.5223 -0.2123
   48MOL    O93 7707   6.676   4.947   4.491  0.2076 -0.1234 -0.0259
   48MOL    H94 7708   6.397   5.070   4.755 -0.4920  0.0381 -0.8352
   48MOL    H95 7709   6.557   4.987   4.764  0.6903  0.4553  0.4650
   48MOL    H96 7710   6.431   5.159   4.533  0.3199  0.7168 -1.3577
   48MOL    H97 7711   6.365   5.014   4.534 -0.0533  0.7985 -0.6502
   48MOL    C98 7712   6.544   5.050   4.316  0.0409  0.4975 -0.2055
   48MOL    C99 7713   6.660   5.015   4.216  0.0858 -0.3110 -0.2999
   48MOL   C100 7714   6.712   5.125   4.125 -0.5754  0.2854 -0.7584
   48MOL   O101 7715   6.715   5.244   4.150 -0.6497  0.1293 -0.3705
   48MOL   H102 7716   6.527   5.157   4.328 -0.6585  0.3176  0.4503
   48MOL   H103 7717   6.449   5.010   4.280  1.3233 -0.4724 -2.5907
   48MOL   H104 7718   6.616   4.930   4.164 -2.3051  0.7348 -0.0656
   48MOL   H105 7719   6.742   4.963   4.265 -1.7985 -0.3484  3.0045
   48MOL   C106 7720   6.754   5.076   3.984 -0.6749  0.1153  0.1180
   48MOL   C107 7721   6.699   5.164   3.868  0.0504  0.0869  0.5610
   48MOL   C108 7722   6.664   5.084   3.748 -0.6707 -0.0564 -0.4139
   48MOL   O109 7723   6.560   5.020   3.741 -0.1311  0.1017 -0.4640
   48MOL   H110 7724   6.730   4.971   3.971 -3.0991  0.6613  0.0355
   48MOL   H111 7725   6.862   5.078   3.967 -0.9279  0.5912 -1.5307
   48MOL   H112 7726   6.774   5.237   3.838 -0.0086  0.8857  2.2581
   48MOL   H113 7727   6.611   5.221   3.899 -0.8327 -1.2744  0.6061
   48MOL   C114 7728   6.771   5.083   3.636  0.0192 -0.6927  0.0528
   48MOL   C115 7729   6.772   4.955   3.548  0.3533  0.0331 -0.3997
   48MOL   C116 7730   6.757   4.984   3.402 -0.1101 -0.1420 -0.6721
   48MOL   O117 7731   6.694   5.083   3.369 -0.1464  0.1080 -0.6466
   48MOL   H118 7732   6.860   5.097   3.697 -0.6152 -2.6501  1.5172
   48MOL   H119 7733   6.776   5.176   3.580  1.8737 -0.0892  1.1824
   48MOL   H120 7734   6.688   4.886   3.562  1.2457 -0.6649  1.7478
   48MOL   H121 7735   6.867   4.909   3.576  0.0129 -1.0996 -1.0884
   48MOL   C122 7736   6.813   4.889   3.295  0.0495 -0.0535 -0.0198
   48MOL   C123 7737   6.705   4.822   3.206  0.0258  0.1432 -0.4102
   48MOL   C124 7738   6.580   4.771   3.271  0.0963  0.2829  0.4342
   48MOL   O125 7739   6.573   4.759   3.392  0.4893  0.3461  0.0218
   48MOL   H126 7740   6.882   4.815   3.335  3.9563  3.3863 -0.0432
   48MOL   H127 7741   6.877   4.952   3.233  0.9368  0.1630  1.0887
   48MOL   H128 7742   6.743   4.734   3.154  0.0170 -0.4948  0.6504
   48MOL   H129 7743   6.683   4.891   3.124  1.0156  1.3624  0.3314
   48MOL   C130 7744   6.459   4.758   3.175  0.2054  0.0721 -0.2677
   48MOL   C131 7745   6.323   4.729   3.242  0.1227  0.3254 -0.1621
   48MOL   C132 7746   6.278   4.586   3.223  0.2547 -0.8411 -0.4326
   48MOL   O133 7747   6.291   4.522   3.120  0.0162  0.7239 -0.1620
   48MOL   H134 7748   6.483   4.683   3.100 -2.1019 -2.3084  1.2568
   48MOL   H135 7749   6.449   4.850   3.118  2.6527  0.8467  0.5118
   48MOL   H136 7750   6.247   4.794   3.199  0.1080  0.7449  0.4841
   48MOL   H137 7751   6.335   4.751   3.348 -0.9665  0.3740 -0.0417
   48MOL   C138 7752   6.207   4.521   3.345 -0.0173  0.3789  0.0637
   48MOL   C139 7753   6.299   4.497   3.465  0.5392 -0.2407 -0.0764
   48MOL   C140 7754   6.305   4.614   3.569  0.1802 -0.5158 -0.0037
   48MOL   O141 7755   6.218   4.698   3.578  0.1349  0.0258 -0.0278
   48MOL   H142 7756   6.165   4.428   3.307 -0.8608  0.8131 -0.0723
   48MOL   H143 7757   6.127   4.586   3.377 -1.2019 -1.0809  0.1259
   48MOL   H144 7758   6.401   4.493   3.426 -0.2977 -0.7666 -2.2876
   48MOL   H145 7759   6.274   4.405   3.519 -0.1842  1.1191  1.9562
   48MOL   C146 7760   6.427   4.614   3.665 -0.0015 -0.8434 -0.7267
   48MOL   C147 7761   6.428   4.731   3.770  0.0538  0.6922  0.5547
   48MOL   C148 7762   6.374   4.690   3.900 -0.0184 -0.2357  0.7258
   48MOL   O149 7763   6.292   4.597   3.905 -0.1428  0.6213  0.0077
   48MOL   H150 7764   6.505   4.621   3.590  0.8657 -0.2785  0.2077
   48MOL   H151 7765   6.434   4.521   3.721 -2.1059 -1.4278 -1.4024
   48MOL   H152 7766   6.387   4.824   3.730  1.2124  1.8098  1.9381
   48MOL   H153 7767   6.532   4.762   3.785  0.0349  1.4357 -0.7436
   48MOL   C154 7768   6.412   4.770   4.023  0.1640 -1.0164  0.3633
   48MOL   C155 7769   6.443   4.680   4.141  0.2088  0.5695 -0.2693
   48MOL   C156 7770   6.349   4.716   4.260 -0.8972  0.2808  0.7640
   48MOL   O157 7771   6.390   4.742   4.375 -0.2698  0.6415 -0.0122
   48MOL   H158 7772   6.331   4.841   4.036 -1.6562 -2.7353 -1.3152
   48MOL   H159 7773   6.493   4.839   3.999 -2.4439  2.5286  1.4620
   48MOL   H160 7774   6.545   4.683   4.182  0.3855  0.0385 -0.6630
   48MOL   H161 7775   6.414   4.575   4.129  2.3814 -0.3402  1.7927
   48MOL   H162 7776   6.243   4.703   4.240 -0.2882  0.0986 -2.7132
   49MOL     C1 7777   0.381   2.393   0.502  0.2499  0.0993 -0.3147
   49MOL     C2 7778   0.357   2.299   0.622  0.5992  0.1512  0.4021
   49MOL     C3 7779   0.362   2.155   0.587 -0.9321 -0.0272  0.0737
   49MOL     O4 7780   0.306   2.113   0.491 -0.2794  0.3544  0.3490
   49MOL     H5 7781   0.313   2.369   0.420 -0.6312 -1.1421  0.7593
   49MOL     H6 7782   0.369   2.497   0.530  2.3179  0.0319  0.8744
   49MOL     H7 7783   0.258   2.308   0.667 -0.4295 -0.5979 -1.7128
   49MOL     H8 7784   0.440   2.317   0.691  2.2712  1.4167 -1.8540
   49MOL     H9 7785   0.482   2.384   0.462 -0.7298 -1.1843 -2.6344
   49MOL    C10 7786   0.432   2.059   0.678  0.1643 -0.1156 -0.1035
   49MOL    C11 7787   0.439   1.913   0.620 -0.4032 -0.3690  0.1782
   49MOL    C12 7788   0.501   1.811   0.711  0.4172  0.1004 -0.3157
   49MOL    O13 7789   0.604   1.748   0.681 -0.1797 -0.7143  0.0930
   49MOL    H14 7790   0.391   2.062   0.779 -0.8773  0.2779 -0.5381
   49MOL    H15 7791   0.537   2.083   0.694  0.1249  1.0113 -1.4547
   49MOL    H16 7792   0.504   1.927   0.533 -0.2282  1.1290  0.5373
   49MOL    H17 7793   0.342   1.866   0.606 -0.3825 -1.2690  2.7860
   49MOL    C18 7794   0.420   1.784   0.838 -0.3774 -0.5088 -0.7223
   49MOL    C19 7795   0.461   1.863   0.964 -0.1174 -0.1138 -0.2876
   49MOL    C20 7796   0.514   1.791   1.090  0.4636 -0.7825  0.0589
   49MOL    O21 7797   0.530   1.664   1.091  0.2098 -0.2657  0.5733
   49MOL    H22 7798   0.435   1.677   0.855 -1.4552 -0.8215 -1.7228
   49MOL    H23 7799   0.315   1.807   0.821 -0.2956  0.5026  0.0709
   49MOL    H24 7800   0.374   1.912   1.008 -1.0842  0.1080 -2.3799
   49MOL    H25 7801   0.530   1.938   0.925 -0.3839  0.1501 -0.2519
   49MOL    C26 7802   0.518   1.872   1.217  0.1459 -0.4683  0.4676
   49MOL    C27 7803   0.552   1.799   1.354  0.5115  0.3150 -0.3897
   49MOL    C28 7804   0.565   1.904   1.470 -0.1278  0.0292  0.1829
   49MOL    O29 7805   0.587   2.022   1.437  0.3153  0.1958  0.2235
   49MOL    H30 7806   0.420   1.919   1.224  0.0501 -0.7243  0.9125
   49MOL    H31 7807   0.583   1.958   1.211 -1.5764  0.9828  1.9822
   49MOL    H32 7808   0.637   1.733   1.341  0.6673  0.4442 -0.0185
   49MOL    H33 7809   0.467   1.735   1.380  1.3137  0.1624  1.9469
   49MOL    C34 7810   0.560   1.860   1.609  0.0217  1.4443 -0.1255
   49MOL    C35 7811   0.588   1.972   1.713  0.5512  0.2603 -0.7757
   49MOL    C36 7812   0.569   1.923   1.854  0.3524  0.1084  0.1574
   49MOL    O37 7813   0.569   1.804   1.883  0.2003 -0.3555  0.2625
   49MOL    H38 7814   0.636   1.784   1.624 -0.6190  1.0314  1.0783
   49MOL    H39 7815   0.459   1.821   1.623 -0.2030  2.4947  1.2335
   49MOL    H40 7816   0.532   2.066   1.704  2.2257  1.2541 -1.1091
   49MOL    H41 7817   0.688   2.014   1.700  0.6641 -0.2023 -1.3711
   49MOL    C42 7818   0.539   2.021   1.967 -0.0895  0.1569 -0.8278
   49MOL    C43 7819   0.568   1.958   2.103  0.0412  0.1882 -0.4211
   49MOL    C44 7820   0.549   2.064   2.220 -0.1635  0.2997 -0.4187
   49MOL    O45 7821   0.572   2.180   2.198 -0.4232 -0.3233  0.0057
   49MOL    H46 7822   0.431   2.030   1.957 -0.2428 -2.6595 -2.2677
   49MOL    H47 7823   0.594   2.111   1.940 -1.7483  2.1410  2.2266
   49MOL    H48 7824   0.669   1.917   2.111 -0.0470  0.1279  0.5377
   49MOL    H49 7825   0.502   1.872   2.119 -0.4543  0.9062  1.6401
   49MOL    C50 7826   0.509   2.002   2.356 -0.0525  0.7718 -0.5214
   49MOL    C51 7827   0.500   2.106   2.467  0.3116  0.8001 -0.5599
   49MOL    C52 7828   0.627   2.135   2.531  0.1116 -0.3600 -0.3541
   49MOL    O53 7829   0.727   2.065   2.524 -0.6502 -0.3955 -0.4255
   49MOL    H54 7830   0.591   1.933   2.375 -2.4681 -1.6048  1.6505
   49MOL    H55 7831   0.417   1.943   2.352  1.5416 -1.8367  0.3496
   49MOL    H56 7832   0.431   2.071   2.543  2.3144 -1.4236  0.3027
   49MOL    H57 7833   0.449   2.194   2.429 -2.2579  0.1809  1.3205
   49MOL    C58 7834   0.634   2.267   2.614 -0.5557 -0.1988 -0.1319
   49MOL    C59 7835   0.777   2.325   2.615  0.3755  0.2302 -0.1647
   49MOL    C60 7836   0.763   2.474   2.576  0.0391  0.4463  0.1842
   49MOL    O61 7837   0.754   2.505   2.462  0.3101 -0.4600  0.1856
   49MOL    H62 7838   0.602   2.240   2.714  1.1781 -1.5328  0.0748
   49MOL    H63 7839   0.556   2.328   2.568  0.9269  1.0611 -0.9995
   49MOL    H64 7840   0.840   2.279   2.539  2.4439 -1.5569  2.5403
   49MOL    H65 7841   0.825   2.323   2.713 -1.4966 -0.9389  0.7449
   49MOL    C66 7842   0.744   2.573   2.691 -0.0888 -0.6828 -0.3626
   49MOL    C67 7843   0.729   2.720   2.638 -0.0678 -0.3401 -0.2701
   49MOL    C68 7844   0.863   2.796   2.621  0.2328 -0.2224  0.4060
   49MOL    O69 7845   0.970   2.742   2.639 -0.0514 -0.0130 -0.3928
   49MOL    H70 7846   0.835   2.568   2.751 -0.6121  0.6656  0.5627
   49MOL    H71 7847   0.663   2.541   2.757 -0.0945 -1.0769 -0.5621
   49MOL    H72 7848   0.661   2.782   2.697  0.1714 -0.9236  0.6173
   49MOL    H73 7849   0.698   2.730   2.534  0.3752  0.1864 -0.3576
   49MOL    C74 7850   0.858   2.931   2.571  0.3233 -0.3131  0.0962
   49MOL    C75 7851   0.961   2.963   2.463  0.3725 -0.1501 -0.4664
   49MOL    C76 7852   0.977   3.113   2.447 -0.3073  0.1462 -0.0764
   49MOL    O77 7853   0.891   3.192   2.486 -0.0888  0.2234 -0.5677
   49MOL    H78 7854   0.859   2.994   2.660 -1.8222 -0.2588  0.1063
   49MOL    H79 7855   0.761   2.947   2.524 -0.7710 -1.3579  1.9666
   49MOL    H80 7856   0.922   2.916   2.373  1.7629 -1.3729 -0.4359
   49MOL    H81 7857   1.064   2.935   2.486  1.0200  2.8423  0.5277
   49MOL    C82 7858   1.103   3.157   2.373 -0.1679 -0.0380 -0.8206
   49MOL    C83 7859   1.204   3.229   2.463 -1.0021  0.3588 -0.1116
   49MOL    C84 7860   1.332   3.144   2.491  0.3317  0.2460  0.5623
   49MOL    O85 7861   1.319   3.020   2.492 -0.6396  0.4750  0.1915
   49MOL    H86 7862   1.072   3.235   2.303  2.3277  0.8562 -0.9914
   49MOL    H87 7863   1.151   3.072   2.323  1.3013 -0.0738  0.6092
   49MOL    H88 7864   1.148   3.255   2.553  1.6072  1.2776  1.3297
   49MOL    H89 7865   1.238   3.326   2.428  2.0284 -1.2484 -1.8669
   49MOL    C90 7866   1.462   3.208   2.525  0.6119 -0.2287 -0.1273
   49MOL    C91 7867   1.589   3.125   2.516 -0.3036 -0.1447  0.7703
   49MOL    C92 7868   1.710   3.221   2.496 -0.5134 -0.4131 -0.2675
   49MOL    O93 7869   1.741   3.292   2.588 -0.1393 -0.1920  0.3357
   49MOL    H94 7870   1.447   3.218   2.632 -1.2444 -0.9310 -0.3055
   49MOL    H95 7871   1.471   3.309   2.484 -0.2648 -0.1757 -0.2007
   49MOL    H96 7872   1.572   3.063   2.428 -2.2437 -0.0632  1.0776
   49MOL    H97 7873   1.604   3.052   2.595 -2.1083 -2.5322 -1.0316
   49MOL    C98 7874   1.802   3.204   2.371  0.5655  0.3632  0.1932
   49MOL    C99 7875   1.901   3.324   2.347  0.0309 -0.3659 -0.0354
   49MOL   C100 7876   1.861   3.404   2.224 -0.1957  0.2796  0.1237
   49MOL   O101 7877   1.744   3.402   2.188  0.2461 -0.1211 -0.5103
   49MOL   H102 7878   1.746   3.176   2.282 -1.0993  0.9742  1.0232
   49MOL   H103 7879   1.859   3.114   2.395 -0.7383 -0.1694  1.3373
   49MOL   H104 7880   1.997   3.276   2.329  0.2463  0.3462 -0.8205
   49MOL   H105 7881   1.902   3.393   2.431 -0.8571  1.9624 -1.8768
   49MOL   C106 7882   1.966   3.495   2.152 -0.0702  0.1518  0.5211
   49MOL   C107 7883   1.891   3.598   2.053  0.5167 -0.0918  0.3259
   49MOL   C108 7884   1.901   3.570   1.901  0.0764  0.3371  0.0662
   49MOL   O109 7885   1.973   3.484   1.856 -0.4766 -0.5197  0.0472
   49MOL   H110 7886   2.035   3.438   2.090  0.5238  0.3733  0.9695
   49MOL   H111 7887   2.028   3.547   2.225  0.1233 -0.8130  1.0451
   49MOL   H112 7888   1.907   3.702   2.082  0.9042  0.5202 -2.0339
   49MOL   H113 7889   1.783   3.584   2.059  0.6328 -1.2302 -0.1330
   49MOL   C114 7890   1.823   3.664   1.811 -0.0506 -0.4381 -0.2293
   49MOL   C115 7891   1.724   3.597   1.719  0.1301  0.3020 -0.2083
   49MOL   C116 7892   1.591   3.600   1.790  0.3018 -0.2661  0.2865
   49MOL   O117 7893   1.586   3.616   1.908  0.0143 -0.0384  0.5380
   49MOL   H118 7894   1.899   3.716   1.753 -0.8540  0.9567 -0.0420
   49MOL   H119 7895   1.800   3.747   1.877  0.0944  0.7881 -1.7023
   49MOL   H120 7896   1.764   3.497   1.699  1.7304  1.2727 -1.9942
   49MOL   H121 7897   1.728   3.650   1.625  0.7661 -0.0734 -0.4021
   49MOL   C122 7898   1.462   3.605   1.713 -0.1090  0.3218  0.3416
   49MOL   C123 7899   1.341   3.592   1.806  0.0755  0.0321  0.2829
   49MOL   C124 7900   1.267   3.721   1.846 -0.1860  0.8180 -0.0685
   49MOL   O125 7901   1.330   3.825   1.860 -0.4769 -0.1446  0.0729
   49MOL   H126 7902   1.463   3.518   1.648 -0.7805  0.0936  0.6328
   49MOL   H127 7903   1.445   3.694   1.652 -1.4497 -1.3708 -1.7986
   49MOL   H128 7904   1.363   3.540   1.899  0.0657 -0.7470 -0.1441
   49MOL   H129 7905   1.265   3.538   1.748  1.3908 -0.9365 -0.5646
   49MOL   C130 7906   1.124   3.707   1.881  0.1223 -0.6625 -0.2309
   49MOL   C131 7907   1.047   3.851   1.887  0.3960  0.3168  0.2253
   49MOL   C132 7908   1.060   3.911   2.026  0.3901  0.0759 -0.2755
   49MOL   O133 7909   0.990   3.850   2.108 -0.0631 -0.7560  0.5230
   49MOL   H134 7910   1.126   3.655   1.977  0.3270 -2.9097 -1.4165
   49MOL   H135 7911   1.082   3.631   1.816  0.9121  0.5289 -2.1813
   49MOL   H136 7912   0.941   3.832   1.873  0.7183 -1.7990  0.3776
   49MOL   H137 7913   1.087   3.915   1.809  0.7144 -0.9256 -0.6597
   49MOL   C138 7914   1.149   4.034   2.044 -0.0365 -0.0038 -0.3511
   49MOL   C139 7915   1.182   4.066   2.192  0.4208  0.2986 -0.0645
   49MOL   C140 7916   1.247   4.203   2.224  0.1400  0.6931  0.0647
   49MOL   O141 7917   1.239   4.300   2.146 -0.6452 -0.2485 -0.5190
   49MOL   H142 7918   1.101   4.119   1.995  0.5493  0.5837  0.0968
   49MOL   H143 7919   1.243   4.016   1.992 -0.2084 -1.3201 -0.2209
   49MOL   H144 7920   1.251   3.992   2.234 -1.0850 -0.7232  0.6173
   49MOL   H145 7921   1.095   4.056   2.256 -0.4413  0.0122 -1.2467
   49MOL   C146 7922   1.328   4.221   2.356  0.0259 -0.1941 -0.3014
   49MOL   C147 7923   1.439   4.317   2.345 -0.0522 -0.2913 -0.6000
   49MOL   C148 7924   1.509   4.346   2.481  0.2872  0.3508  0.2783
   49MOL   O149 7925   1.560   4.261   2.551  0.4006  0.0141  0.3187
   49MOL   H150 7926   1.363   4.126   2.395  1.6184  0.3200 -0.4491
   49MOL   H151 7927   1.259   4.252   2.434  0.6270  2.1589 -0.6696
   49MOL   H152 7928   1.399   4.408   2.301  0.6852  0.5151  0.3917
   49MOL   H153 7929   1.501   4.280   2.263 -0.6798 -0.6761 -0.9032
   49MOL   C154 7930   1.511   4.495   2.514  0.1208 -0.3586  0.5120
   49MOL   C155 7931   1.612   4.517   2.628  0.0932  0.6649 -0.2523
   49MOL   C156 7932   1.699   4.643   2.617 -0.0638  0.0952  0.8918
   49MOL   O157 7933   1.647   4.745   2.648  0.0661  0.2779 -0.2524
   49MOL   H158 7934   1.409   4.528   2.535  0.1673 -0.0924  0.3185
   49MOL   H159 7935   1.557   4.552   2.434 -0.5314  1.1416  1.1858
   49MOL   H160 7936   1.681   4.436   2.649  0.4754  1.1534  0.3671
   49MOL   H161 7937   1.554   4.534   2.719 -0.2703 -0.8983 -0.1766
   49MOL   H162 7938   1.801   4.636   2.579 -0.7607 -0.0510 -1.0119
   50MOL     C1 7939   2.288   5.911   4.727  0.3930 -0.2671 -0.2456
   50MOL     C2 7940   2.439   5.916   4.758 -0.0841  0.1161  0.7018
   50MOL     C3 7941   2.493   6.058   4.753 -0.0732 -0.5041  0.1189
   50MOL     O4 7942   2.465   6.128   4.655  0.0332  0.2793  0.8881
   50MOL     H5 7943   2.250   5.810   4.739  1.9636 -0.8202  0.0997
   50MOL     H6 7944   2.230   5.975   4.794 -0.1198  0.0110 -0.9389
   50MOL     H7 7945   2.486   5.853   4.682 -0.1678  1.8423 -0.8401
   50MOL     H8 7946   2.443   5.871   4.857 -2.5038 -2.0291 -0.1307
   50MOL     H9 7947   2.277   5.941   4.623 -0.2937 -0.7824 -0.3256
   50MOL    C10 7948   2.570   6.109   4.873  0.7311  0.8851  0.4719
   50MOL    C11 7949   2.592   6.262   4.885 -0.2276  0.4257 -0.2217
   50MOL    C12 7950   2.506   6.326   4.988 -0.2300  0.4892  0.0428
   50MOL    O13 7951   2.514   6.309   5.105  0.3424  0.1654  0.0899
   50MOL    H14 7952   2.664   6.053   4.875  0.8507  1.0732  0.0442
   50MOL    H15 7953   2.513   6.072   4.958 -0.6176  1.5701 -0.1197
   50MOL    H16 7954   2.566   6.301   4.786  0.8489  0.1863 -0.6081
   50MOL    H17 7955   2.697   6.283   4.904 -0.1766 -1.0172  1.1609
   50MOL    C18 7956   2.387   6.401   4.929  0.4669  0.1759 -0.1653
   50MOL    C19 7957   2.289   6.433   5.041  0.2132  0.1263  0.6194
   50MOL    C20 7958   2.199   6.554   5.012 -0.2913  0.0770 -0.1401
   50MOL    O21 7959   2.245   6.663   4.983  0.2109 -0.4253  0.3146
   50MOL    H22 7960   2.334   6.344   4.853  0.1766  0.6985 -0.3588
   50MOL    H23 7961   2.423   6.494   4.885  1.2070  1.0300  2.1628
   50MOL    H24 7962   2.346   6.468   5.128 -0.0382 -1.0984  1.2862
   50MOL    H25 7963   2.243   6.342   5.078  0.3834 -0.1639  0.1162
   50MOL    C26 7964   2.052   6.520   5.008 -0.0954  0.6725 -0.2050
   50MOL    C27 7965   2.000   6.483   5.145 -0.3287  0.5987 -0.4874
   50MOL    C28 7966   1.857   6.533   5.175 -0.1567 -0.0617 -0.1727
   50MOL    O29 7967   1.807   6.620   5.105  0.1975  0.1830 -0.6037
   50MOL    H30 7968   2.028   6.430   4.952  0.1491  0.8624 -0.6196
   50MOL    H31 7969   2.006   6.612   4.972  0.8324  0.8045 -1.0591
   50MOL    H32 7970   2.061   6.530   5.222 -1.9253  0.0739  1.1359
   50MOL    H33 7971   2.002   6.375   5.155  0.5162  0.8406  2.2639
   50MOL    C34 7972   1.781   6.480   5.295  1.2882  0.2870  0.0122
   50MOL    C35 7973   1.736   6.595   5.391 -0.0254 -0.0715  0.4917
   50MOL    C36 7974   1.826   6.607   5.513  0.4678  0.0996  0.0739
   50MOL    O37 7975   1.941   6.566   5.507  0.2595 -0.7281 -0.5469
   50MOL    H38 7976   1.844   6.398   5.328  0.7371  0.0152  0.3834
   50MOL    H39 7977   1.686   6.435   5.265  0.8774  1.0490  0.1471
   50MOL    H40 7978   1.636   6.578   5.429  0.5805 -0.8055  1.8162
   50MOL    H41 7979   1.724   6.696   5.353  0.5066 -0.5071 -0.8813
   50MOL    C42 7980   1.784   6.685   5.648 -0.0513 -0.0361  0.8552
   50MOL    C43 7981   1.891   6.690   5.757 -0.1267  0.3118  0.4381
   50MOL    C44 7982   2.009   6.785   5.722  0.1367  0.4774 -0.0793
   50MOL    O45 7983   1.996   6.868   5.633  0.2209  0.0385  0.0133
   50MOL    H46 7984   1.700   6.632   5.694  0.4380 -2.0192 -0.4644
   50MOL    H47 7985   1.759   6.790   5.632  1.1225  0.0996 -0.1826
   50MOL    H48 7986   1.940   6.593   5.768  0.3003  0.4244 -0.3603
   50MOL    H49 7987   1.849   6.728   5.850 -2.5755 -3.5589  1.0288
   50MOL    C50 7988   2.137   6.767   5.796  0.1867 -0.7908  1.4190
   50MOL    C51 7989   2.263   6.825   5.719  0.2119  0.7048 -1.0077
   50MOL    C52 7990   2.400   6.771   5.762 -0.1557 -0.0836 -0.4090
   50MOL    O53 7991   2.414   6.651   5.785 -0.0313 -0.5680 -0.0615
   50MOL    H54 7992   2.158   6.660   5.805 -1.6603 -1.1265  1.8749
   50MOL    H55 7993   2.126   6.822   5.889  1.0637  1.2748  0.3207
   50MOL    H56 7994   2.264   6.934   5.719 -0.1151  0.8252  3.7058
   50MOL    H57 7995   2.248   6.788   5.618  0.6991  2.4390 -1.7358
   50MOL    C58 7996   2.515   6.873   5.756  0.0343 -0.4415 -0.3228
   50MOL    C59 7997   2.658   6.812   5.789 -0.1704 -0.1716  0.1904
   50MOL    C60 7998   2.715   6.753   5.659  0.1039  0.0306  1.0952
   50MOL    O61 7999   2.645   6.742   5.561  0.5060 -0.7281 -0.0552
   50MOL    H62 8000   2.496   6.941   5.839  1.4106  1.0242 -1.1747
   50MOL    H63 8001   2.511   6.935   5.667  0.3441  0.0991  0.0359
   50MOL    H64 8002   2.659   6.735   5.866 -1.7194 -2.0258 -1.5788
   50MOL    H65 8003   2.728   6.887   5.825  0.2475 -1.0961  1.3461
   50MOL    C66 8004   2.858   6.688   5.668  0.4267  0.2250 -0.7482
   50MOL    C67 8005   2.951   6.749   5.564  0.2030 -0.1600 -0.3431
   50MOL    C68 8006   2.997   6.890   5.601 -0.0597 -0.2761  0.0829
   50MOL    O69 8007   2.918   6.980   5.609  0.0481  0.6230  0.2183
   50MOL    H70 8008   2.851   6.583   5.638  1.4104 -0.1055  0.1153
   50MOL    H71 8009   2.901   6.687   5.768 -0.0169  0.0892 -0.5603
   50MOL    H72 8010   2.890   6.761   5.474 -0.7993  0.5363  0.4146
   50MOL    H73 8011   3.029   6.682   5.528  1.3017  1.7198 -1.5543
   50MOL    C74 8012   3.148   6.917   5.631 -0.1556 -0.1586  0.1043
   50MOL    C75 8013   3.183   7.064   5.671  0.1122  0.2286  0.1478
   50MOL    C76 8014   3.206   7.076   5.823 -0.0290  0.1016 -0.2437
   50MOL    O77 8015   3.185   6.978   5.896 -0.4405 -0.6900 -0.0744
   50MOL    H78 8016   3.193   6.916   5.532 -2.9407  0.0999 -1.2278
   50MOL    H79 8017   3.201   6.841   5.688  0.5311 -0.5493 -1.0449
   50MOL    H80 8018   3.113   7.143   5.644  0.7737  1.4659  1.9365
   50MOL    H81 8019   3.279   7.084   5.624  0.4336 -1.0669  0.2405
   50MOL    C82 8020   3.265   7.209   5.876 -0.4902 -0.1051 -0.4885
   50MOL    C83 8021   3.415   7.222   5.904 -0.8055 -0.1790  0.4920
   50MOL    C84 8022   3.495   7.279   5.780 -0.9278 -0.0369 -0.0505
   50MOL    O85 8023   3.450   7.273   5.667  0.0858  0.5734 -0.4383
   50MOL    H86 8024   3.205   7.233   5.963 -0.5495 -2.4345  0.1340
   50MOL    H87 8025   3.240   7.289   5.805 -1.0709 -0.3443 -0.5519
   50MOL    H88 8026   3.457   7.124   5.926  0.8374  0.0577 -1.4616
   50MOL    H89 8027   3.437   7.287   5.989  1.7623 -0.0965 -0.1905
   50MOL    C90 8028   3.645   7.320   5.815  0.0180  0.3537  0.4312
   50MOL    C91 8029   3.709   7.355   5.683  0.4101 -0.3025  0.7120
   50MOL    C92 8030   3.854   7.408   5.687 -0.2541  0.0631  0.8715
   50MOL    O93 8031   3.904   7.468   5.779  0.0424 -0.5320 -0.3359
   50MOL    H94 8032   3.686   7.223   5.844  3.8713  1.2738 -1.6823
   50MOL    H95 8033   3.651   7.399   5.890 -1.0353  1.1621 -0.3157
   50MOL    H96 8034   3.659   7.440   5.637  0.3667 -1.2587 -1.0328
   50MOL    H97 8035   3.691   7.271   5.616  0.1953  1.0658 -0.9761
   50MOL    C98 8036   3.941   7.363   5.571 -0.2422  0.4960  0.1027
   50MOL    C99 8037   4.066   7.454   5.558  1.1921 -0.5013  0.3461
   50MOL   C100 8038   4.188   7.399   5.628  0.0809 -0.2922 -0.5381
   50MOL   O101 8039   4.221   7.287   5.589 -0.2683  0.0178 -0.1309
   50MOL   H102 8040   3.877   7.362   5.483 -0.1822 -0.6572  0.0576
   50MOL   H103 8041   3.972   7.260   5.588 -1.2377  0.0945 -0.4551
   50MOL   H104 8042   4.051   7.547   5.612  3.4634  0.5047 -0.6813
   50MOL   H105 8043   4.078   7.481   5.453 -2.9770 -0.4859 -0.2426
   50MOL   C106 8044   4.264   7.483   5.730  0.1975  0.5132  0.0717
   50MOL   C107 8045   4.402   7.420   5.784 -0.4106  0.6166  0.3506
   50MOL   C108 8046   4.382   7.308   5.886 -0.3952 -0.7726  0.1994
   50MOL   O109 8047   4.283   7.313   5.964 -0.0075 -0.0429 -0.0889
   50MOL   H110 8048   4.203   7.517   5.814  0.1102 -0.9653  0.6234
   50MOL   H111 8049   4.291   7.573   5.675 -1.9416  0.0323 -1.8023
   50MOL   H112 8050   4.469   7.495   5.825 -0.4067  0.3012  0.9144
   50MOL   H113 8051   4.456   7.369   5.704 -0.2980  0.8839  0.2566
   50MOL   C114 8052   4.468   7.181   5.882 -0.2310 -0.2645  0.3169
   50MOL   C115 8053   4.383   7.064   5.831  0.2546 -0.6575 -0.3656
   50MOL   C116 8054   4.455   6.938   5.794 -0.4254  0.3117  0.0562
   50MOL   O117 8055   4.570   6.948   5.754 -0.5015  0.2030 -0.8434
   50MOL   H118 8056   4.516   7.165   5.979 -0.1011  2.6800  0.7729
   50MOL   H119 8057   4.547   7.201   5.810 -0.5912 -0.7500 -0.2153
   50MOL   H120 8058   4.318   7.095   5.749  1.2192  0.1143 -0.8463
   50MOL   H121 8059   4.310   7.035   5.907  1.8587 -1.5129  0.8797
   50MOL   C122 8060   4.380   6.810   5.772 -0.0772 -0.4932 -0.1401
   50MOL   C123 8061   4.485   6.700   5.786  1.0181  0.1888  0.6103
   50MOL   C124 8062   4.520   6.624   5.658 -0.1876 -0.3537 -0.2703
   50MOL   O125 8063   4.500   6.672   5.549 -0.7188  0.4280 -0.1494
   50MOL   H126 8064   4.338   6.821   5.673  0.0066  1.9100  0.0727
   50MOL   H127 8065   4.302   6.799   5.847  1.0373 -0.3329  1.0650
   50MOL   H128 8066   4.453   6.621   5.855  1.0126 -0.4204 -0.0764
   50MOL   H129 8067   4.575   6.725   5.843  0.5876  0.4765  1.1665
   50MOL   C130 8068   4.597   6.496   5.684 -0.7664  0.4585 -0.0383
   50MOL   C131 8069   4.494   6.384   5.716 -0.2200 -0.1488 -0.1060
   50MOL   C132 8070   4.487   6.335   5.861  0.6158  0.3989 -0.6435
   50MOL   O133 8071   4.565   6.378   5.946  0.3338 -0.0056 -0.0281
   50MOL   H134 8072   4.676   6.504   5.759 -0.1183 -0.9615 -0.5605
   50MOL   H135 8073   4.654   6.463   5.598 -0.3370  1.2363 -0.0482
   50MOL   H136 8074   4.525   6.297   5.657  0.9964  0.5108 -0.4589
   50MOL   H137 8075   4.394   6.415   5.689 -0.9627  1.0920  3.7459
   50MOL   C138 8076   4.382   6.226   5.887  0.3014  0.2945 -0.4677
   50MOL   C139 8077   4.356   6.213   6.041 -0.8508  0.0200  0.0214
   50MOL   C140 8078   4.441   6.098   6.111 -0.2558 -0.5271 -0.1907
   50MOL   O141 8079   4.504   6.006   6.062  0.6172 -1.4107 -0.0610
   50MOL   H142 8080   4.419   6.130   5.853  0.2407 -0.8024  2.4337
   50MOL   H143 8081   4.292   6.253   5.832 -0.0861 -1.0363 -0.4877
   50MOL   H144 8082   4.251   6.186   6.056 -0.5067 -0.3780  1.7872
   50MOL   H145 8083   4.374   6.304   6.097 -2.9574  1.0402 -0.8874
   50MOL   C146 8084   4.447   6.126   6.265  0.1760 -0.3953 -0.1687
   50MOL   C147 8085   4.486   6.006   6.349 -0.1016 -0.0331  0.1471
   50MOL   C148 8086   4.539   6.044   6.487  0.0432  0.1713  0.0392
   50MOL   O149 8087   4.613   6.141   6.502  0.9298 -0.4985 -0.4994
   50MOL   H150 8088   4.353   6.161   6.306 -0.0542 -2.1079  0.8209
   50MOL   H151 8089   4.516   6.209   6.272 -2.0496  1.3638  1.5590
   50MOL   H152 8090   4.560   5.948   6.294  0.1852  2.8882 -2.6615
   50MOL   H153 8091   4.404   5.935   6.363 -0.1068  0.1494  1.0809
   50MOL   C154 8092   4.507   5.949   6.603 -0.6386  0.5576  0.3729
   50MOL   C155 8093   4.503   6.038   6.734  0.1914  0.5191 -0.3441
   50MOL   C156 8094   4.635   6.047   6.809 -0.2722 -0.0647 -0.2080
   50MOL   O157 8095   4.715   5.953   6.796  0.0595  0.2276 -0.2523
   50MOL   H158 8096   4.586   5.874   6.600 -1.1640  0.0506 -1.0876
   50MOL   H159 8097   4.411   5.902   6.581  0.1976 -1.2925  0.6267
   50MOL   H160 8098   4.419   6.001   6.793  0.7996 -2.2144 -1.1182
   50MOL   H161 8099   4.471   6.137   6.704 -2.0325  0.7299  2.4663
   50MOL   H162 8100   4.645   6.114   6.895 -1.5029 -1.4809  1.0827
   51MOL     C1 8101   4.709   0.585   6.125 -0.3140  0.0172 -0.0539
   51MOL     C2 8102   4.688   0.718   6.056 -0.9947 -0.4673 -0.4401
   51MOL     C3 8103   4.741   0.835   6.130 -0.6858 -0.1016  0.1922
   51MOL     O4 8104   4.758   0.820   6.256  0.7432 -0.3531 -0.4262
   51MOL     H5 8105   4.703   0.504   6.053  0.4812 -0.1497  0.0673
   51MOL     H6 8106   4.807   0.567   6.170 -0.8432 -1.8182  0.4016
   51MOL     H7 8107   4.580   0.727   6.060 -0.8312  1.3416  0.2024
   51MOL     H8 8108   4.731   0.719   5.956 -0.9303 -1.3164 -0.4301
   51MOL     H9 8109   4.631   0.573   6.201 -0.1907  1.5042  0.3249
   51MOL    C10 8110   4.783   0.950   6.048 -0.7401 -0.9197  0.2570
   51MOL    C11 8111   4.837   1.066   6.139 -0.5492  0.0827  0.2938
   51MOL    C12 8112   4.898   1.179   6.059  0.0914  0.1310  0.2406
   51MOL    O13 8113   4.907   1.162   5.934  0.3251  0.5347 -0.8880
   51MOL    H14 8114   4.708   0.983   5.976 -1.0729 -0.4258  0.8278
   51MOL    H15 8115   4.862   0.908   5.985  0.4229 -1.5715  2.1083
   51MOL    H16 8116   4.914   1.027   6.206 -1.5107 -2.2898  0.0591
   51MOL    H17 8117   4.768   1.106   6.213  0.4852  0.4835  1.0686
   51MOL    C18 8118   4.917   1.315   6.129 -0.5068 -0.0092 -0.0040
   51MOL    C19 8119   4.943   1.429   6.032  0.0576  0.8483 -0.0772
   51MOL    C20 8120   5.017   1.551   6.100 -0.6597 -0.0955 -0.2554
   51MOL    O21 8121   5.000   1.570   6.223  0.4241 -0.4820  0.1716
   51MOL    H22 8122   5.003   1.291   6.192 -0.1220 -0.4052 -0.6710
   51MOL    H23 8123   4.833   1.338   6.193  0.4560  0.9785  0.9117
   51MOL    H24 8124   4.851   1.464   5.986  1.4734  0.0172 -3.7847
   51MOL    H25 8125   4.999   1.385   5.949  1.7713  1.4024  0.7506
   51MOL    C26 8126   5.112   1.631   6.015  0.6447 -0.0617 -0.8108
   51MOL    C27 8127   5.173   1.752   6.083 -0.7775 -0.5882 -0.4896
   51MOL    C28 8128   5.317   1.784   6.029 -0.2427  0.6177  0.2730
   51MOL    O29 8129   5.345   1.783   5.905  0.3141  0.2977 -0.6209
   51MOL    H30 8130   5.046   1.678   5.942 -3.0939  0.0738  2.4339
   51MOL    H31 8131   5.188   1.572   5.964  0.6398 -2.1058  1.4462
   51MOL    H32 8132   5.185   1.747   6.191  0.6596 -0.5191 -0.6370
   51MOL    H33 8133   5.107   1.831   6.047  1.5763  1.1261 -1.1502
   51MOL    C34 8134   5.425   1.806   6.128  0.6872  0.1242  0.1585
   51MOL    C35 8135   5.520   1.924   6.094 -0.3061 -0.7307 -0.4665
   51MOL    C36 8136   5.659   1.906   6.167  0.2291  0.1951 -0.1586
   51MOL    O37 8137   5.704   1.793   6.186 -1.0915  0.3349 -0.1083
   51MOL    H38 8138   5.467   1.706   6.123 -1.8653 -0.9925  0.2779
   51MOL    H39 8139   5.370   1.817   6.221 -2.3478 -2.9178 -1.1611
   51MOL    H40 8140   5.483   2.026   6.104  1.2782 -0.3990  2.3353
   51MOL    H41 8141   5.540   1.920   5.986 -0.0794  2.1324 -0.5478
   51MOL    C42 8142   5.734   2.032   6.213 -0.8301 -0.2407 -0.1412
   51MOL    C43 8143   5.866   2.000   6.291  0.3823  0.3355  0.3665
   51MOL    C44 8144   5.978   1.943   6.199 -0.4986  0.7072 -0.2356
   51MOL    O45 8145   6.012   1.986   6.087 -0.0486  0.3081 -0.5783
   51MOL    H46 8146   5.672   2.082   6.288 -0.0710 -0.6143  0.7484
   51MOL    H47 8147   5.757   2.087   6.122  0.0707 -2.3410 -1.2011
   51MOL    H48 8148   5.853   1.931   6.374 -0.8395 -0.8697 -0.7795
   51MOL    H49 8149   5.909   2.091   6.332  2.3075 -0.6752  0.6301
   51MOL    C50 8150   6.049   1.826   6.261 -0.6583  0.3014  0.3418
   51MOL    C51 8151   6.175   1.774   6.176 -0.5735 -0.5861 -0.2133
   51MOL    C52 8152   6.151   1.640   6.116  0.1428  0.7862  0.0880
   51MOL    O53 8153   6.042   1.584   6.113  0.3884 -0.3459  0.6722
   51MOL    H54 8154   5.971   1.751   6.272  0.9564 -1.3249  1.0199
   51MOL    H55 8155   6.072   1.855   6.364 -2.2509  0.0062  0.7806
   51MOL    H56 8156   6.250   1.762   6.254 -0.0035  0.9143 -0.5211
   51MOL    H57 8157   6.209   1.844   6.099 -1.0660  1.0020  0.9806
   51MOL    C58 8158   6.267   1.580   6.036  0.4140 -0.5779 -0.4553
   51MOL    C59 8159   6.228   1.531   5.899 -0.2807  0.4130 -0.0561
   51MOL    C60 8160   6.217   1.637   5.791  0.1211 -0.0389 -0.4662
   51MOL    O61 8161   6.205   1.755   5.825 -0.1292 -0.1720 -0.1820
   51MOL    H62 8162   6.323   1.508   6.095 -2.3380 -1.9919  0.4941
   51MOL    H63 8163   6.329   1.668   6.017 -0.1584 -0.3826 -1.4175
   51MOL    H64 8164   6.133   1.478   5.900  0.5915 -1.3305 -2.9387
   51MOL    H65 8165   6.299   1.457   5.863 -2.3509 -1.5747 -0.1144
   51MOL    C66 8166   6.196   1.592   5.652  0.3937 -0.5769 -0.3914
   51MOL    C67 8167   6.188   1.719   5.560  0.1499  0.4889 -0.3094
   51MOL    C68 8168   6.132   1.677   5.427 -0.6903  0.9003  0.2308
   51MOL    O69 8169   6.114   1.561   5.390 -0.2166 -0.1933  0.5501
   51MOL    H70 8170   6.098   1.546   5.642 -0.3377  1.2275 -1.5862
   51MOL    H71 8171   6.283   1.528   5.632  0.2758 -1.0283  0.5064
   51MOL    H72 8172   6.276   1.783   5.554 -0.2758  0.9417 -2.0783
   51MOL    H73 8173   6.114   1.789   5.596  1.0498  0.5455  1.4532
   51MOL    C74 8174   6.098   1.790   5.325 -0.7020  0.2843 -0.5472
   51MOL    C75 8175   6.109   1.750   5.175  0.1248  0.3514 -0.2075
   51MOL    C76 8176   6.103   1.872   5.082 -0.7043 -0.2893 -0.1401
   51MOL    O77 8177   6.203   1.949   5.081  0.0541  0.1082  0.2262
   51MOL    H78 8178   6.165   1.875   5.331  0.1286 -0.3088 -1.3649
   51MOL    H79 8179   5.999   1.829   5.348 -0.3153  0.8311  0.2404
   51MOL    H80 8180   6.027   1.683   5.148  1.6629 -2.0977  1.0517
   51MOL    H81 8181   6.206   1.706   5.151  0.3957  0.7197  0.2142
   51MOL    C82 8182   5.978   1.896   4.994  0.6469  0.1611 -0.2021
   51MOL    C83 8183   5.993   2.024   4.905  0.1348 -0.0167 -0.0288
   51MOL    C84 8184   5.988   1.993   4.754  0.1728 -1.0502 -0.0754
   51MOL    O85 8185   5.946   1.894   4.714 -0.2261 -0.1664  0.0805
   51MOL    H86 8186   5.894   1.897   5.063 -0.7479  4.7544 -1.8151
   51MOL    H87 8187   5.961   1.806   4.934  0.8469  0.2474 -0.3885
   51MOL    H88 8188   6.074   2.090   4.935 -0.1739  0.6822 -0.6969
   51MOL    H89 8189   5.906   2.085   4.933  1.2642  1.3463  0.5964
   51MOL    C90 8190   6.043   2.115   4.666  0.6520 -0.3771 -0.4960
   51MOL    C91 8191   5.942   2.203   4.598  0.2956 -0.2329  0.6254
   51MOL    C92 8192   5.961   2.355   4.625 -0.1317  0.8871 -0.6401
   51MOL    O93 8193   6.005   2.396   4.734  0.0571 -0.0180 -0.4533
   51MOL    H94 8194   6.099   2.056   4.594  1.8509 -3.1540  2.5487
   51MOL    H95 8195   6.099   2.178   4.735 -1.4104 -0.5569  1.4040
   51MOL    H96 8196   5.842   2.173   4.632  0.6899 -1.5974  0.6140
   51MOL    H97 8197   5.925   2.184   4.492 -0.5469  2.4742  0.2395
   51MOL    C98 8198   5.929   2.453   4.512  0.8968  0.3835 -0.0121
   51MOL    C99 8199   5.940   2.605   4.552 -0.3352  0.4559 -0.1970
   51MOL   C100 8200   5.839   2.692   4.480 -0.1357  1.1803  0.1827
   51MOL   O101 8201   5.780   2.649   4.383  0.2989  0.4091  0.2114
   51MOL   H102 8202   5.823   2.430   4.504  0.9476 -0.3662  1.3283
   51MOL   H103 8203   5.982   2.421   4.422  1.6671  1.9067 -0.1254
   51MOL   H104 8204   6.039   2.646   4.537  0.4167 -1.2362  0.0137
   51MOL   H105 8205   5.914   2.616   4.658 -1.6157 -1.7415 -0.2450
   51MOL   C106 8206   5.821   2.826   4.547  0.2150 -1.0299  0.1737
   51MOL   C107 8207   5.854   2.950   4.465  0.4185 -0.1308  0.0381
   51MOL   C108 8208   6.003   2.993   4.480 -0.1693  0.1356 -0.1347
   51MOL   O109 8209   6.099   2.914   4.492  0.2860 -0.1392  0.6857
   51MOL   H110 8210   5.867   2.839   4.644 -2.2568 -0.4674  1.3231
   51MOL   H111 8211   5.716   2.838   4.575  0.4850 -4.7503  3.3046
   51MOL   H112 8212   5.790   3.027   4.508  2.2637  2.0902 -1.0328
   51MOL   H113 8213   5.841   2.932   4.358  1.0926  1.7970 -0.3893
   51MOL   C114 8214   6.025   3.144   4.486  0.1700  0.3074  0.0964
   51MOL   C115 8215   6.153   3.193   4.420 -0.3230  0.3009  0.2031
   51MOL   C116 8216   6.238   3.277   4.511 -0.1139  0.0548 -0.1855
   51MOL   O117 8217   6.255   3.253   4.634  0.6078 -0.3215  0.2804
   51MOL   H118 8218   6.009   3.174   4.590 -0.9849  0.6656 -0.1730
   51MOL   H119 8219   5.941   3.192   4.436  1.9392 -0.5511 -3.9380
   51MOL   H120 8220   6.130   3.258   4.336  2.5566 -0.5851 -1.3177
   51MOL   H121 8221   6.215   3.115   4.377 -1.8705  0.5406 -2.5823
   51MOL   C122 8222   6.316   3.395   4.447 -0.1767  0.0154 -0.1167
   51MOL   C123 8223   6.445   3.448   4.521  0.4974  0.5098  0.3249
   51MOL   C124 8224   6.445   3.592   4.556  0.3983  0.7866  0.0132
   51MOL   O125 8225   6.381   3.674   4.511  0.4312  0.3273 -0.0285
   51MOL   H126 8226   6.244   3.477   4.436 -0.8785 -0.7374 -1.1961
   51MOL   H127 8227   6.341   3.365   4.345  0.7622 -1.2338  0.4686
   51MOL   H128 8228   6.535   3.433   4.461  0.4121  1.2957 -0.0083
   51MOL   H129 8229   6.457   3.403   4.620  1.2557  0.2821  0.1352
   51MOL   C130 8230   6.551   3.634   4.656  0.1454 -0.7649  0.0729
   51MOL   C131 8231   6.675   3.692   4.579  0.0002 -0.4353 -0.1098
   51MOL   C132 8232   6.805   3.612   4.589  0.9885 -0.4583 -0.4907
   51MOL   O133 8233   6.798   3.495   4.624  0.6945  0.2256 -0.0781
   51MOL   H134 8234   6.586   3.544   4.705  0.9021  0.2759  1.4795
   51MOL   H135 8235   6.517   3.714   4.722  4.2395  0.0632  1.2841
   51MOL   H136 8236   6.693   3.793   4.614  1.0673 -0.5052 -0.4323
   51MOL   H137 8237   6.644   3.696   4.475  0.0471 -1.9741 -0.1895
   51MOL   C138 8238   6.948   3.671   4.549 -0.1381 -0.4172 -0.2000
   51MOL   C139 8239   7.063   3.569   4.541 -0.7464  0.2809 -0.4457
   51MOL   C140 8240   7.176   3.596   4.647  0.8871 -0.6797  0.0478
   51MOL   O141 8241   7.206   3.714   4.681 -0.0586 -0.1369  0.0711
   51MOL   H142 8242   6.974   3.763   4.602  0.1142  0.0607 -1.1446
   51MOL   H143 8243   6.941   3.711   4.448  0.5407 -0.5186 -0.2888
   51MOL   H144 8244   7.119   3.580   4.448 -2.4045 -0.4751 -1.5538
   51MOL   H145 8245   7.033   3.466   4.558  1.9964 -0.2276  1.6994
   51MOL   C146 8246   7.239   3.474   4.716  0.1736 -0.0691  0.2604
   51MOL   C147 8247   7.357   3.515   4.806  0.1003 -0.6176 -0.2588
   51MOL   C148 8248   7.314   3.528   4.958 -0.9173  0.8679  0.6154
   51MOL   O149 8249   7.286   3.632   5.007 -0.4969 -0.3208  0.1196
   51MOL   H150 8250   7.269   3.406   4.637 -0.7460  0.4745 -0.5653
   51MOL   H151 8251   7.155   3.432   4.771 -0.1373  0.5004  0.2178
   51MOL   H152 8252   7.390   3.617   4.788  2.2254 -1.1532  0.5254
   51MOL   H153 8253   7.442   3.447   4.798  1.9292  1.5742  0.0839
   51MOL   C154 8254   7.305   3.391   5.025 -0.2267 -0.0214  0.1247
   51MOL   C155 8255   7.254   3.401   5.169  0.0644  0.1847  0.4542
   51MOL   C156 8256   7.234   3.264   5.233  0.2425 -0.6067 -0.3915
   51MOL   O157 8257   7.234   3.160   5.170  0.0682 -0.0302  0.6671
   51MOL   H158 8258   7.400   3.339   5.025 -0.0551  0.2656  1.4241
   51MOL   H159 8259   7.244   3.322   4.967  0.0203  0.9987 -1.4023
   51MOL   H160 8260   7.161   3.456   5.182 -0.2597 -0.0131 -0.9800
   51MOL   H161 8261   7.325   3.456   5.231 -0.6583  1.8996 -0.2110
   51MOL   H162 8262   7.216   3.254   5.340 -0.7432  0.5505 -0.4387
   52MOL     C1 8263   4.212   6.543   4.634  0.7533 -0.0453  0.2575
   52MOL     C2 8264   4.101   6.649   4.601 -0.3888 -0.0451 -0.7982
   52MOL     C3 8265   3.978   6.596   4.523  0.0772  0.1098  0.0371
   52MOL     O4 8266   3.988   6.491   4.461  0.6320  0.1355 -0.1167
   52MOL     H5 8267   4.178   6.444   4.602  0.7018  0.5619 -1.6481
   52MOL     H6 8268   4.303   6.578   4.584 -0.3463  0.7896 -1.1815
   52MOL     H7 8269   4.148   6.737   4.556  0.7654 -0.5640 -0.6133
   52MOL     H8 8270   4.063   6.689   4.695  0.5109 -2.9035  0.8189
   52MOL     H9 8271   4.230   6.540   4.742  2.0746 -1.7842  0.0151
   52MOL    C10 8272   3.852   6.677   4.525 -0.5467 -0.3765  0.8152
   52MOL    C11 8273   3.757   6.624   4.419  0.3295  0.2915  0.1383
   52MOL    C12 8274   3.637   6.719   4.397 -0.0374 -0.6596 -0.1540
   52MOL    O13 8275   3.626   6.820   4.468 -0.5249 -0.0554  0.3307
   52MOL    H14 8276   3.882   6.781   4.520 -0.4711 -0.4989 -2.3515
   52MOL    H15 8277   3.803   6.659   4.621 -1.5296 -0.3140  0.3358
   52MOL    H16 8278   3.720   6.531   4.461 -0.1461  1.2046  1.7759
   52MOL    H17 8279   3.806   6.602   4.324 -0.7356 -1.0030 -0.1218
   52MOL    C18 8280   3.548   6.694   4.274  0.6095 -0.2103  0.5288
   52MOL    C19 8281   3.423   6.598   4.291 -0.4557 -0.2112  0.3461
   52MOL    C20 8282   3.388   6.529   4.155 -0.1267 -0.5480  0.0125
   52MOL    O21 8283   3.438   6.561   4.047  0.3117  0.4815  0.0021
   52MOL    H22 8284   3.614   6.652   4.198  2.4911  0.9016  1.5188
   52MOL    H23 8285   3.507   6.790   4.241 -0.6583 -0.4068  1.4865
   52MOL    H24 8286   3.333   6.645   4.332  0.6202  2.9657 -0.8204
   52MOL    H25 8287   3.464   6.522   4.358  2.2350 -0.0514 -1.0519
   52MOL    C26 8288   3.277   6.422   4.170 -0.1231  0.2530 -0.9072
   52MOL    C27 8289   3.341   6.293   4.227 -0.0991  0.0655 -0.4129
   52MOL    C28 8290   3.285   6.244   4.353 -0.1331  0.4218 -0.4035
   52MOL    O29 8291   3.174   6.282   4.398  0.1216 -0.2555  0.2838
   52MOL    H30 8292   3.249   6.403   4.066 -0.2376  0.4711 -0.9171
   52MOL    H31 8293   3.181   6.457   4.208 -0.3430 -0.8783 -0.4006
   52MOL    H32 8294   3.449   6.300   4.214 -0.0721 -2.1102 -1.6481
   52MOL    H33 8295   3.308   6.211   4.163  3.8069 -3.0725  1.3720
   52MOL    C34 8296   3.374   6.157   4.440  0.3081 -0.6782 -0.4714
   52MOL    C35 8297   3.364   6.172   4.598 -0.0930  0.4736 -0.5155
   52MOL    C36 8298   3.449   6.294   4.654 -0.1392 -0.9713 -0.5018
   52MOL    O37 8299   3.451   6.410   4.610 -0.1165 -0.1919  0.1085
   52MOL    H38 8300   3.477   6.170   4.408  0.4342 -2.8781 -1.0416
   52MOL    H39 8301   3.351   6.056   4.406  2.3936 -1.2091 -0.3857
   52MOL    H40 8302   3.400   6.082   4.648  0.5719  0.2446 -1.4002
   52MOL    H41 8303   3.261   6.193   4.628 -0.4641 -1.8898 -0.0594
   52MOL    C42 8304   3.537   6.266   4.773  0.4138  0.1227 -0.2092
   52MOL    C43 8305   3.678   6.331   4.757  0.1171 -0.3102  0.0153
   52MOL    C44 8306   3.785   6.244   4.822  0.4936  0.5185  0.0170
   52MOL    O45 8307   3.746   6.162   4.905  0.1849  0.2135  0.5893
   52MOL    H46 8308   3.523   6.161   4.799 -0.8185 -0.0144 -1.3461
   52MOL    H47 8309   3.490   6.313   4.859 -1.7138 -2.7001  0.2426
   52MOL    H48 8310   3.680   6.434   4.794 -0.7591 -0.4970  0.6047
   52MOL    H49 8311   3.717   6.358   4.659 -0.6668 -0.8353 -0.4440
   52MOL    C50 8312   3.927   6.260   4.775  0.5678 -0.2616 -0.3380
   52MOL    C51 8313   4.008   6.311   4.889  0.0353 -0.6092  0.2897
   52MOL    C52 8314   3.999   6.458   4.921  0.5104 -0.1712 -0.9206
   52MOL    O53 8315   3.933   6.533   4.848 -0.0731  0.4251  0.4241
   52MOL    H54 8316   3.937   6.328   4.690 -1.2720  1.2014  0.5746
   52MOL    H55 8317   3.957   6.159   4.748 -1.5867 -1.3012  1.0287
   52MOL    H56 8318   4.113   6.303   4.861 -0.2674 -0.8176 -0.8159
   52MOL    H57 8319   3.981   6.258   4.981 -0.0795  0.2410  0.7493
   52MOL    C58 8320   4.069   6.517   5.046  0.0823 -0.1019 -0.1542
   52MOL    C59 8321   4.020   6.662   5.087 -0.1049  0.2120  0.2885
   52MOL    C60 8322   4.091   6.721   5.209 -0.0461 -0.5423  0.1846
   52MOL    O61 8323   4.187   6.661   5.253  0.1974 -0.0740  0.3221
   52MOL    H62 8324   4.177   6.508   5.031  0.5770 -1.3181  3.5055
   52MOL    H63 8325   4.065   6.440   5.124 -0.0474 -0.5142 -0.5631
   52MOL    H64 8326   3.914   6.664   5.112 -1.0469 -3.1436 -2.8760
   52MOL    H65 8327   4.036   6.734   5.006  3.5155 -0.4540  0.3143
   52MOL    C66 8328   4.031   6.845   5.278  0.1226  0.3597  0.0320
   52MOL    C67 8329   4.114   6.900   5.392  0.9560  0.3641  0.5725
   52MOL    C68 8330   4.045   6.890   5.536 -0.3034 -0.0699  0.0087
   52MOL    O69 8331   3.955   6.799   5.551  0.7279  0.1127 -0.4074
   52MOL    H70 8332   3.929   6.815   5.300  0.7049 -0.2039  2.1290
   52MOL    H71 8333   4.021   6.925   5.205 -1.4070  0.1293 -0.0314
   52MOL    H72 8334   4.141   7.003   5.367  0.0609  0.6262  0.6755
   52MOL    H73 8335   4.209   6.846   5.392  1.1116  0.6281  1.0970
   52MOL    C74 8336   4.088   6.990   5.644 -0.3688 -0.2374  0.7191
   52MOL    C75 8337   3.975   7.015   5.745  0.1769 -0.2893  0.3521
   52MOL    C76 8338   3.964   6.909   5.854  0.5208  0.0384 -0.2335
   52MOL    O77 8339   4.048   6.833   5.899 -0.3338  0.6543  0.1222
   52MOL    H78 8340   4.135   7.077   5.600 -0.9239 -0.6020 -0.6043
   52MOL    H79 8341   4.162   6.932   5.699 -0.9730 -0.8781  0.8657
   52MOL    H80 8342   3.874   7.030   5.707  0.2022 -2.1442 -0.4590
   52MOL    H81 8343   3.988   7.110   5.798 -2.0358 -0.1871  0.7432
   52MOL    C82 8344   3.828   6.889   5.915  0.4077  0.5390 -0.3172
   52MOL    C83 8345   3.756   6.774   5.850 -0.2665 -1.2979 -0.4272
   52MOL    C84 8346   3.607   6.798   5.835  0.3766 -0.4758 -0.2140
   52MOL    O85 8347   3.568   6.911   5.793  0.0849 -0.8642 -0.9684
   52MOL    H86 8348   3.770   6.981   5.908  0.5941  0.7386  0.6769
   52MOL    H87 8349   3.839   6.878   6.023 -0.5905  0.0008 -0.2697
   52MOL    H88 8350   3.777   6.685   5.909  0.9992 -0.5224  0.3019
   52MOL    H89 8351   3.787   6.771   5.746 -1.6831  2.1646 -1.0281
   52MOL    C90 8352   3.528   6.667   5.846 -0.2482  0.3989 -0.0813
   52MOL    C91 8353   3.381   6.707   5.894  0.5927  0.2629 -0.3344
   52MOL    C92 8354   3.284   6.619   5.820  0.9094  0.7298 -0.2933
   52MOL    O93 8355   3.307   6.576   5.705 -0.4655 -0.2269  0.5084
   52MOL    H94 8356   3.571   6.599   5.919 -1.9002 -1.8214 -1.1154
   52MOL    H95 8357   3.523   6.621   5.747  2.8843  2.0622 -1.0858
   52MOL    H96 8358   3.363   6.807   5.856 -0.3176  1.1459  2.2413
   52MOL    H97 8359   3.386   6.711   6.003 -1.0088 -0.0743 -0.2361
   52MOL    C98 8360   3.145   6.593   5.890  0.4329  0.0407  0.1641
   52MOL    C99 8361   3.078   6.468   5.830  0.1610  0.1599  0.2358
   52MOL   C100 8362   2.972   6.411   5.919  0.1811  0.6135  0.1870
   52MOL   O101 8363   2.923   6.483   6.009 -0.0922  0.2256  0.2852
   52MOL   H102 8364   3.085   6.683   5.874  1.5230  0.6927 -0.3980
   52MOL   H103 8365   3.163   6.572   5.995  1.0194  0.0635  0.0741
   52MOL   H104 8366   3.157   6.393   5.832 -0.2994 -0.4301 -2.0610
   52MOL   H105 8367   3.044   6.476   5.727  0.9633 -0.2207 -0.0681
   52MOL   C106 8368   2.914   6.280   5.890 -0.4490 -0.7467  0.4464
   52MOL   C107 8369   2.768   6.292   5.829  0.2514  0.1229 -0.5849
   52MOL   C108 8370   2.657   6.263   5.930  0.0538 -0.0934  0.1138
   52MOL   O109 8371   2.674   6.205   6.036  1.2149 -0.0264  0.1656
   52MOL   H110 8372   2.926   6.218   5.979  1.3557  0.1151  0.8028
   52MOL   H111 8373   2.976   6.226   5.819 -0.4956  0.9746 -0.9475
   52MOL   H112 8374   2.758   6.226   5.743 -1.2619 -0.8343  0.2987
   52MOL   H113 8375   2.765   6.395   5.796  2.6210  0.5340  0.3450
   52MOL   C114 8376   2.523   6.309   5.879 -0.0157  0.5212  0.2600
   52MOL   C115 8377   2.434   6.369   5.996 -0.2966 -0.3128  0.1193
   52MOL   C116 8378   2.291   6.394   5.947  0.9277  0.2643  0.3878
   52MOL   O117 8379   2.248   6.330   5.854 -0.4296 -0.3018  0.3609
   52MOL   H118 8380   2.489   6.218   5.831  1.4664 -1.2053  2.3663
   52MOL   H119 8381   2.532   6.380   5.797 -0.7233  2.1728  1.5681
   52MOL   H120 8382   2.472   6.467   6.023  0.7753 -0.9462  0.9486
   52MOL   H121 8383   2.437   6.310   6.088  0.6516  0.4922  0.6086
   52MOL   C122 8384   2.205   6.491   6.027 -0.5341  0.4088 -0.1332
   52MOL   C123 8385   2.060   6.446   6.021 -0.0211  0.3948  0.1885
   52MOL   C124 8386   1.961   6.549   6.076 -0.1855 -0.0459  0.3359
   52MOL   O125 8387   1.997   6.668   6.083 -0.0863  0.0661  0.4280
   52MOL   H126 8388   2.222   6.592   5.990  0.2670  0.3470  0.0470
   52MOL   H127 8389   2.245   6.504   6.128  2.5872 -0.2461 -1.2435
   52MOL   H128 8390   2.049   6.361   6.089 -0.4747 -0.3011 -0.7447
   52MOL   H129 8391   2.028   6.414   5.922  1.7917  1.8228 -0.8799
   52MOL   C130 8392   1.823   6.496   6.108 -0.0604 -0.3731 -0.2479
   52MOL   C131 8393   1.733   6.601   6.177  0.1735  0.0960  0.5104
   52MOL   C132 8394   1.663   6.704   6.084 -0.1303  0.3593  0.0267
   52MOL   O133 8395   1.626   6.671   5.969  0.3531  0.0416  0.2599
   52MOL   H134 8396   1.831   6.398   6.156 -1.0130 -1.4873 -2.2758
   52MOL   H135 8397   1.783   6.468   6.010 -1.6636  0.2740  0.2136
   52MOL   H136 8398   1.792   6.657   6.249  0.7980 -2.7650  2.3196
   52MOL   H137 8399   1.645   6.556   6.221 -0.6971  0.1472 -1.1213
   52MOL   C138 8400   1.633   6.845   6.132 -0.0540  0.2007  0.6994
   52MOL   C139 8401   1.614   6.960   6.023 -0.8238  0.1536 -0.2231
   52MOL   C140 8402   1.468   7.003   6.006 -0.1439 -0.2560 -0.2677
   52MOL   O141 8403   1.376   6.924   5.986  0.0148 -0.4373  0.2346
   52MOL   H142 8404   1.715   6.870   6.200 -1.0735 -0.4114  2.1795
   52MOL   H143 8405   1.542   6.827   6.189  1.4709 -2.4198  2.3837
   52MOL   H144 8406   1.640   6.923   5.924 -2.4199 -1.9164  0.0742
   52MOL   H145 8407   1.685   7.037   6.053 -0.6221  1.3776 -3.5525
   52MOL   C146 8408   1.438   7.154   6.003 -0.4673  0.2513  0.1085
   52MOL   C147 8409   1.438   7.218   6.143  0.5985  0.8433  0.4752
   52MOL   C148 8410   1.298   7.270   6.180 -0.0270 -0.5771 -1.1903
   52MOL   O149 8411   1.201   7.262   6.107  0.2136 -0.1869  0.3419
   52MOL   H150 8412   1.343   7.160   5.949  0.5520 -0.1875 -1.7785
   52MOL   H151 8413   1.506   7.194   5.927  0.3249  0.2234  0.8035
   52MOL   H152 8414   1.503   7.305   6.150 -0.1982  1.4926 -0.0825
   52MOL   H153 8415   1.463   7.149   6.224  0.1847  2.0183  1.6230
   52MOL   C154 8416   1.283   7.322   6.326  0.3128  0.1515  0.5280
   52MOL   C155 8417   1.341   7.458   6.331 -0.3314 -0.8041 -1.3015
   52MOL   C156 8418   1.238   7.568   6.369  0.1852 -0.3740  0.3670
   52MOL   O157 8419   1.151   7.556   6.458  0.3563  0.2649 -0.6439
   52MOL   H158 8420   1.327   7.256   6.401  1.4579  1.9875  1.5330
   52MOL   H159 8421   1.174   7.325   6.336  0.1241 -0.3504 -1.2538
   52MOL   H160 8422   1.396   7.479   6.240  0.1814 -0.6813 -0.9620
   52MOL   H161 8423   1.419   7.442   6.405  0.3796  0.5164 -1.7655
   52MOL   H162 8424   1.268   7.660   6.319 -0.3168  0.2707  1.2330
   53MOL     C1 8425   3.445   5.057   7.523  0.1868  0.2012 -0.3231
   53MOL     C2 8426   3.347   5.081   7.411 -0.2668 -0.4306  0.4846
   53MOL     C3 8427   3.244   4.973   7.404 -0.3828  0.7235  0.2481
   53MOL     O4 8428   3.147   4.977   7.473  0.5806 -0.0707 -0.5877
   53MOL     H5 8429   3.543   5.088   7.488  0.3697  2.6632  2.2393
   53MOL     H6 8430   3.418   5.120   7.607  1.6212  0.5924 -0.1503
   53MOL     H7 8431   3.409   5.090   7.322 -0.3551  3.1233  0.7037
   53MOL     H8 8432   3.300   5.177   7.433 -2.5514 -1.7645  1.6030
   53MOL     H9 8433   3.460   4.955   7.558  0.2917  1.3533  3.1314
   53MOL    C10 8434   3.265   4.859   7.308  0.1112 -0.8183  1.1986
   53MOL    C11 8435   3.146   4.862   7.214 -0.2426 -0.3962  0.0976
   53MOL    C12 8436   3.037   4.761   7.257  0.6897  1.2573  0.7884
   53MOL    O13 8437   3.067   4.656   7.318 -0.0282  0.4703 -0.1342
   53MOL    H14 8438   3.269   4.773   7.375 -0.5446 -2.0680 -0.3255
   53MOL    H15 8439   3.351   4.885   7.248 -0.6123 -0.1189  0.4573
   53MOL    H16 8440   3.172   4.856   7.108 -0.1065 -0.2349  0.1221
   53MOL    H17 8441   3.107   4.963   7.216 -0.9917 -0.6978  0.6748
   53MOL    C18 8442   2.896   4.782   7.214  0.7264  0.4476  0.4730
   53MOL    C19 8443   2.805   4.778   7.339  0.8785 -0.0378 -0.6823
   53MOL    C20 8444   2.725   4.905   7.360  0.1219  0.4933 -0.1363
   53MOL    O21 8445   2.653   4.951   7.277 -0.0014 -0.0713  0.3540
   53MOL    H22 8446   2.874   4.722   7.126  1.6801  2.1812 -0.9875
   53MOL    H23 8447   2.880   4.882   7.173 -0.4626 -0.5577 -1.6255
   53MOL    H24 8448   2.866   4.762   7.428  1.2930 -0.8299 -1.1163
   53MOL    H25 8449   2.731   4.699   7.327 -0.5036  1.3173 -1.2506
   53MOL    C26 8450   2.721   4.974   7.501 -0.2188  0.4679 -1.0197
   53MOL    C27 8451   2.830   5.082   7.520 -0.0213  0.4982 -0.8578
   53MOL    C28 8452   2.787   5.216   7.574 -0.0569 -0.6386  0.8169
   53MOL    O29 8453   2.696   5.283   7.521 -0.0340 -0.0485 -0.1011
   53MOL    H30 8454   2.735   4.889   7.568 -0.9789  0.7446 -0.5009
   53MOL    H31 8455   2.621   5.008   7.528  0.5968  0.1925  2.6509
   53MOL    H32 8456   2.873   5.109   7.424 -0.3655 -0.3426 -1.2590
   53MOL    H33 8457   2.918   5.035   7.564  0.8576  1.3318 -1.7092
   53MOL    C34 8458   2.866   5.256   7.697 -0.7085 -0.0509 -0.0310
   53MOL    C35 8459   2.806   5.380   7.760 -0.0495 -0.9565  0.4426
   53MOL    C36 8460   2.810   5.379   0.054 -0.0481  0.2384 -0.2393
   53MOL    O37 8461   2.827   5.268   0.113 -0.7143  0.1771  0.0537
   53MOL    H38 8462   2.971   5.273   7.673 -1.0626  1.1062 -0.7959
   53MOL    H39 8463   2.867   5.168   7.762 -2.1020  0.0652  0.1739
   53MOL    H40 8464   2.698   5.372   7.748 -0.0694  0.8522 -0.7439
   53MOL    H41 8465   2.835   5.478   7.722 -0.6065 -1.0642 -0.2792
   53MOL    C42 8466   2.791   5.510   0.140 -0.4246  0.3459 -0.4798
   53MOL    C43 8467   2.709   5.499   0.269  0.3553  0.4682 -0.5282
   53MOL    C44 8468   2.800   5.484   0.388  0.5904 -0.0052 -0.0464
   53MOL    O45 8469   2.916   5.526   0.388  0.2904 -0.1713 -0.0278
   53MOL    H46 8470   2.736   5.587   0.086 -2.5336 -0.7547  0.0198
   53MOL    H47 8471   2.887   5.561   0.142  0.0094 -0.3267 -2.8175
   53MOL    H48 8472   2.641   5.414   0.259  2.4978 -1.2273 -1.3448
   53MOL    H49 8473   2.648   5.588   0.270 -1.4492 -0.7096 -2.4258
   53MOL    C50 8474   2.752   5.417   0.516  0.1165 -0.0761  0.1403
   53MOL    C51 8475   2.870   5.347   0.593 -0.5283 -0.0892 -0.4119
   53MOL    C52 8476   2.835   5.219   0.669  0.6303  0.1320 -0.0275
   53MOL    O53 8477   2.718   5.181   0.694 -0.0856 -0.2413  0.6639
   53MOL    H54 8478   2.683   5.338   0.483  1.9445 -1.7713  0.3029
   53MOL    H55 8479   2.689   5.492   0.565 -1.1415 -0.8010 -0.3290
   53MOL    H56 8480   2.919   5.411   0.667 -0.3550  0.4178 -0.9535
   53MOL    H57 8481   2.960   5.323   0.536  0.4993  0.3551  0.9853
   53MOL    C58 8482   2.949   5.132   0.726 -0.3225  0.1037 -0.7447
   53MOL    C59 8483   2.937   5.140   0.882  0.5751 -0.3293  0.1025
   53MOL    C60 8484   2.966   5.279   0.931  0.1395  0.1690 -0.2693
   53MOL    O61 8485   3.022   5.364   0.864 -0.0068 -0.1760  0.6525
   53MOL    H62 8486   3.050   5.151   0.689 -0.3238  1.1717 -0.2327
   53MOL    H63 8487   2.923   5.032   0.692  1.5912 -0.9108  0.6571
   53MOL    H64 8488   3.020   5.082   0.923 -0.1774 -0.9136  0.8262
   53MOL    H65 8489   2.846   5.099   0.928  0.0815 -0.0032 -0.5836
   53MOL    C66 8490   2.955   5.295   1.082  0.1096 -0.1099 -0.0939
   53MOL    C67 8491   3.087   5.320   1.153 -0.0466 -0.0546  0.4141
   53MOL    C68 8492   3.196   5.210   1.147  0.6195 -0.1384  0.7953
   53MOL    O69 8493   3.157   5.091   1.130 -0.0802  0.1804 -0.3450
   53MOL    H70 8494   2.899   5.208   1.117 -0.7789 -0.3606 -2.0800
   53MOL    H71 8495   2.894   5.384   1.096  1.5928  0.9225 -0.1072
   53MOL    H72 8496   3.067   5.340   1.258  0.5400  1.3967  0.2550
   53MOL    H73 8497   3.132   5.412   1.117 -0.7569  0.0864 -0.1126
   53MOL    C74 8498   3.347   5.253   1.147  0.3422  0.4084  0.3713
   53MOL    C75 8499   3.430   5.134   1.110  0.0749  0.4560  0.2495
   53MOL    C76 8500   3.455   5.038   1.227  0.2371  0.3753  0.0059
   53MOL    O77 8501   3.457   5.083   1.343  0.2314 -0.6109 -0.5403
   53MOL    H78 8502   3.373   5.297   1.243  4.1815  1.2471 -0.9556
   53MOL    H79 8503   3.349   5.320   1.061 -1.6434 -2.0164 -1.6585
   53MOL    H80 8504   3.525   5.157   1.063  0.0012 -0.4205 -0.3414
   53MOL    H81 8505   3.382   5.079   1.029  1.4760 -1.1187  0.4434
   53MOL    C82 8506   3.478   4.891   1.196 -0.4160  0.0783 -0.3626
   53MOL    C83 8507   3.604   4.850   1.259 -0.6646 -0.4194  0.6561
   53MOL    C84 8508   3.602   4.797   1.408  0.5625 -0.8711 -0.6440
   53MOL    O85 8509   3.494   4.771   1.461  0.6116  0.2107  0.1263
   53MOL    H86 8510   3.481   4.870   1.090  1.7477  0.5921 -0.4204
   53MOL    H87 8511   3.396   4.835   1.241  0.0587  0.8550  1.5450
   53MOL    H88 8512   3.675   4.932   1.253 -1.5122  0.3805  1.3391
   53MOL    H89 8513   3.645   4.768   1.199  1.7432 -0.2321  2.0215
   53MOL    C90 8514   3.733   4.799   1.487  0.2691 -0.3339 -0.1416
   53MOL    C91 8515   3.723   4.759   1.639  0.6528 -0.0454 -0.1218
   53MOL    C92 8516   3.791   4.855   1.736  0.4004  0.2871 -0.3406
   53MOL    O93 8517   3.889   4.920   1.691 -0.7121  0.2372  0.4493
   53MOL    H94 8518   3.784   4.896   1.484 -0.7899  0.2787  1.1351
   53MOL    H95 8519   3.799   4.725   1.442  2.0259  0.4162  1.1416
   53MOL    H96 8520   3.776   4.664   1.648  0.8102  0.2133  2.0204
   53MOL    H97 8521   3.622   4.740   1.675  1.5181  1.6800  3.5206
   53MOL    C98 8522   3.745   4.849   1.877 -0.0218  1.0723 -0.7934
   53MOL    C99 8523   3.819   4.964   1.960  0.5850  0.3349  0.4396
   53MOL   C100 8524   3.732   5.071   2.014  0.7276  0.5429 -0.3489
   53MOL   O101 8525   3.642   5.037   2.093  0.8030 -0.1753  0.2606
   53MOL   H102 8526   3.780   4.752   1.911  3.0609  2.4103  0.0833
   53MOL   H103 8527   3.640   4.852   1.905  0.6047 -3.0895  2.5421
   53MOL   H104 8528   3.902   5.017   1.914  3.1405 -1.3074  2.9907
   53MOL   H105 8529   3.858   4.910   2.046 -2.8404 -2.4811  0.3450
   53MOL   C106 8530   3.765   5.217   1.985  0.4021 -0.2455  0.2307
   53MOL   C107 8531   3.652   5.310   2.021 -0.0442  0.1143  0.2450
   53MOL   C108 8532   3.660   5.414   2.126  0.3023 -0.2732 -0.2649
   53MOL   O109 8533   3.772   5.461   2.164  0.0747  0.2732 -0.1749
   53MOL   H110 8534   3.790   5.221   1.879 -1.0256  1.5973 -0.0530
   53MOL   H111 8535   3.856   5.237   2.042  0.8004  1.8503 -1.0839
   53MOL   H112 8536   3.572   5.242   2.051  1.1687 -0.7664  1.5354
   53MOL   H113 8537   3.610   5.364   1.936 -0.1195 -0.5397 -0.1353
   53MOL   C114 8538   3.528   5.478   2.160  0.3941 -0.1134  0.5073
   53MOL   C115 8539   3.526   5.528   2.305 -0.2756  0.0298 -0.3302
   53MOL   C116 8540   3.488   5.418   2.398 -0.4121 -0.0866  0.0343
   53MOL   O117 8541   3.431   5.315   2.363 -0.6830 -0.2516 -0.1301
   53MOL   H118 8542   3.452   5.404   2.139 -2.2538  2.7802 -0.4820
   53MOL   H119 8543   3.513   5.566   2.098  0.7797 -0.0596  0.4842
   53MOL   H120 8544   3.444   5.596   2.327 -0.7117 -0.1109 -1.4934
   53MOL   H121 8545   3.620   5.572   2.338  0.5878 -0.9354 -1.4271
   53MOL   C122 8546   3.506   5.444   2.555 -0.1658 -0.5139  0.9477
   53MOL   C123 8547   3.575   5.334   2.633 -0.4471  0.0218  0.7884
   53MOL   C124 8548   3.470   5.259   2.717  0.0077  0.6786  0.7841
   53MOL   O125 8549   3.381   5.188   2.674  0.1719 -0.0571  0.0386
   53MOL   H126 8550   3.401   5.455   2.585  0.2740  0.3077  2.2136
   53MOL   H127 8551   3.545   5.542   2.581 -1.0142 -0.1455  0.8529
   53MOL   H128 8552   3.653   5.367   2.701 -0.1158  2.4385 -0.6949
   53MOL   H129 8553   3.621   5.266   2.561 -2.8846 -1.0356  0.1508
   53MOL   C130 8554   3.460   5.288   2.869  0.4587 -0.1614  0.7723
   53MOL   C131 8555   3.501   5.162   2.935 -0.3442  0.1706 -0.4967
   53MOL   C132 8556   3.652   5.137   2.941 -0.0869  0.3445 -0.4435
   53MOL   O133 8557   3.728   5.230   2.928 -0.4447  0.3589  0.2340
   53MOL   H134 8558   3.358   5.323   2.884 -0.9571 -2.1512 -3.4028
   53MOL   H135 8559   3.524   5.369   2.902  2.0173 -0.5680 -1.1610
   53MOL   H136 8560   3.461   5.072   2.887  1.5453 -0.9880  0.0370
   53MOL   H137 8561   3.468   5.158   3.039  1.9401 -0.6916  0.2151
   53MOL   C138 8562   3.708   4.998   2.958  0.5191 -0.2641  0.1205
   53MOL   C139 8563   3.858   4.999   2.987 -0.2345  0.2202  0.5692
   53MOL   C140 8564   3.907   4.860   3.036 -0.4294  0.1853 -1.2115
   53MOL   O141 8565   3.832   4.757   3.034 -0.0914 -0.0726 -0.1436
   53MOL   H142 8566   3.690   4.937   2.870 -0.7288  1.3570 -0.7642
   53MOL   H143 8567   3.654   4.956   3.042 -0.8434  0.8963 -0.1648
   53MOL   H144 8568   3.876   5.075   3.063 -0.8349  0.7949  0.1408
   53MOL   H145 8569   3.913   5.030   2.898  0.2320 -0.1299  0.7305
   53MOL   C146 8570   4.053   4.850   3.091 -0.8304 -0.8523  0.2326
   53MOL   C147 8571   4.072   4.907   3.233  0.3610  0.0627 -0.2304
   53MOL   C148 8572   4.169   5.016   3.242 -0.0289 -0.1553 -0.2589
   53MOL   O149 8573   4.218   5.063   3.141 -0.1312  0.1767  0.1067
   53MOL   H150 8574   4.124   4.893   3.020 -1.1875 -3.6314 -1.9161
   53MOL   H151 8575   4.078   4.744   3.094  0.7470 -0.4521  2.0093
   53MOL   H152 8576   4.111   4.825   3.294  0.0987 -0.7031 -1.0657
   53MOL   H153 8577   3.980   4.943   3.279  1.1489 -0.0999  1.4986
   53MOL   C154 8578   4.204   5.073   3.379  0.1186  0.3398  0.3554
   53MOL   C155 8579   4.311   5.182   3.377  0.4350 -0.0431 -0.3623
   53MOL   C156 8580   4.250   5.325   3.381 -0.4212  0.1130 -0.1743
   53MOL   O157 8581   4.160   5.358   3.457 -0.4082 -0.5207 -0.2128
   53MOL   H158 8582   4.223   4.991   3.449 -0.8560  0.0627  0.3098
   53MOL   H159 8583   4.114   5.122   3.416  0.7242 -0.4382  2.9382
   53MOL   H160 8584   4.368   5.174   3.285  0.5067  1.5858 -0.4646
   53MOL   H161 8585   4.371   5.183   3.469 -0.3274 -0.3498  0.1419
   53MOL   H162 8586   4.312   5.395   3.325  1.2651 -1.6041 -0.5098
   54MOL     C1 8587   4.718   6.851   7.756  0.3181 -0.1434  0.4458
   54MOL     C2 8588   4.647   6.732   7.688  1.0665  0.0849  0.0535
   54MOL     C3 8589   4.694   6.692   7.553 -0.2626  0.9782  0.4458
   54MOL     O4 8590   4.669   6.764   7.456  0.2492 -0.4598  0.5923
   54MOL     H5 8591   4.804   6.803   7.803 -0.2934 -0.1102  1.6312
   54MOL     H6 8592   4.737   6.931   7.685  0.6077 -1.5150 -1.0610
   54MOL     H7 8593   4.541   6.757   7.679  0.8938 -0.5957  0.1576
   54MOL     H8 8594   4.658   6.642   7.748  0.4720  0.6136  0.9772
   54MOL     H9 8595   4.648   6.886   7.832  1.0507  1.7545  0.2574
   54MOL    C10 8596   4.789   6.579   7.538  0.1364 -0.1299 -0.4290
   54MOL    C11 8597   4.776   6.496   7.407 -0.1020  0.3364 -0.9814
   54MOL    C12 8598   4.645   6.416   7.406  0.4551  0.4051 -0.1413
   54MOL    O13 8599   4.598   6.351   7.500  0.0781  0.0633 -0.5764
   54MOL    H14 8600   4.772   6.512   7.622 -2.4249  1.6901  0.5315
   54MOL    H15 8601   4.893   6.604   7.559 -0.0444  1.7111 -1.6594
   54MOL    H16 8602   4.850   6.416   7.414 -1.5341 -0.9404  0.1330
   54MOL    H17 8603   4.798   6.554   7.318 -0.0533 -1.0500 -1.8978
   54MOL    C18 8604   4.583   6.413   7.263  0.0569  0.0834  0.2077
   54MOL    C19 8605   4.456   6.332   7.253  0.4915 -0.6916 -0.2673
   54MOL    C20 8606   4.429   6.271   7.113  0.0922  0.3202  0.4828
   54MOL    O21 8607   4.505   6.295   7.018  0.2502  0.0339 -0.2370
   54MOL    H22 8608   4.663   6.368   7.204  0.8087  0.6442  0.7858
   54MOL    H23 8609   4.581   6.516   7.227  0.1981  0.5697  1.5635
   54MOL    H24 8610   4.381   6.403   7.289  1.2556 -0.0325  0.0531
   54MOL    H25 8611   4.457   6.252   7.327 -1.0648 -0.1216  0.3848
   54MOL    C26 8612   4.302   6.184   7.094 -0.6195  0.5994 -0.9163
   54MOL    C27 8613   4.239   6.189   6.949 -0.3329  0.6178 -0.9686
   54MOL    C28 8614   4.092   6.207   6.949 -0.1090  0.2935  0.4652
   54MOL    O29 8615   4.014   6.112   6.964 -0.1151 -0.2534  0.4910
   54MOL    H30 8616   4.224   6.214   7.163  1.0565  0.9825  0.8740
   54MOL    H31 8617   4.331   6.084   7.125 -0.4191  1.3292  1.3312
   54MOL    H32 8618   4.264   6.091   6.909 -0.0676  0.0507  0.5450
   54MOL    H33 8619   4.292   6.260   6.886 -0.6133  2.3655  0.7425
   54MOL    C34 8620   4.040   6.352   6.943 -0.1387  0.2843  0.3380
   54MOL    C35 8621   3.987   6.406   7.076 -0.3054 -0.3550  0.0215
   54MOL    C36 8622   4.083   6.495   7.157  0.2602  0.3150 -0.4282
   54MOL    O37 8623   4.207   6.484   7.137  0.2564 -0.2033 -0.5649
   54MOL    H38 8624   3.963   6.357   6.866 -0.2771  0.8118  0.5114
   54MOL    H39 8625   4.123   6.414   6.912 -0.3267  0.1066 -0.5439
   54MOL    H40 8626   3.958   6.317   7.132  1.7043  0.0495  1.7734
   54MOL    H41 8627   3.893   6.460   7.062  0.0685  0.0692 -0.9048
   54MOL    C42 8628   4.030   6.592   7.261  0.1828  0.6384  0.1701
   54MOL    C43 8629   4.122   6.709   7.307  0.3192 -0.5029 -0.2846
   54MOL    C44 8630   4.135   6.825   7.213 -0.2395  0.8094 -0.6612
   54MOL    O45 8631   4.064   6.822   7.115  0.3496 -0.0301  0.3129
   54MOL    H46 8632   4.005   6.526   7.344  0.1478 -1.7771 -1.7364
   54MOL    H47 8633   3.935   6.629   7.223 -0.2980 -0.0614  0.6779
   54MOL    H48 8634   4.220   6.668   7.331  0.6043  0.2559 -0.1285
   54MOL    H49 8635   4.086   6.742   7.404  2.4811  0.3760  0.2639
   54MOL    C50 8636   4.252   6.921   7.233 -0.4471 -0.6091  0.3706
   54MOL    C51 8637   4.355   6.908   7.120 -0.6128 -0.0426  0.4059
   54MOL    C52 8638   4.455   7.023   7.108 -0.3889  0.3533  0.0492
   54MOL    O53 8639   4.447   7.125   7.178 -0.3464 -0.1355  0.2039
   54MOL    H54 8640   4.294   6.894   7.330 -0.0311  1.9044  0.9249
   54MOL    H55 8641   4.209   7.021   7.234  0.0324 -0.3845 -0.5861
   54MOL    H56 8642   4.306   6.901   7.023  0.3287  2.1669 -0.2504
   54MOL    H57 8643   4.423   6.824   7.136 -1.8597 -1.1315  0.0482
   54MOL    C58 8644   4.566   7.009   7.006 -0.0627  0.1764  0.6307
   54MOL    C59 8645   4.676   6.910   7.064  0.3396  0.3778 -0.2759
   54MOL    C60 8646   4.683   6.768   6.999  0.1186 -0.3358 -0.2122
   54MOL    O61 8647   4.574   6.710   6.977  0.2154 -0.0768 -0.8417
   54MOL    H62 8648   4.605   7.110   6.994 -0.1243  0.0284 -0.9711
   54MOL    H63 8649   4.523   6.970   6.913 -0.1783  0.2911  0.6365
   54MOL    H64 8650   4.667   6.898   7.172 -4.3345  0.9593 -0.4808
   54MOL    H65 8651   4.765   6.963   7.030  0.6972 -0.2045 -0.2600
   54MOL    C66 8652   4.819   6.703   6.974 -0.1060  0.4059 -0.1962
   54MOL    C67 8653   4.806   6.552   6.916  0.3060  0.1510 -0.1259
   54MOL    C68 8654   4.842   6.444   7.014 -0.9296  0.2326  0.1506
   54MOL    O69 8655   4.879   6.471   7.130  0.1911  0.1889  0.1297
   54MOL    H70 8656   4.875   6.708   7.068  0.9598  0.2036 -0.8113
   54MOL    H71 8657   4.881   6.756   6.902 -0.2177 -0.5183 -0.9861
   54MOL    H72 8658   4.871   6.552   6.828 -0.0729  2.5693 -0.4588
   54MOL    H73 8659   4.706   6.525   6.880  0.5186  0.4009 -0.9189
   54MOL    C74 8660   4.827   6.304   6.973 -1.0788 -0.3027  0.0746
   54MOL    C75 8661   4.948   6.216   7.017 -0.3563 -0.0619 -0.1985
   54MOL    C76 8662   4.911   6.124   7.133 -0.6295 -0.4426  0.1349
   54MOL    O77 8663   4.820   6.149   7.214 -0.2678  0.1088 -0.3979
   54MOL    H78 8664   4.819   6.308   6.864 -0.5655  0.7572  0.0712
   54MOL    H79 8665   4.733   6.270   7.017 -0.8098 -0.2686  0.6793
   54MOL    H80 8666   5.036   6.278   7.028 -1.3322  1.1942  0.6736
   54MOL    H81 8667   4.979   6.147   6.938 -1.4150 -0.9002  0.0903
   54MOL    C82 8668   4.980   5.985   7.124 -0.2722 -0.0543 -0.3244
   54MOL    C83 8669   5.025   5.935   7.260 -0.5002 -0.5639 -0.4128
   54MOL    C84 8670   5.048   5.784   7.265 -0.5073 -0.0825  0.3804
   54MOL    O85 8671   5.011   5.714   7.172  0.4014 -0.1009  0.4598
   54MOL    H86 8672   5.063   6.002   7.055 -0.6155 -1.0527 -0.9963
   54MOL    H87 8673   4.910   5.910   7.088 -1.5389  1.2151 -0.5289
   54MOL    H88 8674   4.940   5.965   7.320 -0.2702 -2.0461  0.6758
   54MOL    H89 8675   5.108   5.994   7.299  0.8102  0.1436 -4.1063
   54MOL    C90 8676   5.106   5.728   7.399 -0.6480 -0.1339  0.0932
   54MOL    C91 8677   5.140   5.575   7.381  0.6208 -0.5449  0.3433
   54MOL    C92 8678   5.249   5.541   7.480 -0.1142  0.8026  0.1676
   54MOL    O93 8679   5.367   5.547   7.440  0.1894 -0.1111 -0.3782
   54MOL    H94 8680   5.038   5.741   7.483 -0.6711 -0.4787  0.1300
   54MOL    H95 8681   5.189   5.792   7.426 -0.2332 -0.5636 -0.1447
   54MOL    H96 8682   5.177   5.560   7.280  1.4565  0.9534  0.4099
   54MOL    H97 8683   5.058   5.507   7.404  0.7805 -1.1432 -0.8457
   54MOL    C98 8684   5.215   5.502   7.627 -0.0250  0.2286  0.1123
   54MOL    C99 8685   5.191   5.356   7.634 -0.0350  0.8086  0.1913
   54MOL   C100 8686   5.218   5.302   7.783  0.1905 -0.4889  0.2255
   54MOL   O101 8687   5.306   5.358   7.851 -0.1177 -0.3068 -0.0397
   54MOL   H102 8688   5.127   5.560   7.657  0.2176  0.6886 -0.0608
   54MOL   H103 8689   5.308   5.540   7.669  0.8816 -2.6247  0.8207
   54MOL   H104 8690   5.246   5.297   7.562  0.5323  0.8556  0.5856
   54MOL   H105 8691   5.086   5.340   7.609  0.1839  0.5336 -0.5627
   54MOL   C106 8692   5.161   5.169   7.827  0.3595  0.3594 -0.0864
   54MOL   C107 8693   5.018   5.177   0.025  0.1591 -0.0741 -0.6408
   54MOL   C108 8694   5.010   5.167   0.174 -0.1214 -0.0599 -0.3822
   54MOL   O109 8695   5.114   5.145   0.243 -0.2464  0.1314  0.2624
   54MOL   H110 8696   5.222   5.117   0.043 -1.7445  1.0920  2.2079
   54MOL   H111 8697   5.152   5.105   7.740 -0.2064  2.8061 -1.8780
   54MOL   H112 8698   4.959   5.098   7.839 -0.1603  0.0246 -0.4017
   54MOL   H113 8699   4.970   5.271   7.857 -0.0168  0.4782  1.4467
   54MOL   C114 8700   4.873   5.156   0.242  0.3266 -0.2553 -0.0583
   54MOL   C115 8701   4.865   5.228   0.375 -0.0193 -0.1371  0.2257
   54MOL   C116 8702   4.731   5.233   0.439 -0.4985 -0.0569  0.0745
   54MOL   O117 8703   4.636   5.169   0.394 -0.3558 -0.0970 -0.1221
   54MOL   H118 8704   4.864   5.050   0.263  0.4744 -0.4017 -0.7307
   54MOL   H119 8705   4.794   5.196   0.178  0.2697 -0.4640 -0.1187
   54MOL   H120 8706   4.910   5.327   0.371 -0.6359  0.1867  1.2962
   54MOL   H121 8707   4.933   5.184   0.448 -1.4126 -2.0461  0.4099
   54MOL   C122 8708   4.712   5.341   0.549 -0.2263  0.0717  0.7764
   54MOL   C123 8709   4.658   5.279   0.677 -0.1212  0.2795  0.3774
   54MOL   C124 8710   4.688   5.367   0.794  0.0001  0.2826  0.1888
   54MOL   O125 8711   4.792   5.430   0.811 -0.5345 -0.0217  0.0271
   54MOL   H126 8712   4.645   5.418   0.512  0.7766  0.4903 -0.1861
   54MOL   H127 8713   4.810   5.387   0.563 -0.6009  1.2196 -0.3005
   54MOL   H128 8714   4.715   5.187   0.692 -1.1001 -0.1433  1.5532
   54MOL   H129 8715   4.551   5.258   0.678 -0.3964  1.5878 -0.7044
   54MOL   C130 8716   4.581   5.371   0.903  0.3491 -0.3217 -0.5541
   54MOL   C131 8717   4.592   5.262   1.002 -0.4401  0.1536  0.6822
   54MOL   C132 8718   4.462   5.189   1.019  0.1165  0.4475 -0.4427
   54MOL   O133 8719   4.374   5.202   0.933 -0.5103  0.0561 -0.2099
   54MOL   H134 8720   4.485   5.392   0.857 -0.6962  1.6384  2.3910
   54MOL   H135 8721   4.606   5.460   0.962 -0.3391  0.0567 -0.8346
   54MOL   H136 8722   4.615   5.300   1.101  1.8334 -0.6021  0.4772
   54MOL   H137 8723   4.674   5.192   0.984 -0.2418  1.1215 -2.3552
   54MOL   C138 8724   4.446   5.102   1.143 -0.7034  0.6751  0.3994
   54MOL   C139 8725   4.325   5.004   1.140 -0.9645  0.6537  0.1000
   54MOL   C140 8726   4.242   5.033   1.263 -0.1499  0.0439 -0.0550
   54MOL   O141 8727   4.295   5.054   1.374 -0.5637 -0.1157  0.2681
   54MOL   H142 8728   4.432   5.174   1.223  1.1731  0.2679  1.1077
   54MOL   H143 8729   4.541   5.050   1.159 -1.3722 -0.7289 -0.1105
   54MOL   H144 8730   4.362   4.903   1.156  1.5771  1.6061  0.4827
   54MOL   H145 8731   4.271   4.995   1.046  0.9775  0.2479 -0.9890
   54MOL   C146 8732   4.090   5.038   1.235 -0.2192 -0.1113  0.1296
   54MOL   C147 8733   4.005   5.037   1.361  0.0820  0.1109  0.5232
   54MOL   C148 8734   3.965   5.182   1.405 -0.0119 -0.3768  0.3289
   54MOL   O149 8735   4.005   5.274   1.335  0.1714  0.3112  0.5045
   54MOL   H150 8736   4.081   4.952   1.169  0.8162  2.4400 -3.4461
   54MOL   H151 8737   4.058   5.119   1.170 -0.6132  0.1204  0.6025
   54MOL   H152 8738   4.053   4.989   1.447  0.4813 -1.2771 -0.4599
   54MOL   H153 8739   3.913   4.983   1.337  0.1668  0.7685 -1.3166
   54MOL   C154 8740   3.865   5.207   1.519 -0.4069  0.6323  0.3033
   54MOL   C155 8741   3.770   5.322   1.479 -0.9986 -0.6069  0.1043
   54MOL   C156 8742   3.824   5.462   1.502 -0.2972 -0.2827  0.4299
   54MOL   O157 8743   3.749   5.551   1.542  0.1147  0.3819 -0.1894
   54MOL   H158 8744   3.925   5.237   1.605  0.0887  0.2366  0.1041
   54MOL   H159 8745   3.822   5.115   1.559 -1.9927  0.7487 -1.0942
   54MOL   H160 8746   3.676   5.319   1.533 -0.8925 -0.2614  0.3032
   54MOL   H161 8747   3.738   5.315   1.375  0.8856  0.6022 -0.5811
   54MOL   H162 8748   3.924   5.484   1.465 -0.8843 -0.0967 -1.0681
   55MOL     C1 8749   0.851   4.690   1.224 -1.1110 -0.4285  0.7117
   55MOL     C2 8750   0.840   4.713   1.374  0.2602 -0.1979  0.2605
   55MOL     C3 8751   0.891   4.601   1.458  0.8965  0.1388  0.0854
   55MOL     O4 8752   0.993   4.538   1.434 -0.4802 -0.2096  0.2467
   55MOL     H5 8753   0.952   4.662   1.193 -1.1426 -4.5726  3.9024
   55MOL     H6 8754   0.789   4.607   1.188 -1.6378  0.0471  0.5212
   55MOL     H7 8755   0.735   4.738   1.393  1.3016  3.8337  1.1284
   55MOL     H8 8756   0.898   4.802   1.394  3.2733 -1.6216 -1.8164
   55MOL     H9 8757   0.814   4.778   1.172  3.0488  0.7642 -0.3618
   55MOL    C10 8758   0.797   4.565   1.570 -0.1632  0.2489  0.7997
   55MOL    C11 8759   0.872   4.537   1.702 -0.2446  0.9430 -0.1881
   55MOL    C12 8760   0.862   4.657   1.792  0.0997 -0.0705  0.7347
   55MOL    O13 8761   0.872   4.774   1.757 -0.6599 -0.1609  0.5183
   55MOL    H14 8762   0.756   4.469   1.538  2.0910 -1.1200  1.8670
   55MOL    H15 8763   0.712   4.628   1.595 -0.0323 -0.0030  1.9210
   55MOL    H16 8764   0.978   4.525   1.679  0.1459  1.0142  1.5641
   55MOL    H17 8765   0.829   4.447   1.744  1.2915 -0.6391 -1.8971
   55MOL    C18 8766   0.838   4.621   1.937 -0.0718 -0.0219  0.3753
   55MOL    C19 8767   0.953   4.551   2.008 -0.6545  0.0094 -0.1506
   55MOL    C20 8768   0.937   4.563   2.160  0.6234  0.4112  0.6688
   55MOL    O21 8769   0.842   4.621   2.209  0.2524 -0.2741  0.9093
   55MOL    H22 8770   0.761   4.545   1.937 -0.0869 -0.0543  3.1092
   55MOL    H23 8771   0.803   4.711   1.988  1.3307  1.3957 -1.0749
   55MOL    H24 8772   1.053   4.575   1.971 -1.2645  0.4698 -1.5285
   55MOL    H25 8773   0.943   4.447   1.977 -1.3936  0.0837 -0.1676
   55MOL    C26 8774   1.048   4.502   2.252  0.6135  0.9949  0.3684
   55MOL    C27 8775   1.041   4.562   2.395  0.4833 -0.3154  0.5894
   55MOL    C28 8776   1.021   4.466   2.506 -0.0875  0.0970 -0.6174
   55MOL    O29 8777   1.014   4.343   2.486  0.5456 -0.3639 -0.3625
   55MOL    H30 8778   1.145   4.518   2.207  1.3943 -1.4459  1.0958
   55MOL    H31 8779   1.037   4.394   2.268 -0.1079  1.3537  2.4795
   55MOL    H32 8780   0.973   4.647   2.397  1.8629  0.9144 -2.4469
   55MOL    H33 8781   1.134   4.613   2.420 -0.1005  0.2145  1.7091
   55MOL    C34 8782   0.994   4.528   2.646 -0.2058 -0.2957  0.3999
   55MOL    C35 8783   1.031   4.420   2.759 -0.4262 -0.0765 -0.1683
   55MOL    C36 8784   1.180   4.402   2.776  0.3462  0.2476 -0.0688
   55MOL    O37 8785   1.262   4.442   2.693  0.1799 -0.6185  0.1371
   55MOL    H38 8786   0.893   4.568   2.653 -0.1113  0.4336 -1.8799
   55MOL    H39 8787   1.063   4.613   2.639  0.4795 -0.9378 -0.7509
   55MOL    H40 8788   0.979   4.329   2.731 -1.1395  0.4207 -0.4851
   55MOL    H41 8789   0.984   4.458   2.849 -1.8644  1.7959 -1.6556
   55MOL    C42 8790   1.234   4.317   2.887 -0.2677  0.1612  0.4663
   55MOL    C43 8791   1.388   4.288   2.909 -0.4303 -0.7908 -0.1928
   55MOL    C44 8792   1.460   4.415   2.958 -0.2508 -0.3382 -0.4461
   55MOL    O45 8793   1.426   4.536   2.943 -0.0906  0.1226  0.4818
   55MOL    H46 8794   1.176   4.225   2.882  0.5676 -0.4689  1.9226
   55MOL    H47 8795   1.199   4.360   2.980  1.1809 -1.0933  1.6327
   55MOL    H48 8796   1.438   4.271   2.813  0.6492  0.9563  0.0395
   55MOL    H49 8797   1.398   4.201   2.973 -0.4542 -0.6011  0.0666
   55MOL    C50 8798   1.585   4.388   3.036  0.2551  0.3297 -0.0251
   55MOL    C51 8799   1.671   4.515   3.058  0.0534 -0.4653 -0.2845
   55MOL    C52 8800   1.821   4.487   3.060  0.1962 -0.8491  0.1522
   55MOL    O53 8801   1.864   4.381   3.011  0.4436 -0.0225 -0.1959
   55MOL    H54 8802   1.637   4.312   2.976  0.8346 -0.6070  1.6163
   55MOL    H55 8803   1.559   4.346   3.134  0.2311  0.5658  0.0706
   55MOL    H56 8804   1.638   4.567   3.148 -1.5013 -2.0723  0.0810
   55MOL    H57 8805   1.644   4.584   2.978 -0.7503  0.7769  1.0088
   55MOL    C58 8806   1.919   4.590   3.124  0.2971  0.1981  0.2422
   55MOL    C59 8807   2.042   4.625   3.043 -0.1677  0.1048  0.1141
   55MOL    C60 8808   2.012   4.734   2.939 -0.3619 -0.5985 -0.3791
   55MOL    O61 8809   1.897   4.768   2.922 -0.6425 -0.6528 -0.2490
   55MOL    H62 8810   1.951   4.573   3.227 -0.6635 -0.1309  0.4928
   55MOL    H63 8811   1.847   4.671   3.136 -0.0761 -0.2226  0.9055
   55MOL    H64 8812   2.079   4.538   2.988 -0.9259 -1.7331  2.4511
   55MOL    H65 8813   2.121   4.670   3.102  1.6399 -0.3107 -1.9230
   55MOL    C66 8814   2.124   4.812   2.873  0.5521 -0.1398  0.6814
   55MOL    C67 8815   2.075   4.914   2.770  0.0737 -0.3953 -0.3239
   55MOL    C68 8816   2.052   4.856   2.625  0.1187  0.3275  0.2127
   55MOL    O69 8817   2.095   4.743   2.596 -0.0022  0.0003  0.4536
   55MOL    H70 8818   2.202   4.738   2.853  0.5567  0.3712 -1.3200
   55MOL    H71 8819   2.167   4.875   2.951  0.0646 -0.7513  1.4521
   55MOL    H72 8820   2.152   4.991   2.771 -0.3286 -0.0044  0.6445
   55MOL    H73 8821   1.982   4.960   2.803  0.2876  0.6321 -1.1353
   55MOL    C74 8822   1.989   4.936   2.516  0.2802  0.1899  0.4561
   55MOL    C75 8823   2.091   5.014   2.436  0.1845 -0.5914  0.5714
   55MOL    C76 8824   2.031   5.145   2.370  0.2029  0.3634 -0.5135
   55MOL    O77 8825   1.919   5.142   2.319  0.0285  0.9213  0.2278
   55MOL    H78 8826   1.930   5.005   2.577  0.3516  1.9139 -1.3687
   55MOL    H79 8827   1.922   4.879   2.451  1.8427 -1.9466  0.6713
   55MOL    H80 8828   2.139   4.944   2.367 -0.6607 -0.3445 -0.2881
   55MOL    H81 8829   2.176   5.040   2.498  2.2113 -1.5985 -1.7177
   55MOL    C82 8830   2.125   5.268   2.344 -0.1261 -0.0437 -0.7906
   55MOL    C83 8831   2.046   5.388   2.299  0.2104 -0.6177  0.1715
   55MOL    C84 8832   2.125   5.489   2.202  0.2445 -0.1185 -0.4745
   55MOL    O85 8833   2.245   5.482   2.199 -0.5161 -0.1124 -0.1234
   55MOL    H86 8834   2.193   5.231   2.267  1.4401  4.5444 -1.7664
   55MOL    H87 8835   2.183   5.289   2.433 -1.4355  1.1297 -0.2108
   55MOL    H88 8836   2.008   5.452   2.379 -0.5714  1.0627 -1.4910
   55MOL    H89 8837   1.960   5.353   2.241  0.5637 -2.5112  0.7617
   55MOL    C90 8838   2.047   5.587   2.117  0.3139 -0.6854 -0.5642
   55MOL    C91 8839   2.143   5.689   2.047 -0.5926  0.5266  1.0159
   55MOL    C92 8840   2.192   5.812   2.120 -0.1931 -0.4083  0.4099
   55MOL    O93 8841   2.152   5.833   2.233 -0.4086 -0.0104 -0.5784
   55MOL    H94 8842   1.982   5.654   2.172  2.0740 -1.6520  2.8197
   55MOL    H95 8843   1.991   5.527   2.045  0.5252  1.8238 -2.8685
   55MOL    H96 8844   2.088   5.731   1.963  1.2267  1.3148  0.1936
   55MOL    H97 8845   2.231   5.647   1.999 -0.7060  0.8613  0.5052
   55MOL    C98 8846   2.292   5.907   2.054 -0.4609 -0.4111 -0.1692
   55MOL    C99 8847   2.284   6.047   2.104  0.6235  0.0403  0.5823
   55MOL   C100 8848   2.398   6.147   2.068 -1.0294  0.1441 -0.2143
   55MOL   O101 8849   2.511   6.105   2.042 -0.2917 -0.1932  0.0836
   55MOL   H102 8850   2.282   5.895   1.946  2.9124 -0.0809 -0.5808
   55MOL   H103 8851   2.394   5.869   2.057  1.0016  3.3696  1.1059
   55MOL   H104 8852   2.306   6.036   2.211 -0.3031  1.3556  0.9191
   55MOL   H105 8853   2.192   6.104   2.091  1.2807  0.4973 -2.3203
   55MOL   C106 8854   2.366   6.294   2.078 -0.5288  0.1527 -0.2313
   55MOL   C107 8855   2.486   6.390   2.049  0.0825 -0.3961 -0.2054
   55MOL   C108 8856   2.448   6.485   1.940 -0.6391 -0.1690  0.5336
   55MOL   O109 8857   2.347   6.556   1.953 -0.1108 -0.7760 -0.9409
   55MOL   H110 8858   2.322   6.319   2.175 -0.9359  1.5022 -0.7562
   55MOL   H111 8859   2.287   6.300   2.003 -0.7207 -2.5319 -0.2748
   55MOL   H112 8860   2.587   6.349   2.054 -0.5592 -1.8508  1.2561
   55MOL   H113 8861   2.497   6.459   2.132  0.0518 -0.3546 -0.2358
   55MOL   C114 8862   2.553   6.512   1.829 -0.0294  0.3705  0.6905
   55MOL   C115 8863   2.505   6.527   1.681  0.2859  0.3012  0.5356
   55MOL   C116 8864   2.546   6.651   1.606  0.4793 -0.0477 -0.3565
   55MOL   O117 8865   2.652   6.653   1.536  0.7399 -0.7053 -0.2524
   55MOL   H118 8866   2.630   6.435   1.838 -0.1951 -0.0091 -1.0389
   55MOL   H119 8867   2.604   6.601   1.867 -0.2314 -0.1092  2.1148
   55MOL   H120 8868   2.396   6.523   1.686  0.2715  0.1251  0.1212
   55MOL   H121 8869   2.534   6.442   1.620  0.2605  0.8382 -0.2332
   55MOL   C122 8870   2.456   6.772   1.633  0.2395  0.4846 -0.2041
   55MOL   C123 8871   2.537   6.895   1.626 -0.2728  0.1517 -0.1352
   55MOL   C124 8872   2.601   6.935   1.762  0.0602  0.0616 -0.1564
   55MOL   O125 8873   2.629   6.847   1.846  0.5616  0.1063 -0.1715
   55MOL   H126 8874   2.393   6.751   1.719  0.5457  1.6498  0.3212
   55MOL   H127 8875   2.389   6.782   1.548 -0.2982 -0.0853  0.1522
   55MOL   H128 8876   2.473   6.976   1.593  0.3659  1.0624  0.8386
   55MOL   H129 8877   2.607   6.879   1.543  0.5231 -1.2065  0.7613
   55MOL   C130 8878   2.634   7.082   1.775  0.7198  0.0714 -0.2221
   55MOL   C131 8879   2.700   7.102   1.915  0.0363  0.1207 -0.1199
   55MOL   C132 8880   2.611   7.155   2.026  0.0098  0.1022 -0.5221
   55MOL   O133 8881   2.529   7.248   2.006 -0.1672 -0.6063  0.4754
   55MOL   H134 8882   2.540   7.137   1.766  0.5532 -0.4848 -2.0603
   55MOL   H135 8883   2.698   7.105   1.690  0.7345 -0.0694 -0.2488
   55MOL   H136 8884   2.780   7.175   1.901 -1.9491  2.0103 -1.8344
   55MOL   H137 8885   2.749   7.009   1.946  0.3793  0.2125 -0.3838
   55MOL   C138 8886   2.613   7.075   2.160  0.2663  0.1531 -0.2062
   55MOL   C139 8887   2.488   6.987   2.159  0.0462  0.3259 -0.3090
   55MOL   C140 8888   2.511   6.875   2.264 -0.0699  0.6498 -0.4827
   55MOL   O141 8889   2.620   6.823   2.282  0.1230 -0.3028 -0.2788
   55MOL   H142 8890   2.618   7.140   2.248 -0.8121 -0.8996  0.6323
   55MOL   H143 8891   2.702   7.013   2.147  1.3521  1.6398 -0.0441
   55MOL   H144 8892   2.472   6.930   2.068  0.1496  0.8063 -0.6294
   55MOL   H145 8893   2.396   7.042   2.175 -1.1178 -1.3918 -0.8852
   55MOL   C146 8894   2.387   6.826   2.341  0.4146 -0.1232  0.2132
   55MOL   C147 8895   2.352   6.686   2.286  0.8062  0.3200 -0.2828
   55MOL   C148 8896   2.209   6.683   2.236 -0.2006  0.0126 -0.4722
   55MOL   O149 8897   2.162   6.769   2.162 -0.0007 -0.3590  0.5975
   55MOL   H150 8898   2.311   6.901   2.319 -1.1766 -1.8156 -0.1950
   55MOL   H151 8899   2.405   6.828   2.448 -0.0199 -0.0472  0.2847
   55MOL   H152 8900   2.350   6.604   2.357 -0.1912  0.9200  0.3862
   55MOL   H153 8901   2.419   6.658   2.204  0.2894  0.1945 -0.6675
   55MOL   C154 8902   2.130   6.565   2.275 -0.3165 -0.1835 -0.0029
   55MOL   C155 8903   2.003   6.563   2.195 -0.0950 -0.1931  0.4538
   55MOL   C156 8904   1.900   6.658   2.251  0.4022 -0.4972  0.6279
   55MOL   O157 8905   1.785   6.618   2.266 -0.0655 -0.0995 -0.3194
   55MOL   H158 8906   2.111   6.566   2.382  1.1181 -2.1260  0.3087
   55MOL   H159 8907   2.182   6.471   2.252 -1.3454 -0.8421  0.3130
   55MOL   H160 8908   1.970   6.460   2.205 -1.7823  0.1983 -0.9514
   55MOL   H161 8909   2.021   6.585   2.090 -1.8053 -0.3361  0.1189
   55MOL   H162 8910   1.939   6.758   2.272 -1.2306 -0.0248  1.5063
   56MOL     C1 8911   4.675   7.659   4.036  0.2066  0.2536  0.0145
   56MOL     C2 8912   4.778   7.538   4.006  0.1283  0.1385  0.4464
   56MOL     C3 8913   4.771   7.415   4.094  0.0028  0.1988 -1.1355
   56MOL     O4 8914   4.673   7.394   4.168 -0.3839 -0.2595  0.1396
   56MOL     H5 8915   4.712   7.750   3.989 -0.0482  0.8982  1.0414
   56MOL     H6 8916   4.580   7.637   3.987 -0.7112  2.1566  0.8459
   56MOL     H7 8917   4.880   7.577   4.001 -0.0320  0.4833 -0.1915
   56MOL     H8 8918   4.779   7.509   3.901 -0.7942  2.3836 -0.1977
   56MOL     H9 8919   4.648   7.676   4.140 -0.6432 -0.6882 -0.0428
   56MOL    C10 8920   4.882   7.312   4.079  1.1813  0.3500 -0.0311
   56MOL    C11 8921   4.835   7.171   4.047 -0.1675 -0.2246 -0.6409
   56MOL    C12 8922   4.901   7.118   3.922  0.3748 -0.1868  0.2522
   56MOL    O13 8923   5.005   7.162   3.867  0.3331  0.4390  0.4535
   56MOL    H14 8924   4.939   7.304   4.171  0.1078 -2.9798  0.4316
   56MOL    H15 8925   4.955   7.356   4.011 -0.1761  0.1948 -1.6215
   56MOL    H16 8926   4.727   7.171   4.032 -0.0471 -0.3799 -1.5085
   56MOL    H17 8927   4.866   7.099   4.123  1.9785  1.6160  0.2784
   56MOL    C18 8928   4.829   6.995   3.857 -0.1162 -0.1047 -0.1291
   56MOL    C19 8929   4.868   6.964   3.716  0.1237 -0.7966 -0.1092
   56MOL    C20 8930   4.753   6.894   3.630 -0.3999  0.7095 -0.0357
   56MOL    O21 8931   4.641   6.857   3.673 -0.4217  0.1803  0.8055
   56MOL    H22 8932   4.720   7.000   3.854 -0.0695  1.7749  0.4633
   56MOL    H23 8933   4.837   6.913   3.928 -0.5771 -0.8270 -0.8953
   56MOL    H24 8934   4.959   6.905   3.721 -0.0159 -0.9422  0.8202
   56MOL    H25 8935   4.886   7.056   3.661 -0.0168  0.7128  2.2779
   56MOL    C26 8936   4.794   6.870   3.484 -0.0630  0.1469  0.5145
   56MOL    C27 8937   4.736   6.981   3.402  0.2357  0.0378  0.1102
   56MOL    C28 8938   4.844   7.068   3.329 -0.0940  0.4866 -0.3291
   56MOL    O29 8939   4.948   7.089   3.392 -0.2753  0.2531  0.4973
   56MOL    H30 8940   4.761   6.774   3.443 -0.4413  0.0964  0.9395
   56MOL    H31 8941   4.903   6.874   3.479 -0.1687  1.1416 -1.9891
   56MOL    H32 8942   4.664   7.044   3.454  0.5461 -0.0773  0.6895
   56MOL    H33 8943   4.678   6.927   3.328  1.4543  0.1018 -0.9115
   56MOL    C34 8944   4.813   7.131   3.194  0.7293 -0.3977 -0.0270
   56MOL    C35 8945   4.947   7.183   3.122  0.6113 -0.0530 -0.8907
   56MOL    C36 8946   4.999   7.104   3.005  0.0614  0.1340  0.5732
   56MOL    O37 8947   4.946   7.005   2.956  0.0634  0.5091  0.5341
   56MOL    H38 8948   4.735   7.207   3.200  0.6496 -0.6266  2.2291
   56MOL    H39 8949   4.754   7.059   3.137  1.1728 -1.9128  1.3942
   56MOL    H40 8950   5.025   7.188   3.198 -0.8982  1.4210  0.5844
   56MOL    H41 8951   4.937   7.285   3.084 -1.2798 -0.1945 -0.8200
   56MOL    C42 8952   5.134   7.160   2.956  0.5101  0.6076 -0.6023
   56MOL    C43 8953   5.209   7.079   2.846  0.2557 -0.3003 -0.7654
   56MOL    C44 8954   5.359   7.054   2.864 -0.3526  0.4471 -0.5787
   56MOL    O45 8955   5.438   7.150   2.878 -0.6380  0.3015 -0.2218
   56MOL    H46 8956   5.201   7.177   3.040  1.0913  0.4931 -1.0359
   56MOL    H47 8957   5.112   7.260   2.918 -1.1627  0.1837 -0.8016
   56MOL    H48 8958   5.200   7.139   2.756 -0.4112  0.6120 -0.0958
   56MOL    H49 8959   5.149   6.989   2.831  0.5334 -0.6566  0.2702
   56MOL    C50 8960   5.404   6.910   2.842 -0.2096  0.0836 -0.2240
   56MOL    C51 8961   5.470   6.896   2.706  0.4767  0.2537 -0.5664
   56MOL    C52 8962   5.604   6.831   2.716 -0.4645  0.7385  0.1319
   56MOL    O53 8963   5.638   6.767   2.819 -0.0047 -0.5990 -0.0087
   56MOL    H54 8964   5.324   6.837   2.830  1.2273 -1.1390 -2.6478
   56MOL    H55 8965   5.467   6.882   2.926  2.1253  0.1971 -1.8954
   56MOL    H56 8966   5.481   6.987   2.647 -1.1962  0.4419 -0.6133
   56MOL    H57 8967   5.413   6.822   2.650  1.7843 -0.0403 -1.5524
   56MOL    C58 8968   5.694   6.836   2.588 -0.9642  0.5637 -0.2027
   56MOL    C59 8969   5.728   6.693   2.551  0.1653 -0.6063  1.0395
   56MOL    C60 8970   5.852   6.631   2.611  0.0391 -0.0103 -0.1647
   56MOL    O61 8971   5.929   6.697   2.680 -1.1967  0.5090 -0.6554
   56MOL    H62 8972   5.785   6.891   2.610 -0.0990  0.0056 -2.2207
   56MOL    H63 8973   5.632   6.880   2.510 -0.3776 -0.2032 -1.1259
   56MOL    H64 8974   5.743   6.681   2.444  0.7975  0.2920  1.0222
   56MOL    H65 8975   5.650   6.620   2.575 -0.8018  0.3632  0.8770
   56MOL    C66 8976   5.878   6.486   2.583 -0.2379  0.6656 -0.0728
   56MOL    C67 8977   5.989   6.419   2.663  0.5034 -0.1468 -0.2485
   56MOL    C68 8978   5.982   6.267   2.656 -0.4645 -0.2747 -0.0333
   56MOL    O69 8979   5.904   6.214   2.577  0.5670 -0.3781 -0.2191
   56MOL    H70 8980   5.897   6.477   2.476  0.7976 -0.9842  0.2272
   56MOL    H71 8981   5.781   6.442   2.605 -1.5560  3.3950 -0.2194
   56MOL    H72 8982   5.981   6.453   2.766  2.0273  1.4217 -0.6256
   56MOL    H73 8983   6.083   6.463   2.630 -0.6672  1.6872 -1.1821
   56MOL    C74 8984   6.077   6.195   2.755  0.3450 -0.2185  0.3059
   56MOL    C75 8985   6.204   6.150   2.682 -0.5885 -0.1192 -0.0325
   56MOL    C76 8986   6.325   6.237   2.714 -0.0218 -0.2991  0.2307
   56MOL    O77 8987   6.325   6.358   2.718  0.1069 -0.5139  0.0690
   56MOL    H78 8988   6.020   6.105   2.781  0.0359  0.7349  3.0845
   56MOL    H79 8989   6.102   6.251   2.845  2.2107 -0.7335  0.1149
   56MOL    H80 8990   6.192   6.153   2.574  0.2321 -0.1961 -0.1307
   56MOL    H81 8991   6.227   6.048   2.714  0.0626 -0.6260 -2.0697
   56MOL    C82 8992   6.461   6.156   2.727 -0.2602  0.3226  0.9680
   56MOL    C83 8993   6.585   6.239   2.702  0.5280  0.5845  0.1369
   56MOL    C84 8994   6.652   6.291   2.827 -0.0449 -0.6511 -0.0987
   56MOL    O85 8995   6.581   6.341   2.919  0.1809  0.3610 -0.4811
   56MOL    H86 8996   6.457   6.070   2.660 -0.7359  1.1314 -0.0431
   56MOL    H87 8997   6.468   6.112   2.827  1.4052  0.5659  0.9558
   56MOL    H88 8998   6.576   6.318   2.627 -1.4757  0.7546  0.5313
   56MOL    H89 8999   6.654   6.168   2.655  0.8330 -0.8521  2.6550
   56MOL    C90 9000   6.802   6.276   2.847 -0.3715  0.6592  0.1358
   56MOL    C91 9001   6.829   6.163   2.954  0.9631  0.3576  0.2071
   56MOL    C92 9002   6.840   6.020   2.900 -0.7573 -0.3349 -0.3363
   56MOL    O93 9003   6.949   5.979   2.865 -0.2046 -1.0397  0.0757
   56MOL    H94 9004   6.828   6.367   2.901 -2.5905  0.8756  0.8786
   56MOL    H95 9005   6.849   6.271   2.749  0.4205 -0.2530  0.5597
   56MOL    H96 9006   6.752   6.167   3.030  0.6084 -2.4066  0.0301
   56MOL    H97 9007   6.918   6.199   3.006  0.2009 -1.3837  2.8071
   56MOL    C98 9008   6.715   5.934   2.892 -0.6593 -0.0374  0.3260
   56MOL    C99 9009   6.741   5.801   2.823  0.3596 -0.5041  0.8078
   56MOL   C100 9010   6.677   5.795   2.679  1.3817  0.5113  0.0597
   56MOL   O101 9011   6.638   5.903   2.627  0.6810 -0.7286  0.0644
   56MOL   H102 9012   6.628   5.976   2.842  0.8172  1.5164 -0.9864
   56MOL   H103 9013   6.677   5.918   2.993 -0.4975  1.8738  0.7073
   56MOL   H104 9014   6.697   5.722   2.884 -0.2533  0.8852  2.1927
   56MOL   H105 9015   6.847   5.777   2.825  0.8502  1.6805  2.6462
   56MOL   C106 9016   6.668   5.657   2.604  0.9344 -0.0749  0.2091
   56MOL   C107 9017   6.571   5.649   2.486  0.3785  0.2109 -0.4110
   56MOL   C108 9018   6.631   5.568   2.370  0.5382  0.6955  1.0331
   56MOL   O109 9019   6.748   5.585   2.333 -0.4851  0.6065 -0.0818
   56MOL   H110 9020   6.649   5.587   2.685 -0.0950 -0.3487 -0.2455
   56MOL   H111 9021   6.770   5.633   2.573  1.2216  0.4215  0.7782
   56MOL   H112 9022   6.557   5.747   2.440 -1.6188 -1.1800 -2.9320
   56MOL   H113 9023   6.469   5.616   2.505  0.8119 -0.7668  0.2261
   56MOL   C114 9024   6.539   5.482   2.292 -0.5568 -0.1754 -0.4456
   56MOL   C115 9025   6.608   5.385   2.198 -0.0739 -0.3864  0.3473
   56MOL   C116 9026   6.566   5.235   2.208  0.0666 -0.3508 -0.7504
   56MOL   O117 9027   6.583   5.172   2.313 -0.5126 -0.3756 -0.7292
   56MOL   H118 9028   6.479   5.550   2.232 -1.8261 -0.0372  0.9449
   56MOL   H119 9029   6.475   5.435   2.367 -0.4505  1.1636  0.4908
   56MOL   H120 9030   6.715   5.392   2.216 -0.5826  0.0901  3.4037
   56MOL   H121 9031   6.598   5.418   2.095  1.7451 -2.2991 -0.4955
   56MOL   C122 9032   6.528   5.167   2.075  0.0921  0.3712 -0.7663
   56MOL   C123 9033   6.457   5.039   2.096 -0.7518 -0.5004  0.2385
   56MOL   C124 9034   6.434   4.966   1.967  0.5515 -0.2016 -0.0810
   56MOL   O125 9035   6.350   5.012   1.886 -0.4016  0.1078  0.4585
   56MOL   H126 9036   6.615   5.145   2.013  0.8242 -2.3170  1.1243
   56MOL   H127 9037   6.464   5.235   2.019 -0.2276  0.7017 -0.0049
   56MOL   H128 9038   6.356   5.055   2.132 -1.2662  0.0969 -1.4119
   56MOL   H129 9039   6.515   4.970   2.158 -0.2543  0.4089  0.7945
   56MOL   C130 9040   6.509   4.830   1.939  0.6903 -0.1815  0.5098
   56MOL   C131 9041   6.438   4.735   1.836  1.1823 -1.0601 -0.7106
   56MOL   C132 9042   6.517   4.711   1.711 -0.4278  0.3708 -0.5450
   56MOL   O133 9043   6.639   4.706   1.705  0.0986 -0.2046 -0.9392
   56MOL   H134 9044   6.516   4.787   2.039  4.0471 -0.6358  0.1206
   56MOL   H135 9045   6.613   4.842   1.911  0.1700  1.5261 -0.7774
   56MOL   H136 9046   6.344   4.781   1.807  0.8535 -2.8218 -2.4381
   56MOL   H137 9047   6.416   4.645   1.893 -1.0921  0.7219  1.3548
   56MOL   C138 9048   6.434   4.711   1.583 -0.2357 -0.3451  0.6548
   56MOL   C139 9049   6.524   4.671   1.457 -0.3750  0.1190 -0.6071
   56MOL   C140 9050   6.534   4.522   1.447  0.1203 -0.5918  0.3337
   56MOL   O141 9051   6.500   4.451   1.538  0.3209 -0.2832  0.7004
   56MOL   H142 9052   6.381   4.805   1.565  1.7378  0.6707 -0.0298
   56MOL   H143 9053   6.350   4.642   1.590  1.4522 -2.3969  1.2863
   56MOL   H144 9054   6.625   4.712   1.454  0.3211 -1.5264 -0.1284
   56MOL   H145 9055   6.483   4.713   1.365 -0.2218  2.6687  0.4335
   56MOL   C146 9056   6.588   4.473   1.312  0.4618 -0.0429  0.6936
   56MOL   C147 9057   6.611   4.319   1.308 -0.1726 -0.7843 -0.1695
   56MOL   C148 9058   6.757   4.277   1.348 -0.1532  0.5051  0.5338
   56MOL   O149 9059   6.837   4.343   1.411  0.1728  0.4762 -0.2217
   56MOL   H150 9060   6.681   4.525   1.292  1.2027 -2.0345 -1.1866
   56MOL   H151 9061   6.520   4.504   1.233  2.2083 -0.0488 -0.8380
   56MOL   H152 9062   6.591   4.269   1.214  0.1703 -1.4659  0.1201
   56MOL   H153 9063   6.537   4.264   1.367  0.9640 -1.3065  0.7915
   56MOL   C154 9064   6.805   4.139   1.315  0.2900  0.2046  0.0159
   56MOL   C155 9065   6.956   4.125   1.283 -0.1615  0.1104 -0.1255
   56MOL   C156 9066   7.006   4.139   1.139  0.2904  0.4749  0.6137
   56MOL   O157 9067   7.120   4.109   1.105  0.7892 -0.1671  0.3097
   56MOL   H158 9068   6.740   4.081   1.250  1.4824 -0.3696 -0.6863
   56MOL   H159 9069   6.794   4.085   1.409  0.0683 -3.2262 -1.9250
   56MOL   H160 9070   6.997   4.028   1.310  0.3589  1.0292  2.5356
   56MOL   H161 9071   7.011   4.196   1.345  1.7068 -1.0351 -0.4202
   56MOL   H162 9072   6.942   4.181   1.061  0.1764 -2.4422 -0.9453
   57MOL     C1 9073   3.020   6.219   0.913 -1.3008 -0.0908 -0.1146
   57MOL     C2 9074   3.086   6.358   0.949  0.5989 -0.1782 -0.1559
   57MOL     C3 9075   3.049   6.455   0.842  0.5792 -0.2882 -0.4887
   57MOL     O4 9076   3.121   6.460   0.743 -1.2890  0.3079 -0.3094
   57MOL     H5 9077   2.912   6.220   0.901 -1.2984  0.1914 -0.1134
   57MOL     H6 9078   3.058   6.175   0.821  0.0703  2.0587 -0.6231
   57MOL     H7 9079   3.191   6.336   0.969  0.2703 -1.4428  0.2635
   57MOL     H8 9080   3.043   6.399   1.041 -2.1697 -1.3518 -0.8812
   57MOL     H9 9081   3.040   6.143   0.989 -1.0138 -0.3124 -0.4097
   57MOL    C10 9082   2.937   6.553   0.865 -0.1747  0.1190 -0.5619
   57MOL    C11 9083   2.917   6.654   0.752  0.1715 -0.1580  0.2551
   57MOL    C12 9084   2.805   6.755   0.782  0.3032 -0.2276 -0.2225
   57MOL    O13 9085   2.804   6.819   0.888  0.1420 -0.2028 -0.4617
   57MOL    H14 9086   2.965   6.605   0.957  0.1200 -2.2083  0.7139
   57MOL    H15 9087   2.847   6.493   0.881  0.3039 -0.4446  0.0522
   57MOL    H16 9088   2.887   6.607   0.658 -0.9929  1.4684 -0.2064
   57MOL    H17 9089   3.003   6.713   0.723  0.6773 -1.1236 -0.2471
   57MOL    C18 9090   2.695   6.770   0.679 -0.2074 -0.0683 -0.4943
   57MOL    C19 9091   2.617   6.903   0.693 -0.0672  0.0348  0.2691
   57MOL    C20 9092   2.566   6.965   0.560  0.3349 -0.5299 -0.2978
   57MOL    O21 9093   2.633   6.944   0.459 -0.4079  0.5310 -0.2228
   57MOL    H22 9094   2.625   6.687   0.672  1.0829 -1.0973 -1.4445
   57MOL    H23 9095   2.739   6.762   0.579 -0.0228 -2.4102 -0.2498
   57MOL    H24 9096   2.685   6.976   0.737 -0.2953 -1.2302  2.7783
   57MOL    H25 9097   2.539   6.889   0.769  0.4554  0.8260  0.9550
   57MOL    C26 9098   2.440   7.054   0.564 -0.1492 -0.3513 -0.3032
   57MOL    C27 9099   2.404   7.140   0.434 -0.0834  0.5704  0.0138
   57MOL    C28 9100   2.256   7.121   0.392  0.5635 -0.8356 -0.1833
   57MOL    O29 9101   2.225   7.017   0.340 -0.2691 -0.1707 -0.4318
   57MOL    H30 9102   2.422   7.109   0.656  0.1036  0.5784 -0.8079
   57MOL    H31 9103   2.357   6.988   0.591 -2.1711  1.1263 -2.6150
   57MOL    H32 9104   2.463   7.104   0.350  1.6431  4.7494 -0.6697
   57MOL    H33 9105   2.431   7.244   0.453  3.8347 -0.6620  1.5982
   57MOL    C34 9106   2.158   7.233   0.412  0.2247  0.0633 -0.2935
   57MOL    C35 9107   2.009   7.196   0.397  0.2593  0.6787 -0.3137
   57MOL    C36 9108   1.972   7.209   0.251  0.0891  0.1162 -0.3964
   57MOL    O37 9109   1.979   7.314   0.190  0.3574 -0.2150  0.2971
   57MOL    H38 9110   2.193   7.324   0.363  1.4474  0.2307  0.8632
   57MOL    H39 9111   2.176   7.269   0.514 -1.5128 -0.7527  0.3293
   57MOL    H40 9112   1.952   7.272   0.450  1.3359  1.6690 -0.5596
   57MOL    H41 9113   1.985   7.104   0.450 -1.3724  3.1688  3.5198
   57MOL    C42 9114   1.909   7.091   0.187  0.5943 -0.4104  0.4854
   57MOL    C43 9115   1.963   7.067   0.045  0.1013  0.4619  0.1856
   57MOL    C44 9116   1.957   6.932   7.848  0.2399  0.4861  0.3636
   57MOL    O45 9117   1.955   6.831   0.070 -0.0333  0.1601 -0.2834
   57MOL    H46 9118   1.800   7.101   0.186  0.6631  0.5155  0.8952
   57MOL    H47 9119   1.922   7.005   0.253  1.5123 -0.9529 -0.3948
   57MOL    H48 9120   2.070   7.087   0.046  0.0534  0.7025  0.5877
   57MOL    H49 9121   1.917   7.124   7.823 -2.0418  1.1917  1.8735
   57MOL    C50 9122   1.972   6.917   7.695 -0.4900  0.1413 -0.6933
   57MOL    C51 9123   2.033   6.780   7.646 -0.3406 -0.5107 -0.2672
   57MOL    C52 9124   1.936   6.707   7.553  0.1230 -0.2330  0.0541
   57MOL    O53 9125   1.813   6.717   7.557 -0.3442 -0.0125  0.1247
   57MOL    H54 9126   2.036   6.998   7.659  0.8005  0.4681  2.1332
   57MOL    H55 9127   1.880   6.935   7.641 -0.3627 -2.2046 -1.7299
   57MOL    H56 9128   2.061   6.717   7.730  1.8197  0.0310 -0.5419
   57MOL    H57 9129   2.126   6.800   7.593 -0.6292  0.1638 -0.5282
   57MOL    C58 9130   2.004   6.601   7.469 -0.5429  0.8121 -0.7033
   57MOL    C59 9131   2.042   6.649   7.329 -0.1188 -0.6195 -0.3370
   57MOL    C60 9132   2.190   6.652   7.317  0.1222 -0.5259 -0.6495
   57MOL    O61 9133   2.269   6.699   7.403 -0.1521  0.4617 -0.6415
   57MOL    H62 9134   1.933   6.518   7.470 -1.7751  1.8488  0.9267
   57MOL    H63 9135   2.085   6.566   7.532 -1.9454  1.0113  1.2764
   57MOL    H64 9136   1.991   6.741   7.303 -0.0402 -0.6190 -0.4830
   57MOL    H65 9137   2.003   6.573   7.262 -0.3498 -0.4569 -0.3851
   57MOL    C66 9138   2.244   6.598   7.185 -0.4648 -0.7002  0.0270
   57MOL    C67 9139   2.396   6.635   7.176  0.6467 -0.5036 -1.1324
   57MOL    C68 9140   2.461   6.571   7.053 -0.0987 -0.0530  0.3332
   57MOL    O69 9141   2.401   6.489   6.991 -1.1454  0.1876  0.5506
   57MOL    H70 9142   2.199   6.633   7.092 -1.9720 -1.8090  0.3210
   57MOL    H71 9143   2.232   6.490   7.180 -1.3190 -0.7072  1.9971
   57MOL    H72 9144   2.455   6.601   7.262  0.2988  1.8169  0.0618
   57MOL    H73 9145   2.412   6.743   7.172 -1.3348 -0.0848  1.1555
   57MOL    C74 9146   2.600   6.626   7.013  0.2327 -0.3347 -0.2569
   57MOL    C75 9147   2.646   6.565   6.882 -0.3274 -0.1279 -0.0644
   57MOL    C76 9148   2.694   6.419   6.899 -1.0803 -0.5380 -0.1578
   57MOL    O77 9149   2.711   6.363   7.009 -0.0029 -0.6732 -0.1684
   57MOL    H78 9150   2.668   6.607   7.095 -1.5145 -0.4331  1.2054
   57MOL    H79 9151   2.584   6.732   6.994  0.3999 -0.5425 -1.6247
   57MOL    H80 9152   2.724   6.628   6.840  0.5874 -0.2732  1.3750
   57MOL    H81 9153   2.556   6.557   6.820 -1.2286 -0.3740  1.2472
   57MOL    C82 9154   2.711   6.341   6.771  0.2084  0.2407 -0.1319
   57MOL    C83 9155   2.761   6.199   6.789  0.4483 -0.0017  0.2876
   57MOL    C84 9156   2.893   6.151   6.730 -0.3009 -0.3750  0.4928
   57MOL    O85 9157   2.947   6.200   6.633 -0.1496 -1.3197  0.0741
   57MOL    H86 9158   2.775   6.401   6.707  0.2615  0.6397  0.2921
   57MOL    H87 9159   2.608   6.333   6.736 -0.3909 -2.1167  1.9969
   57MOL    H88 9160   2.693   6.134   6.735 -2.0412  2.2234  0.6326
   57MOL    H89 9161   2.760   6.165   6.892  1.3231 -0.4466  0.1481
   57MOL    C90 9162   2.943   6.015   6.790 -0.2532  0.2534  0.6953
   57MOL    C91 9163   3.039   5.938   6.696 -0.6002 -0.7041  0.2173
   57MOL    C92 9164   3.182   5.936   6.756  0.0315 -0.4359  0.2325
   57MOL    O93 9165   3.196   5.905   6.872  0.0625  0.7551  0.2968
   57MOL    H94 9166   2.857   5.952   6.814  1.9545 -2.2201  2.3689
   57MOL    H95 9167   2.993   6.036   6.884 -2.9083  0.7694  2.0533
   57MOL    H96 9168   3.046   5.973   6.593 -1.9320 -1.3953 -0.1197
   57MOL    H97 9169   3.004   5.835   6.691 -0.7279 -0.6017 -1.1641
   57MOL    C98 9170   3.298   5.971   6.676  0.1579  0.2008 -0.4647
   57MOL    C99 9171   3.369   6.106   6.724  0.0556  0.0183 -0.2676
   57MOL   C100 9172   3.518   6.094   6.729 -0.2799 -0.5650 -0.1395
   57MOL   O101 9173   3.569   6.001   6.794 -0.1919  0.4392  0.2036
   57MOL   H102 9174   3.277   5.980   6.569  0.9118 -0.3288 -0.6633
   57MOL   H103 9175   3.367   5.887   6.679 -0.5092 -0.3346  0.2953
   57MOL   H104 9176   3.329   6.130   6.823  2.4022 -0.6997  0.9030
   57MOL   H105 9177   3.330   6.196   6.677  0.4506  1.8670  2.8349
   57MOL   C106 9178   3.601   6.205   6.658 -0.7494 -0.0122 -0.0764
   57MOL   C107 9179   3.665   6.304   6.756 -1.0994 -0.3752 -0.1249
   57MOL   C108 9180   3.564   6.412   6.811 -0.1412  0.0192 -0.3135
   57MOL   O109 9181   3.479   6.448   6.731  0.5440 -0.0410 -0.5388
   57MOL   H110 9182   3.546   6.260   6.583  0.8141  1.2851 -0.2975
   57MOL   H111 9183   3.671   6.144   6.600 -0.2595  0.0125  0.4839
   57MOL   H112 9184   3.741   6.359   6.701 -1.2899  0.0005 -0.0174
   57MOL   H113 9185   3.709   6.257   6.844 -0.2903 -1.9021 -1.3320
   57MOL   C114 9186   3.564   6.473   6.943 -0.4009 -0.0220 -0.0133
   57MOL   C115 9187   3.530   6.623   6.968  0.4859  0.0887 -0.2696
   57MOL   C116 9188   3.641   6.701   7.044  0.5171  0.2296 -0.1156
   57MOL   O117 9189   3.718   6.650   7.123 -0.4299 -0.8722  0.6021
   57MOL   H118 9190   3.662   6.458   6.988 -1.2252 -0.6625  1.6077
   57MOL   H119 9191   3.498   6.407   6.998 -2.7625  2.1391 -0.1516
   57MOL   H120 9192   3.442   6.635   7.032  2.1394 -2.1433  2.5618
   57MOL   H121 9193   3.505   6.667   6.872  0.5326  3.6600  1.2897
   57MOL   C122 9194   3.648   6.848   7.008  0.2753 -0.4713  0.1030
   57MOL   C123 9195   3.740   6.940   7.090 -1.1164  0.0587  0.1590
   57MOL   C124 9196   3.839   7.014   7.003 -0.2968  0.1274 -0.5986
   57MOL   O125 9197   3.870   6.975   6.887 -0.5165  0.2607 -0.4552
   57MOL   H126 9198   3.545   6.879   6.993  0.3452 -1.3705 -2.4994
   57MOL   H127 9199   3.673   6.843   6.902 -0.1446 -0.3108 -0.0037
   57MOL   H128 9200   3.788   6.883   7.169  0.9817 -1.1381 -1.9277
   57MOL   H129 9201   3.688   7.020   7.143 -0.5936  0.7389 -0.3476
   57MOL   C130 9202   3.907   7.135   7.062  0.4331  0.1168  0.5015
   57MOL   C131 9203   4.050   7.147   7.017  0.2586  0.4325 -0.4834
   57MOL   C132 9204   4.109   7.288   7.025 -0.5429  0.7950  0.7338
   57MOL   O133 9205   4.037   7.382   7.058 -0.0655 -0.2305 -0.4596
   57MOL   H134 9206   3.908   7.130   7.171 -3.3156 -0.1149  0.5878
   57MOL   H135 9207   3.846   7.220   7.030 -2.5918 -2.0378  0.4342
   57MOL   H136 9208   4.062   7.114   6.914  0.3010  0.7168 -0.5699
   57MOL   H137 9209   4.101   7.078   7.084  2.5174  0.5478 -2.0321
   57MOL   C138 9210   4.259   7.307   7.003 -0.5190 -0.4999  0.5432
   57MOL   C139 9211   4.307   7.454   6.997  0.2970  0.2424 -0.9973
   57MOL   C140 9212   4.326   7.494   6.847 -0.0539 -0.2718  0.1680
   57MOL   O141 9213   4.344   7.407   6.758  0.5625  0.1549 -0.9018
   57MOL   H142 9214   4.302   7.246   6.924 -2.4327 -1.1887 -0.0052
   57MOL   H143 9215   4.310   7.272   7.093 -0.7029 -1.3240  0.3249
   57MOL   H144 9216   4.407   7.468   7.039 -0.7500  1.5627  1.0971
   57MOL   H145 9217   4.250   7.520   7.063  0.1998 -0.3604 -0.4747
   57MOL   C146 9218   4.323   7.643   6.813  0.0777 -0.7591 -0.2308
   57MOL   C147 9219   4.399   7.734   6.907 -0.4914  0.4719  0.0072
   57MOL   C148 9220   4.549   7.704   6.903 -0.1519 -0.6972  0.5592
   57MOL   O149 9221   4.608   7.614   6.839  0.0791 -0.6788 -0.4812
   57MOL   H150 9222   4.218   7.674   6.809 -0.1229 -1.4152 -0.1940
   57MOL   H151 9223   4.360   7.643   6.710 -0.5917  1.8056 -0.4900
   57MOL   H152 9224   4.365   7.714   7.008 -3.2156 -0.2231 -1.0047
   57MOL   H153 9225   4.370   7.836   6.881  1.6567  1.2271  0.4594
   57MOL   C154 9226   4.632   7.789   6.999 -0.9228  0.0926 -0.0701
   57MOL   C155 9227   4.782   7.752   7.007  0.3810  0.6185  1.3376
   57MOL   C156 9228   4.840   7.736   7.147  0.0215  0.3967  0.1270
   57MOL   O157 9229   4.775   7.685   7.239 -0.2562  0.5488 -0.5069
   57MOL   H158 9230   4.583   7.772   7.095  0.7154 -2.4694  0.3673
   57MOL   H159 9231   4.618   0.027   6.952  0.7251  0.1607 -0.4567
   57MOL   H160 9232   4.843   7.822   6.950 -0.1322  0.0743  0.1028
   57MOL   H161 9233   4.799   7.659   6.953  0.5025  0.5233  1.5356
   57MOL   H162 9234   4.942   7.772   7.162 -0.1489  0.7511  0.4403
   58MOL     C1 9235   7.563   3.527   3.761  0.3527  0.0797 -0.7981
   58MOL     C2 9236   7.596   3.450   3.626 -0.2668 -0.3757  0.2711
   58MOL     C3 9237   7.591   3.525   3.495  1.0981 -0.1255 -1.2178
   58MOL     O4 9238   7.674   3.607   3.463 -1.0440 -0.4051  0.0077
   58MOL     H5 9239   7.455   3.538   3.769  0.2782 -0.9280 -0.3846
   58MOL     H6 9240   7.603   3.476   3.849 -1.7790  1.3349  0.9708
   58MOL     H7 9241   7.522   3.369   3.619  0.8782 -1.5662  1.5933
   58MOL     H8 9242   7.692   3.398   3.624 -0.7898 -1.3706  0.3621
   58MOL     H9 9243   7.613   3.624   3.765 -0.3942  0.4274  0.6935
   58MOL    C10 9244   7.481   3.481   3.406 -0.7726 -0.6460 -0.0325
   58MOL    C11 9245   7.493   3.542   3.260 -0.1686 -0.4210  0.1507
   58MOL    C12 9246   7.493   3.433   3.154  0.2795 -0.6923  0.1680
   58MOL    O13 9247   7.391   3.370   3.125 -0.0268 -0.7727 -0.3904
   58MOL    H14 9248   7.382   3.501   3.449 -1.2539 -1.3633 -0.7939
   58MOL    H15 9249   7.483   3.372   3.405 -0.1165 -0.6271 -1.2165
   58MOL    H16 9250   7.578   3.609   3.249 -0.5854  0.1722  0.5383
   58MOL    H17 9251   7.408   3.603   3.229  1.2353  0.4280 -2.1309
   58MOL    C18 9252   7.634   3.395   3.102  0.9978  0.1218 -0.1960
   58MOL    C19 9253   7.641   3.287   2.994  0.1958  0.1914 -0.4910
   58MOL    C20 9254   7.691   3.342   2.861  0.7852  0.1853 -0.1120
   58MOL    O21 9255   7.808   3.318   2.824  0.1855 -0.2235  0.2698
   58MOL    H22 9256   7.697   3.361   3.184  2.9296  0.4031 -1.5268
   58MOL    H23 9257   7.674   3.490   3.068 -0.9225 -0.0120 -3.0634
   58MOL    H24 9258   7.538   3.260   2.970  0.3346 -0.0011 -0.8880
   58MOL    H25 9259   7.692   3.193   3.015  0.7533  1.1851  2.9049
   58MOL    C26 9260   7.597   3.427   2.784 -0.1392 -0.0978  0.4881
   58MOL    C27 9261   7.668   3.556   2.749  0.5461  0.5322  0.0105
   58MOL    C28 9262   7.646   3.675   2.854 -0.0883  0.0177  0.5671
   58MOL    O29 9263   7.561   3.670   2.943 -0.3715 -0.3209 -0.0228
   58MOL    H30 9264   7.503   3.435   2.840 -1.8011 -1.9403 -1.9264
   58MOL    H31 9265   7.573   3.374   2.692  1.6194  1.7326 -1.0438
   58MOL    H32 9266   7.621   3.585   2.655 -0.5456  2.4377  1.0936
   58MOL    H33 9267   7.776   3.554   2.734  0.4164  0.5151 -0.9443
   58MOL    C34 9268   7.727   3.803   2.838 -0.1774 -0.6619  0.1436
   58MOL    C35 9269   7.640   3.929   2.826  0.1619  0.5173 -0.1718
   58MOL    C36 9270   7.576   3.945   2.688 -0.2172 -0.5954  0.7094
   58MOL    O37 9271   7.610   3.877   2.591 -0.2466 -0.4374  0.0551
   58MOL    H38 9272   7.793   3.791   2.752 -0.5617 -0.4576 -0.1794
   58MOL    H39 9273   7.794   3.797   2.923 -0.9133 -0.2520  0.7592
   58MOL    H40 9274   7.691   4.022   2.848  2.2534 -0.5670 -0.3068
   58MOL    H41 9275   7.547   3.928   2.883  0.3874  0.5524  0.1983
   58MOL    C42 9276   7.478   4.064   2.674  0.4191  0.4577 -0.5414
   58MOL    C43 9277   7.423   4.088   2.531  0.3834  0.0022 -0.8574
   58MOL    C44 9278   7.509   4.187   2.455  0.1039  0.2795  0.1159
   58MOL    O45 9279   7.627   4.209   2.491 -0.1892  0.5041 -0.1376
   58MOL    H46 9280   7.536   4.146   2.716 -0.3339 -0.7800  3.0329
   58MOL    H47 9281   7.402   4.025   2.741  0.9488 -0.2357 -0.3426
   58MOL    H48 9282   7.318   4.114   2.524  0.2764  0.7134  2.8003
   58MOL    H49 9283   7.425   4.003   2.463  1.7717 -0.6690 -0.0042
   58MOL    C50 9284   7.444   4.277   2.352  0.0284 -0.2637  0.2538
   58MOL    C51 9285   7.538   4.378   2.289  0.0676 -0.3944 -0.7987
   58MOL    C52 9286   7.583   4.494   2.386  0.3267  1.0593  0.2326
   58MOL    O53 9287   7.499   4.559   2.445 -0.7433 -0.3377 -0.1826
   58MOL    H54 9288   7.376   4.322   2.424 -1.3569 -0.5194 -0.8882
   58MOL    H55 9289   7.399   4.211   2.278  2.6105 -0.5724 -1.1192
   58MOL    H56 9290   7.488   4.409   2.197 -0.5870 -0.7923 -0.5767
   58MOL    H57 9291   7.632   4.327   2.268  0.5385  0.1337 -0.0235
   58MOL    C58 9292   7.725   4.491   2.436 -0.2385  0.3429 -0.6199
   58MOL    C59 9293   7.797   4.624   2.397  1.0677 -0.2053 -0.5404
   58MOL    C60 9294   0.035   4.687   2.498  0.6599 -0.5209  0.8022
   58MOL    O61 9295   0.067   4.633   2.608  0.6155 -0.1946 -0.5210
   58MOL    H62 9296   7.795   4.418   2.397 -1.5076 -0.6517 -1.0657
   58MOL    H63 9297   7.712   4.481   2.544  0.7025  0.9329 -0.4510
   58MOL    H64 9298   7.732   4.710   2.386  1.7646  0.6172  1.5738
   58MOL    H65 9299   7.858   4.606   2.308  4.6231 -2.3693  2.1709
   58MOL    C66 9300   0.115   4.816   2.452 -0.9315 -0.5511 -0.1233
   58MOL    C67 9301   0.260   4.839   2.505 -1.4383  0.3148  0.2067
   58MOL    C68 9302   0.269   4.963   2.589  0.2598 -1.2040 -0.4362
   58MOL    O69 9303   0.244   5.073   2.544 -0.0048  0.4525 -0.2562
   58MOL    H70 9304   0.046   4.898   2.471 -0.5818 -0.3946  0.4887
   58MOL    H71 9305   0.117   4.809   2.343 -0.2546 -0.0156 -0.1463
   58MOL    H72 9306   0.337   4.852   2.429  0.7463  0.0821  2.3258
   58MOL    H73 9307   0.291   4.760   2.573  3.1314  0.5885 -1.3953
   58MOL    C74 9308   0.310   4.952   2.730  0.0964 -0.5180 -0.2028
   58MOL    C75 9309   0.197   4.878   2.811  0.0533 -0.1613  0.1076
   58MOL    C76 9310   0.257   4.756   2.894 -0.6491 -0.3766  0.2770
   58MOL    O77 9311   0.377   4.722   2.903  0.2276 -0.4237  0.0727
   58MOL    H78 9312   0.341   5.035   2.794 -0.8454  0.9588 -1.6419
   58MOL    H79 9313   0.399   4.890   2.722  1.0702  0.7856  0.2749
   58MOL    H80 9314   0.108   4.846   2.756 -0.9881 -1.1275  2.3048
   58MOL    H81 9315   0.155   4.948   2.883 -1.9165 -1.3450  0.1439
   58MOL    C82 9316   0.142   4.667   2.955  0.2202  0.0681  0.7995
   58MOL    C83 9317   0.194   4.538   3.017 -0.2572  0.3461 -0.1687
   58MOL    C84 9318   0.111   4.413   3.016  0.4509 -0.5961  0.0278
   58MOL    O85 9319   0.006   4.412   2.958 -0.1168  0.4235 -0.3563
   58MOL    H86 9320   0.085   4.650   2.864  0.3164 -0.7544  0.8951
   58MOL    H87 9321   0.078   4.727   3.020  0.2577  2.9199 -1.7125
   58MOL    H88 9322   0.217   4.558   3.121  0.7229 -1.2720 -0.0730
   58MOL    H89 9323   0.288   4.510   2.970  0.9862  1.4165  1.6231
   58MOL    C90 9324   0.165   4.291   3.088 -0.5061  0.0960  0.5450
   58MOL    C91 9325   0.050   4.212   3.153 -0.1871  0.0533 -0.0303
   58MOL    C92 9326   0.095   4.067   3.183  0.4667  0.2573 -0.9042
   58MOL    O93 9327   0.205   4.037   3.230  1.0951  0.3160 -0.2144
   58MOL    H94 9328   0.245   4.320   3.156  0.7149  0.8203 -1.1509
   58MOL    H95 9329   0.210   4.230   3.010 -0.6156  0.2923  0.3287
   58MOL    H96 9330   7.826   4.207   3.083  0.6479  1.2284 -1.1287
   58MOL    H97 9331   0.007   4.262   3.240 -2.3763 -0.2703 -0.8830
   58MOL    C98 9332   7.856   3.951   3.151 -0.4514  0.2933 -0.3418
   58MOL    C99 9333   0.006   3.840   3.262 -0.0021  0.3464  0.1719
   58MOL   C100 9334   0.060   3.703   3.215  0.1879  0.8589  0.2745
   58MOL   O101 9335   0.034   3.667   3.093  0.3770 -0.5952 -0.1303
   58MOL   H102 9336   0.017   3.909   3.052  1.6672  0.2389  0.0778
   58MOL   H103 9337   7.755   3.991   3.148 -0.2039  1.1278  1.5979
   58MOL   H104 9338   7.764   3.824   3.298  0.4935  1.9336  2.3937
   58MOL   H105 9339   0.062   3.880   3.347  0.1537  0.2863  0.0966
   58MOL   C106 9340   0.147   3.612   3.303  0.7006 -0.2002  0.1825
   58MOL   C107 9341   0.091   3.472   3.313 -0.0459  1.0194  0.1521
   58MOL   C108 9342   0.174   3.362   3.241 -0.0292 -0.1738 -0.4729
   58MOL   O109 9343   0.284   3.394   3.191  0.1074 -0.7323 -0.4949
   58MOL   H110 9344   0.156   3.650   3.405  2.3721 -1.6970  0.6071
   58MOL   H111 9345   0.244   3.604   3.253  0.5160 -2.7681  0.1634
   58MOL   H112 9346   7.851   3.472   3.266 -0.2019  2.1067  0.4692
   58MOL   H113 9347   0.092   3.455   3.420 -0.0210 -0.9534 -0.1445
   58MOL   C114 9348   0.132   3.218   3.228  0.3489  0.0655 -0.7768
   58MOL   C115 9349   0.208   3.133   3.116 -0.0409  0.2925  0.2315
   58MOL   C116 9350   0.148   2.998   3.096 -0.2799  0.2410 -0.2939
   58MOL   O117 9351   0.027   2.986   3.080 -0.0716  0.5713  0.8128
   58MOL   H118 9352   0.024   3.211   3.214  0.4320 -0.2402 -1.2760
   58MOL   H119 9353   0.148   3.169   3.324 -1.6266  1.6966  0.4238
   58MOL   H120 9354   0.309   3.107   3.149  0.2716  0.4465 -0.5827
   58MOL   H121 9355   0.237   3.190   3.028  1.6039  2.2873  1.9791
   58MOL   C122 9356   0.245   2.881   3.125 -0.0587  0.1697 -0.4159
   58MOL   C123 9357   0.366   2.857   3.030  0.0182 -0.1994 -0.7311
   58MOL   C124 9358   0.365   2.712   2.976  0.6115  0.3644  0.5778
   58MOL   O125 9359   0.326   2.612   3.043 -0.4978  0.0200 -0.2466
   58MOL   H126 9360   0.188   2.790   3.141  0.8253 -0.8587 -2.8244
   58MOL   H127 9361   0.270   2.910   3.227 -2.1217 -1.7570  0.6699
   58MOL   H128 9362   0.465   2.878   3.071  0.4129 -0.3925 -1.5761
   58MOL   H129 9363   0.374   2.925   2.945  3.7670  1.6278  0.9632
   58MOL   C130 9364   0.414   2.687   2.827  0.4572  1.0242  0.0590
   58MOL   C131 9365   0.356   2.565   2.762  0.5773  0.3702 -0.4194
   58MOL   C132 9366   0.343   2.558   2.610  0.1587 -0.1144  0.1207
   58MOL   O133 9367   0.380   2.655   2.539 -0.3317  0.3798  0.4809
   58MOL   H134 9368   0.523   2.687   2.823  0.4726  2.6467  0.0331
   58MOL   H135 9369   0.382   2.773   2.768  1.2633  0.1133 -1.7458
   58MOL   H136 9370   0.256   2.551   2.803  0.8827  1.7521  0.8016
   58MOL   H137 9371   0.406   2.475   2.800 -0.0387 -0.8240 -2.3153
   58MOL   C138 9372   0.278   2.437   2.540  0.1320  0.3414 -0.6006
   58MOL   C139 9373   0.214   2.471   2.400 -0.5164 -0.8094 -0.3269
   58MOL   C140 9374   0.112   2.371   2.355  1.2485  0.6468 -0.1316
   58MOL   O141 9375   0.071   2.271   2.422 -0.0788  0.8576  0.0964
   58MOL   H142 9376   0.203   2.392   2.606  0.5554 -0.1299 -0.4383
   58MOL   H143 9377   0.358   2.365   2.524  2.1656  1.8392  2.4267
   58MOL   H144 9378   0.281   2.467   2.315 -0.7184  0.3029 -0.5489
   58MOL   H145 9379   0.174   2.572   2.408  1.8321  0.1459 -0.1197
   58MOL   C146 9380   0.050   2.398   2.216 -0.1840 -0.0338 -0.1628
   58MOL   C147 9381   0.123   2.295   2.123 -0.1149 -0.4546  0.2823
   58MOL   C148 9382   0.108   2.323   1.973  0.4040 -0.1579 -0.5799
   58MOL   O149 9383   0.026   2.401   1.922  0.4525  0.2379  0.4749
   58MOL   H150 9384   0.064   2.505   2.198  1.4521  0.0244  1.2745
   58MOL   H151 9385   7.804   2.373   2.228 -0.1950  0.7059  1.5367
   58MOL   H152 9386   0.098   2.192   2.149  0.3836 -0.8782 -0.8925
   58MOL   H153 9387   0.229   2.305   2.148  0.1228 -2.2325  0.0324
   58MOL   C154 9388   0.207   2.255   1.879 -0.0877  0.4167 -0.6834
   58MOL   C155 9389   0.211   2.308   1.741  0.4022 -0.0323 -0.5583
   58MOL   C156 9390   0.255   2.205   1.634  0.0224  0.4986  0.1332
   58MOL   O157 9391   0.309   2.105   1.666  0.3374  0.1838 -0.0719
   58MOL   H158 9392   0.174   2.151   1.884  0.0352  0.3038 -2.1632
   58MOL   H159 9393   0.306   2.259   1.924  0.0760  1.6520 -1.1360
   58MOL   H160 9394   0.278   2.394   1.747 -2.3112  2.1291 -0.1227
   58MOL   H161 9395   0.110   2.338   1.711  0.1618 -0.2847  0.0013
   58MOL   H162 9396   0.229   2.227   1.531 -1.0264 -3.7498 -0.6047
   59MOL     C1 9397   7.779   5.903   7.154  0.5571  0.4226  0.7995
   59MOL     C2 9398   7.627   5.921   7.160 -0.4025  0.0975 -0.2195
   59MOL     C3 9399   7.572   6.028   7.067 -0.2114  1.2361  0.0182
   59MOL     O4 9400   7.644   6.088   6.990 -0.1683 -0.2711  0.2233
   59MOL     H5 9401   7.816   5.972   7.078 -1.2132  2.4538  1.7395
   59MOL     H6 9402   7.827   5.922   7.250  1.6444 -0.4916  0.4540
   59MOL     H7 9403   7.616   5.973   7.256 -1.4401  2.1360 -1.4028
   59MOL     H8 9404   7.568   5.830   7.166 -0.0029 -0.1369  0.1599
   59MOL     H9 9405   7.814   5.803   7.128 -0.6996  0.4135 -0.9214
   59MOL    C10 9406   7.421   6.052   7.070  0.6707 -0.3690  0.3790
   59MOL    C11 9407   7.384   6.178   6.997 -0.0202 -0.0254  0.1990
   59MOL    C12 9408   7.240   6.222   7.007 -0.2718  0.4528 -0.4159
   59MOL    O13 9409   7.142   6.147   7.021  0.5740  0.2029 -0.3636
   59MOL    H14 9410   7.391   6.062   7.174  2.0820 -1.7240  0.9304
   59MOL    H15 9411   7.369   5.974   7.015 -2.0948  0.3390  1.9144
   59MOL    H16 9412   7.416   6.146   6.897  0.1990 -0.8191  0.5216
   59MOL    H17 9413   7.450   6.262   7.016  0.5389 -1.0775  3.1867
   59MOL    C18 9414   7.216   6.369   6.977  0.4179 -0.0713  0.1977
   59MOL    C19 9415   7.077   6.433   7.009 -0.1846  0.3319 -0.3881
   59MOL    C20 9416   7.078   6.502   7.151  0.8531  0.1449  0.2931
   59MOL    O21 9417   7.159   6.593   7.175  0.0043  0.6168 -0.0878
   59MOL    H22 9418   7.250   6.381   6.874 -1.3420 -0.2033 -0.4020
   59MOL    H23 9419   7.296   6.422   7.030 -0.6949  2.8230 -0.9403
   59MOL    H24 9420   7.005   6.353   7.030 -1.5900  1.6374 -0.1859
   59MOL    H25 9421   7.034   6.497   6.932 -0.0005 -0.8510 -1.4915
   59MOL    C26 9422   6.985   6.469   7.264  0.6241  0.3642  0.0664
   59MOL    C27 9423   6.980   6.571   7.377  0.5301 -0.0007 -0.2719
   59MOL    C28 9424   6.839   6.591   7.437  0.4292 -0.4814  0.2038
   59MOL    O29 9425   6.755   6.504   7.411  0.2718  0.0633 -0.2474
   59MOL    H30 9426   7.013   6.374   7.308 -0.5970  0.2429  0.6002
   59MOL    H31 9427   6.890   6.460   7.210  2.0925 -1.5574 -2.3278
   59MOL    H32 9428   7.023   6.668   7.349  0.4175  0.5508  1.4153
   59MOL    H33 9429   7.043   6.531   7.456  0.9020  2.2864  0.6212
   59MOL    C34 9430   6.816   6.720   7.514 -0.5148  0.0556  0.1367
   59MOL    C35 9431   6.677   6.780   7.467  0.0349  0.5275  0.6270
   59MOL    C36 9432   6.569   6.794   7.573  0.0275  0.0439  0.1858
   59MOL    O37 9433   6.546   6.703   7.649  0.5660 -0.1955 -0.0571
   59MOL    H38 9434   6.895   6.794   7.503  0.2496 -1.1775 -2.9995
   59MOL    H39 9435   6.826   6.696   7.620 -1.2704  0.8734  0.3958
   59MOL    H40 9436   6.642   6.735   7.374  1.1102 -0.8678  0.8821
   59MOL    H41 9437   6.713   6.879   7.440  1.2881  0.1333  0.7908
   59MOL    C42 9438   6.489   6.923   7.564 -0.2856  0.5703  0.2750
   59MOL    C43 9439   6.406   6.967   7.685 -0.0318  0.1168 -0.4447
   59MOL    C44 9440   6.381   7.118   7.678  0.5840 -0.6883  0.6727
   59MOL    O45 9441   6.464   7.202   7.650  0.0276 -0.2229  0.5426
   59MOL    H46 9442   6.427   6.920   7.474 -2.0775  1.0196  1.4588
   59MOL    H47 9443   6.563   7.003   7.561 -1.4034  1.5704 -4.2893
   59MOL    H48 9444   6.458   6.953   7.780  1.6804  0.3083 -1.3544
   59MOL    H49 9445   6.314   6.909   7.680  1.5437 -2.3718 -1.5600
   59MOL    C50 9446   6.246   7.169   7.734  0.3364 -0.7112  0.3353
   59MOL    C51 9447   6.252   7.185   0.023  0.5050  0.3495  0.3695
   59MOL    C52 9448   6.104   7.188   0.083 -0.3196 -0.6275 -0.6022
   59MOL    O53 9449   6.007   7.228   0.013  0.8231 -0.1112  0.0509
   59MOL    H54 9450   6.168   7.102   7.698 -2.7744  1.6534  2.3679
   59MOL    H55 9451   6.210   7.259   7.685  3.6624  1.1271  1.1138
   59MOL    H56 9452   6.292   7.287   0.032 -0.0188  0.6316 -0.4973
   59MOL    H57 9453   6.317   7.111   0.071  1.2029  0.0983 -0.9422
   59MOL    C58 9454   6.085   7.151   0.234  0.5270  0.1219  0.4625
   59MOL    C59 9455   6.126   7.259   0.326  0.3034  0.0013 -0.5805
   59MOL    C60 9456   6.111   7.216   0.478 -0.4027  1.0245  0.2214
   59MOL    O61 9457   6.122   7.098   0.514  0.1656  0.3517 -0.0014
   59MOL    H62 9458   6.126   7.052   0.254 -0.0729  0.1179  1.7130
   59MOL    H63 9459   5.982   7.131   0.260  0.9197 -1.1151  1.0891
   59MOL    H64 9460   6.059   7.344   0.315  1.0686  0.4727 -1.6597
   59MOL    H65 9461   6.229   7.290   0.308  0.1529 -0.4109 -2.1876
   59MOL    C66 9462   6.091   7.337   0.578 -0.7735 -0.7112  0.1320
   59MOL    C67 9463   6.165   7.303   0.712 -0.0412 -0.6758 -0.7103
   59MOL    C68 9464   6.305   7.366   0.719  0.1321  0.4292 -0.4484
   59MOL    O69 9465   6.381   7.373   0.621 -0.0644 -0.5660  0.5601
   59MOL    H70 9466   5.985   7.352   0.598 -1.6321 -1.6957 -3.3452
   59MOL    H71 9467   6.120   7.435   0.538  2.1071 -1.6772 -0.2597
   59MOL    H72 9468   6.170   7.196   0.731 -2.1551 -0.2712  2.4348
   59MOL    H73 9469   6.098   7.352   0.782  1.8810  2.4238 -0.9453
   59MOL    C74 9470   6.341   7.431   0.850  0.3609 -0.9449  0.0256
   59MOL    C75 9471   6.272   7.564   0.872 -0.0970 -0.4161 -0.0097
   59MOL    C76 9472   6.366   7.671   0.941 -0.2957  0.3511  0.2172
   59MOL    O77 9473   6.419   7.752   0.868 -0.5312 -0.2624 -0.1560
   59MOL    H78 9474   6.448   7.438   0.869  0.3093  0.2857 -0.0952
   59MOL    H79 9475   6.320   7.363   0.932  0.8414 -0.5088  0.5068
   59MOL    H80 9476   6.168   7.563   0.902  0.0532  0.2494  0.5563
   59MOL    H81 9477   6.261   7.600   0.769 -1.0790 -0.0723  0.2120
   59MOL    C82 9478   6.343   7.678   1.091 -0.2128  0.3168  0.0562
   59MOL    C83 9479   6.314   7.827   1.133 -0.3688  0.6675  0.2156
   59MOL    C84 9480   6.364   0.007   1.268  0.7654  0.1553 -0.3342
   59MOL    O85 9481   6.441   7.791   1.324 -0.5927 -0.4451 -0.2460
   59MOL    H86 9482   6.439   7.632   1.116 -1.5019 -1.8409  1.1407
   59MOL    H87 9483   6.265   7.610   1.123 -1.3607  0.7712 -1.7273
   59MOL    H88 9484   6.210   0.000   1.131 -0.8898 -1.0683 -1.5709
   59MOL    H89 9485   6.357   0.039   1.062  0.9408  3.0565  3.3098
   59MOL    C90 9486   6.310   0.127   1.337 -0.1355  0.5707  0.4110
   59MOL    C91 9487   6.356   0.128   1.485  0.0268 -0.2729  0.3199
   59MOL    C92 9488   6.237   0.127   1.576  0.3609 -0.1073  0.3958
   59MOL    O93 9489   6.206   0.016   1.624  0.4907 -0.2651 -0.6931
   59MOL    H94 9490   6.204   0.114   1.318  0.2019 -0.8404 -0.5400
   59MOL    H95 9491   6.350   0.212   1.281 -0.0449  0.7027  0.6724
   59MOL    H96 9492   6.403   0.225   1.495 -0.5638 -0.0214  0.6580
   59MOL    H97 9493   6.435   0.056   1.509  0.1546  0.3897  1.8816
   59MOL    C98 9494   6.150   0.254   1.589 -0.6551 -0.0261  0.3616
   59MOL    C99 9495   6.017   0.236   1.660 -0.4047  0.2663 -0.0533
   59MOL   C100 9496   5.907   0.190   1.573  0.3527 -0.4663 -0.0984
   59MOL   O101 9497   5.924   0.178   1.452  0.0810 -0.0525 -0.3080
   59MOL   H102 9498   6.131   0.284   1.485  0.9702  1.5169  0.4945
   59MOL   H103 9499   6.200   0.332   1.646  1.3428  0.1702 -1.6015
   59MOL   H104 9500   5.970   0.330   1.688 -1.0565 -0.3080  0.8079
   59MOL   H105 9501   6.015   0.180   1.753 -0.5599  0.3373 -0.0142
   59MOL   C106 9502   5.772   0.148   1.636 -0.5417 -0.4810 -0.3687
   59MOL   C107 9503   5.770   7.856   1.667 -1.0023  0.4885 -0.4237
   59MOL   C108 9504   5.674   7.812   1.779 -0.1335  0.4120  0.8045
   59MOL   O109 9505   5.617   0.041   1.848 -0.2798 -0.1370 -0.0630
   59MOL   H110 9506   5.684   0.173   1.578 -0.0084  1.3467 -0.4102
   59MOL   H111 9507   5.763   0.204   1.730 -1.0751  2.2145 -1.9788
   59MOL   H112 9508   5.865   7.821   1.709 -0.6411  1.3432 -0.5290
   59MOL   H113 9509   5.746   7.806   1.573 -0.7681  2.1913 -1.3994
   59MOL   C114 9510   5.661   7.661   1.793  0.1471 -0.1938  0.2483
   59MOL   C115 9511   5.572   7.617   1.909 -0.0231  0.1394  0.3039
   59MOL   C116 9512   5.577   7.472   1.953  0.4762 -0.0582  0.7563
   59MOL   O117 9513   5.647   7.392   1.894  0.2672 -0.1008  0.6460
   59MOL   H118 9514   5.759   7.622   1.821 -0.0630  0.4377  1.9549
   59MOL   H119 9515   5.634   7.636   1.690 -0.8549 -0.4705  0.5694
   59MOL   H120 9516   5.470   7.648   1.886 -0.7423 -2.3726 -0.0275
   59MOL   H121 9517   5.589   7.686   1.992  1.0338 -0.3318  0.4796
   59MOL   C122 9518   5.491   7.436   2.078  0.6426 -0.3010 -0.1968
   59MOL   C123 9519   5.529   7.302   2.139 -0.1185 -0.6463  0.8152
   59MOL   C124 9520   5.662   7.306   2.223 -0.0353  0.2639  0.4327
   59MOL   O125 9521   5.755   7.382   2.201 -0.0811 -0.1106 -0.0368
   59MOL   H126 9522   5.385   7.454   2.060  0.5238 -0.5088  0.2861
   59MOL   H127 9523   5.508   7.518   2.148 -0.6948 -0.3011  0.1336
   59MOL   H128 9524   5.534   7.221   2.066  0.8959 -0.9608  1.2253
   59MOL   H129 9525   5.454   7.281   2.215  1.4247  0.4288  2.6875
   59MOL   C130 9526   5.678   7.192   2.326  0.5637 -0.0461 -0.1124
   59MOL   C131 9527   5.800   7.208   2.426 -0.6849 -0.5612  0.4405
   59MOL   C132 9528   5.758   7.217   2.566 -0.2233  0.1914  0.0602
   59MOL   O133 9529   5.646   7.252   2.597 -0.1670 -0.1873  0.2661
   59MOL   H134 9530   5.713   7.120   2.253  1.2310 -0.2863  0.4373
   59MOL   H135 9531   5.581   7.164   2.369 -1.3117  3.9374 -1.5364
   59MOL   H136 9532   5.865   7.291   2.400  0.9326 -2.3026 -1.2881
   59MOL   H137 9533   5.865   7.122   2.410 -0.8269 -1.0216  2.3165
   59MOL   C138 9534   5.858   7.187   2.676  0.1042  0.1470  0.3904
   59MOL   C139 9535   5.795   7.159   2.812  0.3213  0.0599 -0.1392
   59MOL   C140 9536   5.891   7.178   2.923 -0.7258  0.4353 -0.2631
   59MOL   O141 9537   5.989   7.250   2.913 -0.4860  0.3092  0.0574
   59MOL   H142 9538   5.929   7.270   2.675 -1.8932  1.9192 -2.6958
   59MOL   H143 9539   5.919   7.100   2.653 -1.3771 -0.4710 -1.2953
   59MOL   H144 9540   5.758   7.057   2.823 -0.0440  0.4237  2.2330
   59MOL   H145 9541   5.710   7.225   2.828  0.1882 -0.2925  0.6245
   59MOL   C146 9542   5.868   7.100   3.055 -0.1491 -0.2430  0.5113
   59MOL   C147 9543   5.990   7.076   3.146  0.6516  0.4550 -0.4511
   59MOL   C148 9544   6.089   6.971   3.109  0.1772  0.3582  0.1109
   59MOL   O149 9545   6.079   6.917   2.996  0.4871 -0.0353  0.8020
   59MOL   H150 9546   5.822   7.004   3.033 -1.1587  0.3271  0.1485
   59MOL   H151 9547   5.795   7.151   3.119 -2.1357 -0.2661 -1.6915
   59MOL   H152 9548   5.946   7.033   3.236  2.9132  0.8133  0.8681
   59MOL   H153 9549   6.045   7.167   3.171  1.4331 -0.4172  1.0581
   59MOL   C154 9550   6.187   6.934   3.208 -0.5862 -0.3677 -0.1169
   59MOL   C155 9551   6.315   6.879   3.156  0.1813  0.0352  0.0739
   59MOL   C156 9552   6.408   6.837   3.272  0.7383  0.2148  0.8892
   59MOL   O157 9553   6.373   6.740   3.343  0.1045 -0.7990  0.4272
   59MOL   H158 9554   6.136   6.865   3.276  0.4034 -1.7889 -0.7822
   59MOL   H159 9555   6.197   7.032   3.254  0.5316  0.9440 -3.0144
   59MOL   H160 9556   6.355   6.963   3.098  0.0933 -0.8793 -1.3329
   59MOL   H161 9557   6.297   6.795   3.090 -3.3054 -0.1483  1.1295
   59MOL   H162 9558   6.490   6.903   3.299  0.7119 -0.5580  2.9033
   60MOL     C1 9559   2.016   6.273   4.604  0.0466  0.9196 -0.0008
   60MOL     C2 9560   2.167   6.292   4.613  0.0744  0.2504  1.0041
   60MOL     C3 9561   2.204   6.440   4.614 -0.8940  0.6509 -0.1687
   60MOL     O4 9562   2.124   6.526   4.612 -0.1893 -0.2117 -0.3197
   60MOL     H5 9563   1.966   6.314   4.692 -0.1967  1.4719 -0.3957
   60MOL     H6 9564   1.975   6.321   4.515 -0.0323  1.3441  0.2667
   60MOL     H7 9565   2.213   6.246   4.525 -0.9303  1.8066 -0.3441
   60MOL     H8 9566   2.207   6.233   4.695  1.6596 -1.5953 -1.0059
   60MOL     H9 9567   1.992   6.166   4.597  2.3246  0.4203 -0.4018
   60MOL    C10 9568   2.354   6.472   4.608 -0.8502 -0.1836 -0.5382
   60MOL    C11 9569   2.398   6.615   4.633  0.4168  0.0225  0.1256
   60MOL    C12 9570   2.537   6.630   4.682 -1.0559 -0.3159 -0.0954
   60MOL    O13 9571   2.620   6.547   4.652 -0.0942 -0.0475 -0.8928
   60MOL    H14 9572   2.375   6.453   4.503  0.2710 -1.9836  0.0090
   60MOL    H15 9573   2.422   6.402   4.655  1.2925  0.2690 -2.8538
   60MOL    H16 9574   2.330   6.649   4.711 -0.0134  1.0030 -0.6727
   60MOL    H17 9575   2.387   6.677   4.544 -0.9039 -1.0822 -0.4983
   60MOL    C18 9576   2.567   6.741   4.783  0.2560  0.1693  0.2086
   60MOL    C19 9577   2.699   6.738   4.851 -0.1405 -0.1750  0.2615
   60MOL    C20 9578   2.697   6.686   4.996  0.0415  0.7989 -0.0090
   60MOL    O21 9579   2.595   6.652   5.048  0.5813 -0.4604  0.1360
   60MOL    H22 9580   2.482   6.748   4.851 -1.3013 -0.6667 -1.6026
   60MOL    H23 9581   2.561   6.839   4.735  1.2900  0.6213  1.0016
   60MOL    H24 9582   2.742   6.835   4.873 -0.3060 -0.1411  0.4378
   60MOL    H25 9583   2.779   6.681   4.804 -0.4214 -0.4567  0.1214
   60MOL    C26 9584   2.829   6.664   5.077  0.4769  0.9760  0.0124
   60MOL    C27 9585   2.869   6.799   5.124  0.3796  0.0153  0.3820
   60MOL    C28 9586   3.015   6.830   5.128 -0.3081 -0.2485  0.3966
   60MOL    O29 9587   3.101   6.786   5.054 -0.0433 -0.0892 -0.3052
   60MOL    H30 9588   2.914   6.628   5.018  1.1956  1.4408  0.7551
   60MOL    H31 9589   2.810   6.599   5.163  1.3974 -0.7162 -1.0176
   60MOL    H32 9590   2.811   6.808   5.216 -2.3707 -1.9001 -1.1133
   60MOL    H33 9591   2.833   6.884   5.067 -2.2540  0.0937  2.0858
   60MOL    C34 9592   3.054   6.936   5.240 -0.0126 -0.3214  0.4070
   60MOL    C35 9593   3.198   6.991   5.230  0.0323 -0.2458  0.4696
   60MOL    C36 9594   3.196   7.121   5.155 -0.6432  0.3143 -0.3077
   60MOL    O37 9595   3.116   7.211   5.186 -0.5072  0.0512  0.1704
   60MOL    H38 9596   3.047   6.890   5.338  0.2668  0.6819  0.9009
   60MOL    H39 9597   2.966   7.000   5.247  0.0025 -0.3706  1.0822
   60MOL    H40 9598   3.269   6.924   5.182  0.0571 -0.3034  0.5886
   60MOL    H41 9599   3.238   7.013   5.329  0.6698  0.6048  0.0325
   60MOL    C42 9600   3.296   7.138   5.042 -0.8293  0.0494 -0.2110
   60MOL    C43 9601   3.259   7.246   4.942 -0.5114  0.2260 -0.3105
   60MOL    C44 9602   3.357   7.356   4.914 -0.3732  0.0421 -1.4304
   60MOL    O45 9603   3.460   7.372   4.980 -0.1060 -0.0526 -0.2286
   60MOL    H46 9604   3.295   7.047   4.982  1.1713 -1.0202  1.3269
   60MOL    H47 9605   3.397   7.146   5.081 -0.5523  0.1762 -0.9599
   60MOL    H48 9606   3.166   7.300   4.957 -0.5082  1.1650 -3.3108
   60MOL    H49 9607   3.245   7.202   4.843 -1.8788  2.6122 -1.2409
   60MOL    C50 9608   3.310   7.456   4.810  0.1354 -0.4185 -0.0419
   60MOL    C51 9609   3.394   7.435   4.679 -0.4087 -0.5319 -0.6502
   60MOL    C52 9610   3.404   7.560   4.589 -0.0289 -0.1544 -0.2911
   60MOL    O53 9611   3.326   7.659   4.600  0.3692  0.6665 -0.1901
   60MOL    H54 9612   3.339   7.553   4.849 -2.5501  0.8678 -1.1073
   60MOL    H55 9613   3.204   7.448   4.786  0.0399 -0.8703  0.5320
   60MOL    H56 9614   3.349   7.351   4.625 -1.6652 -0.0872 -0.3205
   60MOL    H57 9615   3.494   7.416   4.717 -0.4486  1.1689  0.3263
   60MOL    C58 9616   3.522   7.555   4.492  0.4322  0.4098  0.5008
   60MOL    C59 9617   3.482   7.617   4.363 -0.1529 -0.6405  0.3629
   60MOL    C60 9618   3.539   7.547   4.240  0.7116  0.2752  0.3916
   60MOL    O61 9619   3.653   7.504   4.229  0.2118  0.6524  0.5902
   60MOL    H62 9620   3.553   7.453   4.468  3.0694  1.0197  1.1271
   60MOL    H63 9621   3.613   7.604   4.527 -0.1057  0.9025  1.1946
   60MOL    H64 9622   3.520   7.719   4.366  0.6781 -0.6968 -4.4519
   60MOL    H65 9623   3.374   7.614   4.350 -0.1456 -3.2464  0.5982
   60MOL    C66 9624   3.449   7.543   4.115  0.2064  0.3525 -0.0985
   60MOL    C67 9625   3.512   7.461   3.995  0.4058 -0.1839 -0.2204
   60MOL    C68 9626   3.578   7.555   3.893 -0.2242  0.5393  0.4550
   60MOL    O69 9627   3.579   7.678   3.907  0.1890 -0.3220 -0.0531
   60MOL    H70 9628   3.420   7.642   4.083  1.3905  0.4047 -1.0439
   60MOL    H71 9629   3.361   7.486   4.146  1.5511 -0.7657  1.7857
   60MOL    H72 9630   3.448   7.386   3.949  0.1988 -2.2429  3.2553
   60MOL    H73 9631   3.586   7.390   4.031 -2.3750 -2.3446  1.4590
   60MOL    C74 9632   3.616   7.498   3.761 -0.2254  0.4431 -1.0722
   60MOL    C75 9633   3.583   7.595   3.645 -0.9826  0.3423  0.4228
   60MOL    C76 9634   3.537   7.516   3.524 -0.1843 -0.3325  0.7820
   60MOL    O77 9635   3.565   7.396   3.506 -0.7072 -0.1400 -0.0039
   60MOL    H78 9636   3.570   7.399   3.754 -1.0441  0.8495 -1.6040
   60MOL    H79 9637   3.722   7.493   3.785 -0.4889  1.5742  0.4185
   60MOL    H80 9638   3.663   7.667   3.627 -0.3451  0.1669  2.4691
   60MOL    H81 9639   3.505   7.662   3.680 -1.5821 -0.6373  0.9974
   60MOL    C82 9640   3.461   7.577   3.404 -0.0546 -0.6192  0.3790
   60MOL    C83 9641   3.527   7.715   3.368 -0.3003  0.1480  0.2912
   60MOL    C84 9642   3.502   7.759   3.224  0.4225  0.4083  0.1848
   60MOL    O85 9643   3.401   7.718   3.168  0.5480  0.0880  0.2573
   60MOL    H86 9644   3.353   7.572   3.416  0.1567  0.6294  3.0416
   60MOL    H87 9645   3.486   7.514   3.318 -1.4477  0.5132 -0.8805
   60MOL    H88 9646   3.635   7.712   3.382 -0.1987  2.9434  0.4873
   60MOL    H89 9647   3.486   7.790   3.437 -1.2180 -0.8225  0.8168
   60MOL    C90 9648   3.602   7.847   3.151  0.1483  0.7095 -0.4044
   60MOL    C91 9649   3.734   7.765   3.139  0.4754  0.1500  0.2707
   60MOL    C92 9650   3.835   7.838   3.053 -0.1657 -0.2898  0.2518
   60MOL    O93 9651   3.796   0.035   2.951 -0.8074  0.6446  0.6089
   60MOL    H94 9652   3.618   0.080   3.208  0.4801  0.8047 -0.6508
   60MOL    H95 9653   3.578   0.027   3.052 -0.2256  1.0115 -0.1956
   60MOL    H96 9654   3.717   7.661   3.112 -0.0386 -0.6131  3.2874
   60MOL    H97 9655   3.773   7.754   3.241 -2.8848  1.3249  1.7676
   60MOL    C98 9656   3.982   7.852   3.104  0.3408  0.2531  0.0441
   60MOL    C99 9657   4.049   0.124   3.052 -0.1153  0.8821  0.9745
   60MOL   C100 9658   4.078   0.217   3.163  0.0406 -0.2197  0.1347
   60MOL   O101 9659   4.194   0.226   3.196  0.0390  0.5596  0.3428
   60MOL   H102 9660   4.034   7.762   3.072 -1.7252 -1.1063  0.4348
   60MOL   H103 9661   3.980   7.844   3.213  2.6931 -0.3872  0.0680
   60MOL   H104 9662   3.989   0.165   2.971  0.1139  0.2741  0.4916
   60MOL   H105 9663   4.143   0.101   3.002 -0.2009  1.1221  0.7027
   60MOL   C106 9664   3.974   0.276   3.251  0.1991 -0.1034  0.0649
   60MOL   C107 9665   4.015   0.275   3.407 -0.3052 -0.1135 -0.4055
   60MOL   C108 9666   3.944   0.166   3.487  0.0149 -0.2861  0.0203
   60MOL   O109 9667   3.944   0.050   3.445  0.3536 -0.1178 -0.5771
   60MOL   H110 9668   3.885   0.213   3.241 -0.5381  0.6057  1.9057
   60MOL   H111 9669   3.954   0.379   3.221  1.2381 -0.3228 -1.4405
   60MOL   H112 9670   4.009   0.371   3.459  0.3247 -1.0478  1.4297
   60MOL   H113 9671   4.121   0.251   3.414 -0.3948 -0.5434 -0.5407
   60MOL   C114 9672   3.879   0.198   3.621 -0.1293 -0.7594  0.5274
   60MOL   C115 9673   3.845   0.073   3.707  0.5267  0.0594 -0.0507
   60MOL   C116 9674   3.811   0.110   3.848 -0.1401  0.0215 -0.0169
   60MOL   O117 9675   3.744   0.216   3.873 -0.2516 -0.3395  0.6233
   60MOL   H118 9676   3.798   0.270   3.618  1.2482  0.7534 -2.9633
   60MOL   H119 9677   3.951   0.259   3.674  1.1803 -1.5971 -0.2336
   60MOL   H120 9678   3.919   7.854   3.692 -2.2273 -2.3060 -2.1292
   60MOL   H121 9679   3.746   0.043   3.670  0.4143 -0.7425  0.8630
   60MOL   C122 9680   3.862   0.011   3.958  0.0520  0.2524 -0.5827
   60MOL   C123 9681   3.802   0.038   4.092 -0.7510 -0.2063 -1.3216
   60MOL   C124 9682   3.851   7.808   4.205 -0.7083 -0.3863 -0.6588
   60MOL   O125 9683   3.942   7.730   4.188 -0.3532 -0.1403 -0.0322
   60MOL   H126 9684   3.969   0.032   3.952  0.3667 -0.4092  1.9223
   60MOL   H127 9685   3.827   7.773   3.924 -0.5872  0.2824 -0.0283
   60MOL   H128 9686   3.695   0.024   4.077 -0.8266  1.6155 -2.6399
   60MOL   H129 9687   3.818   0.144   4.111 -0.7134 -0.9010  2.8630
   60MOL   C130 9688   3.785   7.821   4.337 -0.0571 -0.5115 -0.0242
   60MOL   C131 9689   3.833   0.086   4.412 -0.3973 -0.0325 -0.1960
   60MOL   C132 9690   3.868   0.054   4.556  0.1247 -0.2475 -0.3875
   60MOL   O133 9691   3.813   7.820   4.608  0.3370 -0.0396 -0.2338
   60MOL   H134 9692   3.808   7.731   4.394 -0.3760  0.7415  2.1532
   60MOL   H135 9693   3.676   7.822   4.328  0.0097  1.4813 -0.8078
   60MOL   H136 9694   3.745   0.149   4.425 -1.2481 -1.4094  0.9129
   60MOL   H137 9695   3.901   0.155   4.361 -1.5763  1.1872 -0.1462
   60MOL   C138 9696   3.964   0.146   4.628 -0.3635 -0.0013  0.1823
   60MOL   C139 9697   3.989   0.114   4.776 -0.5248 -0.0551 -0.5290
   60MOL   C140 9698   4.111   0.176   4.833  0.3768  0.1684  0.2634
   60MOL   O141 9699   4.157   0.279   4.776 -0.7346  0.2389  0.2069
   60MOL   H142 9700   3.928   0.249   4.621 -1.3263 -0.3417  0.0406
   60MOL   H143 9701   4.058   0.151   4.574 -0.7146  0.8762 -0.3658
   60MOL   H144 9702   4.007   0.006   4.777 -0.3534 -0.0337  1.0903
   60MOL   H145 9703   3.913   0.127   4.853 -0.5468  1.6356 -0.8190
   60MOL   C146 9704   4.177   0.110   4.951  0.1027 -0.0862  0.1537
   60MOL   C147 9705   4.325   0.153   4.966 -0.6988  0.2428 -0.1313
   60MOL   C148 9706   4.347   0.236   5.097 -0.9591  0.4122  0.3167
   60MOL   O149 9707   4.310   0.197   5.205 -0.0881  0.0147  0.1540
   60MOL   H150 9708   4.184   0.006   4.919  2.5430 -1.3348  4.3697
   60MOL   H151 9709   4.112   0.100   5.038 -0.5887  0.8793 -0.2292
   60MOL   H152 9710   4.363   0.200   4.876 -1.3355  1.4283  0.2107
   60MOL   H153 9711   4.379   0.059   4.983 -1.2457 -0.4683 -2.2708
   60MOL   C154 9712   4.425   0.371   5.090 -0.2402  0.1416 -0.4008
   60MOL   C155 9713   4.574   0.344   5.103 -0.3277  0.2569 -0.3627
   60MOL   C156 9714   4.631   0.317   5.247  0.1095  0.1199 -0.0808
   60MOL   O157 9715   4.621   0.406   5.327  0.1877  0.0112  0.7232
   60MOL   H158 9716   4.396   0.423   5.181 -1.2438 -0.1126 -0.5744
   60MOL   H159 9717   4.388   0.418   4.999 -1.1113  2.5206  1.1337
   60MOL   H160 9718   4.631   0.428   5.064  0.4342 -0.3630 -0.5920
   60MOL   H161 9719   4.605   0.262   5.038 -0.5069 -0.3118  0.2508
   60MOL   H162 9720   4.656   0.212   5.265  0.8392  0.4544  0.9285
   61MOL     C1 9721   1.990   0.659   6.064  0.0233  0.2508 -0.4054
   61MOL     C2 9722   1.889   0.556   6.109  0.6034 -0.1130  0.2563
   61MOL     C3 9723   1.910   0.518   6.260 -0.2106  0.0340  0.4043
   61MOL     O4 9724   1.974   0.588   6.335 -0.4096 -0.0268  0.0363
   61MOL     H5 9725   1.997   0.742   6.135 -1.2482  0.9601 -1.1019
   61MOL     H6 9726   2.086   0.608   6.073 -1.3631 -2.1448  1.5712
   61MOL     H7 9727   1.896   0.463   6.052 -1.2219  0.7282 -1.4098
   61MOL     H8 9728   1.787   0.593   6.098  0.1494 -1.6701 -1.0540
   61MOL     H9 9729   1.977   0.687   5.960 -0.8170  0.0080 -0.3675
   61MOL    C10 9730   1.870   0.375   6.300 -0.0614 -0.5568 -0.3059
   61MOL    C11 9731   1.901   0.346   6.451  0.0601 -0.6612 -0.6858
   61MOL    C12 9732   1.881   0.201   6.494  0.5225  0.3382 -0.0825
   61MOL    O13 9733   1.918   0.102   6.426 -0.3994 -0.5203  0.4733
   61MOL    H14 9734   1.920   0.301   6.237  1.0630 -0.1121  0.0686
   61MOL    H15 9735   1.763   0.373   6.279 -0.3201  0.0329  0.8735
   61MOL    H16 9736   1.843   0.413   6.515 -0.3218  0.7353 -2.4730
   61MOL    H17 9737   2.004   0.372   6.473 -0.1399 -1.6354  1.5674
   61MOL    C18 9738   1.801   0.182   6.618  0.5865  0.3188 -0.9168
   61MOL    C19 9739   1.833   0.052   6.692  0.4954 -0.0038 -0.8809
   61MOL    C20 9740   1.828   0.067   6.839 -0.0042  0.0262  0.0185
   61MOL    O21 9741   1.783   0.172   6.894 -0.4353  0.1324  0.2846
   61MOL    H22 9742   1.693   0.188   6.603  0.5715  3.5047  0.1779
   61MOL    H23 9743   1.819   0.265   6.685  1.7667  1.3346 -2.4566
   61MOL    H24 9744   1.939   0.040   6.672  0.4778 -1.2914 -0.2674
   61MOL    H25 9745   1.785   7.822   6.650  0.6717 -0.6470  0.2581
   61MOL    C26 9746   1.886   7.808   6.917 -0.4595 -0.8286  0.1691
   61MOL    C27 9747   1.935   7.832   7.062  0.0378  1.0288 -0.4609
   61MOL    C28 9748   1.841   7.773   7.163  0.4389 -0.7828  0.7190
   61MOL    O29 9749   1.785   7.663   7.157  0.3753  0.4954 -0.2173
   61MOL    H30 9750   1.980   7.785   6.865  0.2080 -0.3161  1.1475
   61MOL    H31 9751   1.810   7.729   6.920 -0.6327 -0.6394  0.6764
   61MOL    H32 9752   1.966   0.076   7.075  1.1548  0.5378  0.8149
   61MOL    H33 9753   2.025   7.773   7.079  0.7738  2.5434  1.0102
   61MOL    C34 9754   1.812   7.859   7.283 -0.5181  0.6398 -0.2551
   61MOL    C35 9755   1.732   0.132   7.245  0.1339 -0.3409  0.3039
   61MOL    C36 9756   1.609   0.155   7.333 -0.3899  0.1179  0.8043
   61MOL    O37 9757   1.498   0.121   7.294 -0.0871  0.5334  0.3680
   61MOL    H38 9758   1.906   0.033   7.325  0.1372  0.7342 -1.7738
   61MOL    H39 9759   1.763   7.797   7.359  0.9411 -0.3808 -0.1321
   61MOL    H40 9760   1.696   0.137   7.142 -0.9101  1.8722  0.7592
   61MOL    H41 9761   1.786   0.221   7.276  0.7611 -1.0252  1.1847
   61MOL    C42 9762   1.631   0.194   7.478  0.0548 -0.0393  0.0812
   61MOL    C43 9763   1.510   0.217   7.559  0.1137 -0.4124 -0.1802
   61MOL    C44 9764   1.519   0.305   7.678 -0.0153  0.3058 -0.2290
   61MOL    O45 9765   1.598   0.395   7.692  0.6379  0.2070  0.1165
   61MOL    H46 9766   1.699   0.279   7.489 -1.0943  0.7572  1.3102
   61MOL    H47 9767   1.687   0.115   7.528  1.2686 -0.7765 -2.4115
   61MOL    H48 9768   1.458   0.124   7.581  0.6228 -0.6082  0.2092
   61MOL    H49 9769   1.445   0.266   7.486 -0.5224 -0.6502  0.2246
   61MOL    C50 9770   1.420   0.279   7.795  0.6937  0.0540 -1.0243
   61MOL    C51 9771   1.469   0.342   0.064 -0.7032 -0.2709  0.3533
   61MOL    C52 9772   1.381   0.308   0.186 -0.3756 -0.1412  0.1337
   61MOL    O53 9773   1.287   0.382   0.211 -0.2532 -1.1638 -0.2237
   61MOL    H54 9774   1.422   0.172   7.813  0.4329  0.1732 -0.2776
   61MOL    H55 9775   1.323   0.319   7.765 -0.5891 -0.6547  2.0148
   61MOL    H56 9776   1.457   0.450   0.049 -0.6038 -0.1217  1.3050
   61MOL    H57 9777   1.576   0.334   0.081 -0.6133 -0.8559 -0.4728
   61MOL    C58 9778   1.416   0.186   0.275 -0.6201  0.3788 -0.0025
   61MOL    C59 9779   1.377   0.204   0.423 -0.1311  0.0711 -0.4031
   61MOL    C60 9780   1.398   0.071   0.498  0.3616 -0.3860 -0.7922
   61MOL    O61 9781   1.339   7.830   0.459 -0.2052  0.0588 -0.0646
   61MOL    H62 9782   1.518   0.147   0.273 -0.9824 -0.5893  0.1047
   61MOL    H63 9783   1.366   0.101   0.229 -1.4673 -0.5737  2.5815
   61MOL    H64 9784   1.273   0.235   0.430 -1.0697 -2.8453 -1.0219
   61MOL    H65 9785   1.437   0.282   0.469 -1.6807  0.1485  1.5338
   61MOL    C66 9786   1.490   0.076   0.624  0.7845 -0.0380  0.2377
   61MOL    C67 9787   1.466   7.805   0.709  1.2272 -0.1508 -0.1179
   61MOL    C68 9788   1.544   7.813   0.846 -0.0065 -0.1590 -0.0587
   61MOL    O69 9789   1.581   0.066   0.901  0.2486  0.0498 -0.1774
   61MOL    H70 9790   1.459   0.162   0.682  0.1467 -0.1057  0.0063
   61MOL    H71 9791   1.597   0.092   0.609  1.2078 -2.4821  0.4004
   61MOL    H72 9792   1.488   7.711   0.657 -0.4309 -0.7285  0.1683
   61MOL    H73 9793   1.362   7.786   0.737  1.6905 -1.1998  0.9145
   61MOL    C74 9794   1.578   7.684   0.915 -0.3790  0.4909 -0.1706
   61MOL    C75 9795   1.600   7.691   1.068  0.3375  0.3841  0.3498
   61MOL    C76 9796   1.518   7.589   1.153  0.6355  0.3181  0.8100
   61MOL    O77 9797   1.492   7.474   1.124 -0.3535  0.2712 -0.0564
   61MOL    H78 9798   1.673   7.649   0.875  0.6917 -1.2392  3.6416
   61MOL    H79 9799   1.505   7.610   0.881  0.7878 -0.9363  0.3912
   61MOL    H80 9800   1.563   7.791   1.092  0.5367 -0.1765  3.2716
   61MOL    H81 9801   1.705   7.692   1.095  0.7644  0.6957 -1.2764
   61MOL    C82 9802   1.461   7.635   1.283 -0.1350 -0.6431  0.2726
   61MOL    C83 9803   1.447   7.524   1.383  0.3951 -0.3543  0.1203
   61MOL    C84 9804   1.436   7.578   1.523 -0.6284 -0.5374 -0.4818
   61MOL    O85 9805   1.425   7.694   1.556 -0.1189 -0.8025  0.1355
   61MOL    H86 9806   1.363   7.683   1.277  0.0675 -0.1721  0.6545
   61MOL    H87 9807   1.539   7.704   1.318  0.0448 -0.6329 -0.1512
   61MOL    H88 9808   1.531   7.455   1.390  2.8136  2.5255  0.4899
   61MOL    H89 9809   1.366   7.455   1.359  0.5718 -1.3216  2.1779
   61MOL    C90 9810   1.412   7.471   1.630  0.1408 -0.3725  0.3005
   61MOL    C91 9811   1.489   7.492   1.759 -0.0612  0.4788  0.0908
   61MOL    C92 9812   1.550   7.366   1.815 -0.4331 -0.5073 -0.7026
   61MOL    O93 9813   1.509   7.256   1.776  0.1650 -0.3739  0.8420
   61MOL    H94 9814   1.424   7.377   1.575 -1.5230 -0.5293  0.1754
   61MOL    H95 9815   1.307   7.468   1.658  0.2515  1.3639  0.9084
   61MOL    H96 9816   1.435   7.548   1.834  3.3661  1.1786  2.1527
   61MOL    H97 9817   1.577   7.551   1.731  0.5216  0.6589  2.2294
   61MOL    C98 9818   1.658   7.388   1.923  0.7201 -0.1804  0.2502
   61MOL    C99 9819   1.800   7.393   1.878  0.0902 -0.1549  0.0738
   61MOL   C100 9820   1.835   7.538   1.828 -0.4254 -0.1736  0.2011
   61MOL   O101 9821   1.797   7.641   1.887  0.2143 -0.1878 -0.2972
   61MOL   H102 9822   1.645   7.306   1.994  1.1691  1.5928  2.4418
   61MOL   H103 9823   1.619   7.475   1.975  1.6145  0.3668  0.0202
   61MOL   H104 9824   1.818   7.323   1.796 -0.9502 -1.4454  0.9258
   61MOL   H105 9825   1.866   7.360   1.958  0.0320 -1.3371 -0.3686
   61MOL   C106 9826   1.933   7.538   1.717  0.1028  0.1937 -0.3231
   61MOL   C107 9827   1.918   7.659   1.623 -0.0396  0.1797 -0.7696
   61MOL   C108 9828   1.822   7.638   1.502 -0.1920 -0.7513 -0.1920
   61MOL   O109 9829   1.749   7.537   1.499 -0.0043 -0.7086 -0.9053
   61MOL   H110 9830   1.936   7.452   1.649 -0.8821  0.1311 -0.2946
   61MOL   H111 9831   2.032   7.538   1.764  1.2406 -0.4797 -2.6174
   61MOL   H112 9832   2.016   7.695   1.591  0.3013 -0.7482 -0.7603
   61MOL   H113 9833   1.867   7.740   1.676 -1.9008 -2.2764  1.2613
   61MOL   C114 9834   1.811   7.747   1.399  0.3475  0.1917  0.3362
   61MOL   C115 9835   1.705   7.851   1.451  0.1404 -0.8352  0.0257
   61MOL   C116 9836   1.779   0.112   1.520 -0.5018  0.0596 -0.2156
   61MOL   O117 9837   1.898   0.143   1.496  0.0648  0.3444 -0.3553
   61MOL   H118 9838   1.773   7.690   1.315  1.3816 -2.1160  1.4015
   61MOL   H119 9839   1.898   7.801   1.361 -0.3734  1.5071  0.5298
   61MOL   H120 9840   1.618   7.816   1.507 -1.0027 -0.1185 -1.2881
   61MOL   H121 9841   1.656   0.045   1.370 -2.0234  0.6410  2.2233
   61MOL   C122 9842   1.695   0.198   1.614 -0.0031 -0.2194  0.3613
   61MOL   C123 9843   1.757   0.219   1.753 -0.3054 -0.1418 -0.4681
   61MOL   C124 9844   1.846   0.339   1.774  0.0542 -0.2092 -0.0915
   61MOL   O125 9845   1.845   0.434   1.695  0.1177  0.1219 -0.3266
   61MOL   H126 9846   1.591   0.171   1.632 -0.6178  2.9958  2.1732
   61MOL   H127 9847   1.686   0.295   1.564 -2.6698  0.0310  1.2812
   61MOL   H128 9848   1.823   0.133   1.769  1.0985  1.1462  0.8940
   61MOL   H129 9849   1.680   0.219   1.830 -1.7024  0.2629 -1.8389
   61MOL   C130 9850   1.928   0.342   1.902  0.1938 -0.3984  0.4040
   61MOL   C131 9851   2.051   0.439   1.889  0.0077  0.2086 -0.2689
   61MOL   C132 9852   2.020   0.587   1.915 -0.0415 -0.6544  0.1986
   61MOL   O133 9853   1.919   0.621   1.979  0.0176 -0.4120  0.0088
   61MOL   H134 9854   1.959   0.240   1.925 -3.1540 -1.1437  1.8158
   61MOL   H135 9855   1.871   0.380   1.986 -1.1946 -0.3904 -0.5245
   61MOL   H136 9856   2.092   0.410   1.792 -0.4039 -1.8118  0.1406
   61MOL   H137 9857   2.119   0.407   1.968 -1.0798 -2.3660 -0.3119
   61MOL   C138 9858   2.130   0.688   1.872  0.6945  0.3771  0.2230
   61MOL   C139 9859   2.145   0.800   1.977 -0.5927 -0.0454 -0.2956
   61MOL   C140 9860   2.090   0.934   1.923 -0.3142  0.7789 -0.0201
   61MOL   O141 9861   2.098   0.959   1.805 -0.1204  0.0438  0.4934
   61MOL   H142 9862   2.093   0.724   1.776  0.2281  0.4185  0.4149
   61MOL   H143 9863   2.227   0.640   1.864  0.3998 -0.6880  2.4619
   61MOL   H144 9864   2.252   0.808   1.993 -0.5439 -2.8832  1.1844
   61MOL   H145 9865   2.107   0.771   2.075  2.1169 -0.7586  0.6014
   61MOL   C146 9866   2.027   1.037   2.018  0.2458  0.0093  0.3621
   61MOL   C147 9867   2.055   1.184   1.990  0.8408 -0.1162 -0.3508
   61MOL   C148 9868   1.946   1.279   2.039 -0.2974 -0.0870  0.2393
   61MOL   O149 9869   1.854   1.318   1.966  0.5880  0.5208 -0.2882
   61MOL   H150 9870   2.063   1.021   2.119 -0.8389  1.3398  0.9816
   61MOL   H151 9871   1.918   1.028   2.024 -0.1364  2.5943 -1.6097
   61MOL   H152 9872   2.073   1.204   1.884  1.8982 -2.1291 -0.5651
   61MOL   H153 9873   2.148   1.223   2.032 -0.3091 -0.2847  2.3944
   61MOL   C154 9874   1.934   1.295   2.191 -0.2953  0.3349 -0.1117
   61MOL   C155 9875   1.865   1.430   2.241 -0.2807 -0.6731 -0.1727
   61MOL   C156 9876   1.951   1.557   2.249  0.8240 -0.3644  0.2233
   61MOL   O157 9877   2.059   1.561   2.183  0.6541 -0.1465  0.3593
   61MOL   H158 9878   2.037   1.287   2.226  0.1538  0.4745 -1.3505
   61MOL   H159 9879   1.878   1.212   2.233  0.6333 -0.1110  0.2565
   61MOL   H160 9880   1.829   1.416   2.343 -2.5335  1.1457 -0.6596
   61MOL   H161 9881   1.780   1.455   2.177 -0.3072 -1.0132 -0.2672
   61MOL   H162 9882   1.912   1.633   2.317 -0.7329 -1.1473  0.2120
   62MOL     C1 9883   0.948   7.849   6.424 -0.5064  1.2310  0.4529
   62MOL     C2 9884   0.840   0.089   6.489 -0.1980  0.3498  0.2171
   62MOL     C3 9885   0.705   0.096   6.411  0.9457  0.2442  0.4837
   62MOL     O4 9886   0.677   0.022   6.317 -1.0365 -0.0852 -0.6284
   62MOL     H5 9887   0.903   7.765   6.370  0.3359  1.2577 -0.2975
   62MOL     H6 9888   1.004   0.053   6.354 -1.6247 -1.6250 -3.1936
   62MOL     H7 9889   0.885   0.188   6.489  0.5441  0.0122  0.5238
   62MOL     H8 9890   0.814   0.070   6.593  1.6889 -0.9526  0.4723
   62MOL     H9 9891   1.014   7.813   6.503  0.2687  1.6387 -0.0022
   62MOL    C10 9892   0.618   0.220   6.446  0.4516  0.6015 -0.0984
   62MOL    C11 9893   0.471   0.174   6.457  0.3074 -0.6126 -0.0101
   62MOL    C12 9894   0.424   0.112   6.585 -0.4315 -0.1352  0.0546
   62MOL    O13 9895   0.507   0.055   6.657  0.0686  1.0243  0.6739
   62MOL    H14 9896   0.629   0.286   6.360 -1.2592  1.9819  0.7108
   62MOL    H15 9897   0.651   0.256   6.544  0.6869  2.8937 -0.9821
   62MOL    H16 9898   0.446   0.089   6.394 -1.7401 -0.1315  0.1016
   62MOL    H17 9899   0.412   0.261   6.426 -0.0713 -1.0377 -0.5093
   62MOL    C18 9900   0.280   0.114   6.638  0.9610  0.1272 -0.4886
   62MOL    C19 9901   0.267   0.082   6.788 -0.4791  0.9536  0.5977
   62MOL    C20 9902   0.202   0.196   6.873 -0.8789  0.3688  0.3138
   62MOL    O21 9903   0.210   0.313   6.838 -0.6366  0.0158 -0.1366
   62MOL    H22 9904   0.228   0.040   6.577  1.1032 -0.8939  0.6313
   62MOL    H23 9905   0.224   0.204   6.611  0.0378 -0.5036 -0.7002
   62MOL    H24 9906   0.365   0.053   6.827  0.0708  0.2878 -1.2586
   62MOL    H25 9907   0.215   7.845   6.796  1.8807 -0.1889  2.9124
   62MOL    C26 9908   0.132   0.163   7.001 -0.1848 -0.1168  0.2911
   62MOL    C27 9909   7.837   0.178   6.990  0.6675  0.3919  0.2082
   62MOL    C28 9910   7.763   0.049   6.961  0.2991 -0.4384  0.7922
   62MOL    O29 9911   7.814   7.802   6.924 -0.1411  0.0821  0.3849
   62MOL    H30 9912   0.171   0.226   7.080  0.3500  0.4102 -0.3881
   62MOL    H31 9913   0.166   0.064   7.030  1.0155  0.5614  1.2176
   62MOL    H32 9914   7.799   0.245   6.914  1.7525 -0.3087 -0.9735
   62MOL    H33 9915   7.797   0.225   7.080  0.2585  0.6143 -0.0880
   62MOL    C34 9916   7.616   0.062   6.975 -0.3199  0.7434  0.1075
   62MOL    C35 9917   7.538   7.802   6.921 -0.1374  0.5421  0.2207
   62MOL    C36 9918   7.477   7.835   6.788 -0.2180  0.3050 -0.0701
   62MOL    O37 9919   7.543   7.859   6.690 -0.4500  0.5503  0.1024
   62MOL    H38 9920   7.585   0.156   6.930 -2.7885  0.7300  1.7078
   62MOL    H39 9921   7.596   0.064   7.082  2.0397 -0.6494  0.6314
   62MOL    H40 9922   7.464   7.787   7.000  1.3598 -3.2764  1.0145
   62MOL    H41 9923   7.595   7.708   6.923 -2.3748 -0.8350  1.8024
   62MOL    C42 9924   7.325   7.857   6.790  0.0908  0.4587  0.0534
   62MOL    C43 9925   7.254   0.004   6.653 -0.1032 -0.3205  0.0577
   62MOL    C44 9926   7.173   7.739   6.606  0.8243 -0.4710  0.1390
   62MOL    O45 9927   7.162   7.640   6.682  1.2238 -0.0491 -0.4331
   62MOL    H46 9928   7.299   0.091   6.841  1.4221  0.1225  1.3527
   62MOL    H47 9929   7.278   7.780   6.851 -0.0556 -1.2466 -2.1534
   62MOL    H48 9930   7.322   0.039   6.576  1.3010  1.3163  2.0026
   62MOL    H49 9931   7.179   0.083   6.654  1.2763  1.0030  0.5782
   62MOL    C50 9932   7.126   7.734   6.461 -0.3978 -0.1603  0.6868
   62MOL    C51 9933   7.245   7.717   6.361 -0.1653  0.2547  0.0602
   62MOL    C52 9934   7.253   7.836   6.263  0.3067 -0.2091 -0.1423
   62MOL    O53 9935   7.290   0.088   6.294 -0.0313 -0.2269  0.1608
   62MOL    H54 9936   7.077   7.831   6.467 -1.4925 -0.7425  1.3579
   62MOL    H55 9937   7.051   7.655   6.461 -0.5207 -0.0438  0.5614
   62MOL    H56 9938   7.224   7.623   6.310  0.0714  0.4096 -0.3249
   62MOL    H57 9939   7.343   7.710   6.409  1.0109 -3.2163 -2.6405
   62MOL    C58 9940   7.207   7.818   6.123 -0.2618 -0.4961  0.0406
   62MOL    C59 9941   7.147   0.089   6.057  0.1881 -0.4380 -0.1537
   62MOL    C60 9942   7.016   0.064   5.979 -0.1015  0.2780 -0.2359
   62MOL    O61 9943   6.964   7.810   5.978 -0.2147 -0.2549  0.3456
   62MOL    H62 9944   7.146   7.728   6.116 -0.5361 -0.2105 -1.3302
   62MOL    H63 9945   7.297   7.790   6.068  0.1396 -0.0966  0.4946
   62MOL    H64 9946   7.222   0.135   5.993  0.7141 -0.1197  0.6706
   62MOL    H65 9947   7.138   0.163   6.137  1.5311  0.0471 -0.4442
   62MOL    C66 9948   6.966   0.167   5.877 -0.2772 -0.4710 -1.0098
   62MOL    C67 9949   6.901   0.099   5.762 -0.1362 -0.2478  0.6964
   62MOL    C68 9950   6.749   0.098   5.753 -1.0698 -0.3817  0.8738
   62MOL    O69 9951   6.678   0.136   5.846  0.3522 -0.1491 -0.4550
   62MOL    H70 9952   7.048   0.228   5.839  1.4952 -2.2688 -0.2217
   62MOL    H71 9953   6.902   0.240   5.925 -1.7148 -1.8601 -0.7763
   62MOL    H72 9954   6.942   7.857   5.762  0.9568  0.1910  0.2176
   62MOL    H73 9955   6.937   0.136   5.666  0.8723  0.5911  1.3852
   62MOL    C74 9956   6.684   0.032   5.626  1.0048  0.0598  0.1993
   62MOL    C75 9957   6.528   0.029   5.633  0.3612  0.2019 -0.0213
   62MOL    C76 9958   6.465   7.790   5.530 -0.5895  0.3601 -0.7063
   62MOL    O77 9959   6.541   7.747   5.438  0.8264  0.0674 -0.4189
   62MOL    H78 9960   6.721   7.789   5.631 -0.4677 -0.4710  0.6055
   62MOL    H79 9961   6.715   0.068   5.528 -0.2266 -1.1067 -0.6448
   62MOL    H80 9962   6.487   0.127   5.610  3.4455  0.9407 -2.7241
   62MOL    H81 9963   6.499   7.842   5.727  1.4705 -0.8984 -0.1971
   62MOL    C82 9964   6.313   7.780   5.541 -0.1941  0.0354  0.4385
   62MOL    C83 9965   6.237   7.839   5.427  0.1193 -0.6098  0.1938
   62MOL    C84 9966   6.125   7.751   5.368 -0.0024 -0.1351 -0.9048
   62MOL    O85 9967   6.139   7.632   5.368  0.1555  0.5426 -0.3832
   62MOL    H86 9968   6.286   7.843   5.626  0.7555 -1.2831  1.7540
   62MOL    H87 9969   6.287   7.674   5.549  0.7292 -0.2748 -0.5656
   62MOL    H88 9970   6.304   0.013   5.347 -1.5642 -3.1413 -2.3587
   62MOL    H89 9971   6.193   0.074   5.462  0.6390 -0.1224 -0.4256
   62MOL    C90 9972   6.012   7.818   5.298 -0.1063 -0.1664 -0.3817
   62MOL    C91 9973   5.914   7.720   5.230  0.6440  0.1523  0.3756
   62MOL    C92 9974   5.773   7.766   5.254 -0.6208  0.7194 -0.0365
   62MOL    O93 9975   5.732   7.803   5.363 -0.1277  0.5573  0.1159
   62MOL    H94 9976   6.057   0.030   5.228 -0.4608 -0.7872 -1.2417
   62MOL    H95 9977   5.966   0.031   5.366  0.9035 -0.2738  0.4159
   62MOL    H96 9978   5.919   7.618   5.268 -0.4242  0.0694  0.3052
   62MOL    H97 9979   5.943   7.710   5.126 -1.2471 -0.6975 -0.0813
   62MOL    C98 9980   5.670   7.765   5.142 -0.1220 -0.2864 -0.2213
   62MOL    C99 9981   5.691   0.028   5.049 -0.0179 -0.1213 -0.4453
   62MOL   C100 9982   5.741   7.829   4.920  0.7116 -0.6408 -0.2075
   62MOL   O101 9983   5.852   7.782   4.901 -0.3373 -0.0028 -0.5302
   62MOL   H102 9984   5.571   7.787   5.181 -0.3325  1.1929 -1.5139
   62MOL   H103 9985   5.662   7.675   5.082 -1.7848  1.0630 -2.0991
   62MOL   H104 9986   5.775   0.092   5.079  1.6102 -2.3541 -0.1613
   62MOL   H105 9987   5.604   0.091   5.030 -1.7744 -2.7180 -1.2542
   62MOL   C106 9988   5.632   7.820   4.815 -0.2668  0.9560  0.7991
   62MOL   C107 9989   5.514   7.727   4.855  0.2063  0.1439  0.4428
   62MOL   C108 9990   5.390   7.793   4.917 -0.1070 -0.3427  0.9018
   62MOL   O109 9991   5.388   0.050   4.953  0.1515  0.2239  0.2973
   62MOL   H110 9992   5.654   7.780   4.716 -3.1245  1.3716 -0.0533
   62MOL   H111 9993   5.594   0.061   4.796 -0.3067  0.7515 -0.2452
   62MOL   H112 9994   5.539   7.637   4.910  1.2992 -0.0918 -0.4199
   62MOL   H113 9995   5.467   7.693   4.762  0.3208 -0.6160  0.6575
   62MOL   C114 9996   5.271   7.703   4.947 -0.8120  0.4020 -0.0339
   62MOL   C115 9997   5.160   7.776   5.027 -1.1396  0.3020 -0.3823
   62MOL   C116 9998   5.065   7.673   5.089 -0.2306  0.1499  0.2592
   62MOL   O117 9999   5.051   7.556   5.047 -0.0695 -0.2218 -0.2571
   62MOL   H11810000   5.308   7.618   5.004 -3.8642 -0.1196  1.2807
   62MOL   H11910001   5.224   7.672   4.853 -1.1883 -2.4361  1.0358
   62MOL   H12010002   5.105   7.844   4.962 -0.0353  0.0330 -1.6153
   62MOL   H12110003   5.201   7.840   5.105  0.2060 -1.9698  0.8104
   62MOL   C12210004   4.989   7.730   5.205  0.3147  0.1255  0.5986
   62MOL   C12310005   4.859   7.645   5.220  0.5132 -0.5162  0.0330
   62MOL   C12410006   4.731   7.732   5.226  0.5927 -0.5650 -0.1315
   62MOL   O12510007   4.728   0.002   5.212 -0.7350 -0.1919  0.1413
   62MOL   H12610008   4.968   7.836   5.189  1.0317  0.1718 -0.0230
   62MOL   H12710009   5.048   7.707   5.293  1.1440  4.0389  1.1715
   62MOL   H12810010   4.872   7.606   5.320  1.9308  0.7897  0.3853
   62MOL   H12910011   4.837   7.577   5.137  1.0701  0.7835 -1.2181
   62MOL   C13010012   4.602   7.659   5.277 -0.2207  0.1568  0.4302
   62MOL   C13110013   4.494   7.742   5.348  0.0022  0.0596  0.6773
   62MOL   C13210014   4.362   7.667   5.324 -0.6953  0.7264  0.3777
   62MOL   O13310015   4.312   7.601   5.414 -0.7202 -0.0246  0.2524
   62MOL   H13410016   4.625   7.576   5.345 -1.6816 -0.8489 -0.2709
   62MOL   H13510017   4.557   7.603   5.194 -1.9713 -0.4387  1.7601
   62MOL   H13610018   4.487   7.846   5.316 -0.0959 -0.1072  0.1500
   62MOL   H13710019   4.512   7.736   5.455 -2.0336  0.1363  1.0283
   62MOL   C13810020   4.282   7.683   5.195 -0.1329 -0.0794  0.2709
   62MOL   C13910021   4.134   7.625   5.194 -0.5216 -0.2177  0.2018
   62MOL   C14010022   4.136   7.492   5.123 -0.3410  0.8161 -0.4815
   62MOL   O14110023   4.181   7.486   5.009  1.0066 -0.2750 -0.2541
   62MOL   H14210024   4.338   7.645   5.109  1.4635  0.8972  0.8644
   62MOL   H14310025   4.272   7.790   5.176 -0.2340  0.2432  2.0549
   62MOL   H14410026   4.068   7.688   5.135  1.0185  0.2974 -0.9958
   62MOL   H14510027   4.084   7.604   5.289 -1.7651 -0.7214 -0.5584
   62MOL   C14610028   4.066   7.364   5.177 -0.2008  0.0145  0.2967
   62MOL   C14710029   4.021   7.269   5.060 -0.3029 -0.0919 -1.4428
   62MOL   C14810030   4.125   7.158   5.033  0.7620  0.0073 -0.5483
   62MOL   O14910031   4.183   7.106   5.128 -0.2529  0.0093 -0.7295
   62MOL   H15010032   3.984   7.405   5.237 -0.6338 -1.7041  0.8936
   62MOL   H15110033   4.123   7.318   5.258  0.7270 -0.5337 -0.6716
   62MOL   H15210034   4.003   7.335   4.976 -0.8784  0.5318 -0.8376
   62MOL   H15310035   3.926   7.226   5.092  0.1127  0.7812  1.1286
   62MOL   C15410036   4.164   7.134   4.888 -0.5044  0.4868  0.1633
   62MOL   C15510037   4.265   7.025   4.869  0.1508  0.3572 -0.2101
   62MOL   C15610038   4.310   7.009   4.723  0.2683 -0.5593 -0.4477
   62MOL   O15710039   4.232   6.957   4.640  0.0237  0.4527  0.4503
   62MOL   H15810040   4.207   7.224   4.843 -0.2297 -0.5840 -1.7910
   62MOL   H15910041   4.071   7.115   4.835 -1.4055  1.9964  1.1777
   62MOL   H16010042   4.231   6.928   4.904  3.0654 -0.5987  0.1175
   62MOL   H16110043   4.361   7.032   4.921  0.8866 -1.0840 -1.3242
   62MOL   H16210044   4.410   7.046   4.704  0.2313 -0.1792  0.1142
   63MOL     C110045   7.521   7.142   7.378 -0.1680  0.1535  0.2662
   63MOL     C210046   7.627   7.254   7.338 -0.0640  0.9042  0.5505
   63MOL     C310047   7.738   7.264   7.442  0.9556 -0.0383 -0.0022
   63MOL     O410048   7.854   7.222   7.425  0.1992  0.4513  0.1964
   63MOL     H510049   7.556   7.058   7.439 -0.7031  0.4169  0.9454
   63MOL     H610050   7.436   7.187   7.430 -0.9541 -0.4818 -0.4729
   63MOL     H710051   7.580   7.350   7.318 -2.0720 -0.5585 -2.1548
   63MOL     H810052   7.672   7.221   7.245 -0.4555  1.3724  0.1915
   63MOL     H910053   7.484   7.100   7.285 -1.7453 -0.4139  1.1352
   63MOL    C1010054   7.698   7.329   7.574  0.7358  0.4254 -0.0877
   63MOL    C1110055   7.812   7.409   7.644 -0.2260  0.1812  0.6226
   63MOL    C1210056   7.761   7.431   7.796  0.1521 -0.1131  0.5573
   63MOL    O1310057   7.753   7.337   0.009  0.1954  0.4644 -0.3786
   63MOL    H1410058   7.676   7.243   7.638  1.6288 -0.8552 -1.4695
   63MOL    H1510059   7.614   7.397   7.567  1.3037  1.2173  0.7125
   63MOL    H1610060   7.850   7.492   7.585  1.5570 -1.5664 -0.7624
   63MOL    H1710061   0.039   7.342   7.648  0.3636  0.6252 -3.0824
   63MOL    C1810062   7.717   7.579   7.829  0.7897  0.4964 -0.1520
   63MOL    C1910063   7.608   7.585   0.082 -0.2647  0.1527 -0.2749
   63MOL    C2010064   7.500   7.693   0.074 -0.0903 -0.1684  0.3363
   63MOL    O2110065   7.479   7.750   7.827 -0.0446 -0.3511 -0.3045
   63MOL    H2210066   7.684   7.624   7.736 -0.4871  0.8593  0.4549
   63MOL    H2310067   7.810   7.628   7.857  0.1505  0.9308  1.3156
   63MOL    H2410068   7.663   7.600   0.175 -0.4326 -0.1416 -0.1271
   63MOL    H2510069   7.559   7.488   0.092 -0.7090  0.4501  0.5374
   63MOL    C2610070   7.418   7.711   0.202 -0.6674  1.1077  0.0189
   63MOL    C2710071   7.281   7.779   0.178  0.6727 -0.4025  0.3622
   63MOL    C2810072   7.168   7.681   0.140  1.0567 -0.9745  0.0780
   63MOL    O2910073   7.187   7.587   0.067 -0.2145 -0.4552  0.4940
   63MOL    H3010074   7.474   7.787   0.257 -1.4628  1.6556  0.0834
   63MOL    H3110075   7.425   7.623   0.265 -1.9087 -0.3497 -1.8150
   63MOL    H3210076   7.286   0.003   0.108 -2.8962  1.4880  2.1668
   63MOL    H3310077   7.257   7.830   0.271  1.3853 -0.9059  0.8261
   63MOL    C3410078   7.045   7.728   0.209  0.1908  0.9495 -0.3179
   63MOL    C3510079   6.915   7.645   0.172 -0.0759  0.0952 -0.4727
   63MOL    C3610080   6.896   7.515   0.250 -0.7349 -0.2948 -0.1473
   63MOL    O3710081   6.956   7.486   0.355 -0.3663 -0.4573 -0.2708
   63MOL    H3810082   7.028   7.834   0.190 -3.1661  0.3540 -0.8678
   63MOL    H3910083   7.071   7.711   0.314  0.1873  2.9879  0.0258
   63MOL    H4010084   6.919   7.613   0.068 -1.5042  2.4006 -1.2630
   63MOL    H4110085   6.826   7.704   0.193 -1.1897 -1.4634 -0.7123
   63MOL    C4210086   6.787   7.422   0.193 -0.0872 -0.1419  0.1014
   63MOL    C4310087   6.748   7.317   0.298  0.7469  0.6392 -0.8525
   63MOL    C4410088   6.620   7.236   0.300  0.4037 -0.5646 -0.3714
   63MOL    O4510089   6.531   7.248   0.220  1.3890 -0.0906  0.1964
   63MOL    H4610090   6.834   7.377   0.106 -0.4282 -0.1170 -0.0989
   63MOL    H4710091   6.700   7.485   0.169  0.2061  0.0603 -0.4555
   63MOL    H4810092   6.759   7.355   0.399 -0.6118  0.1103 -0.4910
   63MOL    H4910093   6.819   7.235   0.314  0.0382 -0.1513 -1.6909
   63MOL    C5010094   6.606   7.146   0.424 -0.0567 -0.0999  0.1679
   63MOL    C5110095   6.463   7.092   0.439  0.7108 -0.4602 -0.8695
   63MOL    C5210096   6.459   6.939   0.440  0.1305  0.3645 -0.1573
   63MOL    O5310097   6.549   6.869   0.495  0.1651 -0.2690 -0.2974
   63MOL    H5410098   6.634   7.200   0.515 -0.1316  1.0176 -0.4598
   63MOL    H5510099   6.682   7.068   0.426  0.6370  0.4549 -2.8782
   63MOL    H5610100   6.392   7.119   0.361 -1.5239 -2.7515  0.2989
   63MOL    H5710101   6.437   7.128   0.538  1.8188  0.9458 -1.0689
   63MOL    C5810102   6.341   6.874   0.364 -0.0149 -0.6758  0.3125
   63MOL    C5910103   6.338   6.722   0.396 -0.2740 -0.5585 -0.4034
   63MOL    C6010104   6.272   6.685   0.531  0.5757 -0.1099 -0.3124
   63MOL    O6110105   6.178   6.742   0.590 -0.5539 -0.1530 -0.9300
   63MOL    H6210106   6.350   6.881   0.256  1.3633 -0.2865  0.4332
   63MOL    H6310107   6.251   6.931   0.387 -0.7124 -0.8888 -1.7687
   63MOL    H6410108   6.434   6.670   0.401 -0.7016 -1.3881 -0.8000
   63MOL    H6510109   6.270   6.688   0.318 -1.2875  1.9371 -0.6677
   63MOL    C6610110   6.331   6.559   0.603  0.0278  0.4365  0.5997
   63MOL    C6710111   6.229   6.483   0.686 -0.3772 -0.4917  0.7871
   63MOL    C6810112   6.251   6.499   0.836  0.1804 -0.1993 -0.5435
   63MOL    O6910113   6.341   6.571   0.882  0.2722 -0.0305 -0.1090
   63MOL    H7010114   6.423   6.586   0.655  2.3055 -0.0490 -2.9824
   63MOL    H7110115   6.380   6.495   0.528  2.0452 -0.6494  2.7768
   63MOL    H7210116   6.220   6.376   0.667  3.7903 -0.7262 -0.2923
   63MOL    H7310117   6.129   6.521   0.667  0.0313  0.0459 -0.3168
   63MOL    C7410118   6.161   6.419   0.937 -0.1260  0.6160  0.0339
   63MOL    C7510119   6.161   6.477   1.078 -0.3626 -0.5783 -0.4201
   63MOL    C7610120   6.062   6.403   1.164 -0.0092  0.0727 -0.1600
   63MOL    O7710121   6.099   6.290   1.203 -0.6237 -0.2218 -0.1819
   63MOL    H7810122   6.207   6.321   0.948  2.7070  1.8969 -0.1661
   63MOL    H7910123   6.060   6.415   0.895  0.2510 -1.1638 -0.7254
   63MOL    H8010124   6.132   6.582   1.077  0.5642 -0.3217 -1.0030
   63MOL    H8110125   6.258   6.470   1.127 -1.1565  2.8830  1.7938
   63MOL    C8210126   5.926   6.464   1.175 -0.2740  0.2669 -0.0977
   63MOL    C8310127   5.817   6.354   1.172  0.2031 -0.6525 -0.7375
   63MOL    C8410128   5.753   6.339   1.314 -0.4341 -0.6217  0.0731
   63MOL    O8510129   5.810   6.371   1.418 -0.2461  0.1844  0.3206
   63MOL    H8610130   5.923   6.516   1.080  1.5939  1.2573  0.3573
   63MOL    H8710131   5.918   6.535   1.258  0.5570 -0.2693  0.4557
   63MOL    H8810132   5.851   6.257   1.135  0.9952  0.1512 -2.1560
   63MOL    H8910133   5.733   6.390   1.113  1.8017  0.6689 -2.2635
   63MOL    C9010134   5.625   6.257   1.325  0.1396  0.0965 -0.1117
   63MOL    C9110135   5.512   6.323   1.406 -0.0159 -0.2620 -0.4650
   63MOL    C9210136   5.509   6.268   1.552  0.2499 -0.4438 -0.4981
   63MOL    O9310137   5.592   6.179   1.587 -0.2184  0.2982 -0.4322
   63MOL    H9410138   5.645   6.152   1.345 -0.8881  0.0397  0.6538
   63MOL    H9510139   5.580   6.241   1.227 -0.5690 -2.3350  0.5726
   63MOL    H9610140   5.414   6.319   1.359 -0.2761  1.4286 -0.1210
   63MOL    H9710141   5.529   6.431   1.401  1.2211 -0.3142  1.8175
   63MOL    C9810142   5.424   6.350   1.651  0.4881  0.0463 -0.0698
   63MOL    C9910143   5.435   6.307   1.800 -0.4174 -0.0300 -0.3046
   63MOL   C10010144   5.508   6.400   1.886 -0.2281 -0.3170  0.1187
   63MOL   O10110145   5.467   6.517   1.888  0.2038 -0.3281  0.2185
   63MOL   H10210146   5.324   6.342   1.609  0.6858  1.9037 -0.9724
   63MOL   H10310147   5.446   6.456   1.638 -1.0669  0.3451 -0.3416
   63MOL   H10410148   5.479   6.207   1.807 -0.6721 -0.0732  0.6710
   63MOL   H10510149   5.333   6.286   1.833 -0.3176 -2.2948 -1.3020
   63MOL   C10610150   5.634   6.356   1.950 -0.3307  0.8897 -0.3161
   63MOL   C10710151   5.757   6.443   1.905  0.1360  0.1982  0.0503
   63MOL   C10810152   5.791   6.547   2.015  0.6278 -0.3316  0.6789
   63MOL   O10910153   5.765   6.518   2.132  0.1525  0.5267 -0.3160
   63MOL   H11010154   5.648   6.249   1.934  0.6964  1.0179 -0.3527
   63MOL   H11110155   5.621   6.369   2.057  1.0618  2.3659 -0.2953
   63MOL   H11210156   5.741   6.500   1.814 -2.5808  0.7130  0.7926
   63MOL   H11310157   5.848   6.386   1.889  0.5110  0.8761 -0.2605
   63MOL   C11410158   5.844   6.681   1.980 -0.4769 -0.7725 -0.4994
   63MOL   C11510159   5.947   6.732   2.085  0.9509 -0.3525 -0.5292
   63MOL   C11610160   5.897   6.853   2.156 -0.0171 -0.4836 -0.7401
   63MOL   O11710161   5.802   6.850   2.231 -0.3009 -0.6564 -0.4881
   63MOL   H11810162   5.769   6.756   1.958 -0.0971 -0.2196  0.0865
   63MOL   H11910163   5.906   6.661   1.893 -0.1418 -1.4734 -0.1100
   63MOL   H12010164   6.041   6.757   2.035  1.0664 -1.1080 -0.7055
   63MOL   H12110165   5.962   6.661   2.167 -0.1853  1.3378  1.1830
   63MOL   C12210166   5.968   6.985   2.133  0.5820  0.7747 -0.1661
   63MOL   C12310167   5.881   7.060   2.031  0.6699  0.4752  0.3840
   63MOL   C12410168   5.942   7.060   1.899  0.4647 -0.2206  0.1532
   63MOL   O12510169   5.952   6.960   1.829  0.1788  0.4475  0.0379
   63MOL   H12610170   6.067   6.966   2.090  0.9328 -2.0740  1.7893
   63MOL   H12710171   5.969   7.050   2.221 -1.0150  2.0228 -1.0531
   63MOL   H12810172   5.871   7.162   2.067 -2.5549  0.4518 -0.2860
   63MOL   H12910173   5.779   7.022   2.032  0.7023  0.3711 -0.5844
   63MOL   C13010174   5.986   7.193   1.846 -0.8426 -0.5949 -0.3188
   63MOL   C13110175   6.118   7.189   1.771  0.0682  0.1625  0.2655
   63MOL   C13210176   6.243   7.150   1.850  0.1248  0.0631  0.8675
   63MOL   O13310177   6.237   7.140   1.973 -0.0922 -0.0971  0.5775
   63MOL   H13410178   5.995   7.279   1.912  0.9226 -0.1207 -1.1604
   63MOL   H13510179   5.907   7.215   1.774 -0.1715 -0.6568 -1.0832
   63MOL   H13610180   6.132   7.293   1.739  0.1836 -0.1628 -0.7429
   63MOL   H13710181   6.106   7.129   1.681 -0.2685  1.4802 -0.5940
   63MOL   C13810182   6.373   7.111   1.777  0.1285  0.2521 -0.0716
   63MOL   C13910183   6.494   7.178   1.850  0.7618  0.2392 -0.9459
   63MOL   C14010184   6.600   7.082   1.914 -0.4400 -0.0195  0.5956
   63MOL   O14110185   6.583   6.958   1.931  0.2320 -0.6631 -0.1074
   63MOL   H14210186   6.360   7.128   1.671 -1.4906 -0.0111  0.0736
   63MOL   H14310187   6.375   7.003   1.794 -2.9093 -0.0462 -1.2887
   63MOL   H14410188   6.460   7.259   1.915  1.1114  1.6591 -2.4826
   63MOL   H14510189   6.545   7.217   1.761  1.6272 -0.5884 -0.8221
   63MOL   C14610190   6.735   7.145   1.966 -0.2668 -0.6999 -0.1803
   63MOL   C14710191   6.826   7.037   2.007 -0.7026  0.4841  0.1528
   63MOL   C14810192   6.975   7.084   2.022 -0.1192  0.0234 -0.4079
   63MOL   O14910193   7.011   7.198   1.997  0.4113 -0.2245 -0.5045
   63MOL   H15010194   6.699   7.213   2.043 -1.9980 -0.4326 -1.2176
   63MOL   H15110195   6.783   7.211   1.893 -0.6374 -0.7798 -0.4973
   63MOL   H15210196   6.824   6.946   1.948  2.0929  0.5362 -0.0866
   63MOL   H15310197   6.811   7.008   2.111 -1.0373 -0.8866 -0.2690
   63MOL   C15410198   7.068   6.980   2.077  0.1257  0.3686 -0.4256
   63MOL   C15510199   7.154   7.025   2.198  0.1515 -0.6255 -0.3071
   63MOL   C15610200   7.205   6.911   2.278 -0.5491  0.3715 -0.1075
   63MOL   O15710201   7.181   6.797   2.244 -0.3309 -0.0262  0.5531
   63MOL   H15810202   7.142   6.958   2.000 -0.0860 -0.8666 -0.2955
   63MOL   H15910203   7.013   6.887   2.095  0.0803  0.5292  0.2600
   63MOL   H16010204   7.096   7.099   2.253 -1.9118  0.6928 -4.0877
   63MOL   H16110205   7.244   7.068   2.153  0.2166 -0.9908 -0.5302
   63MOL   H16210206   7.271   6.942   2.360  0.1086  0.4635 -0.6670
   64MOL     C110207   6.978   5.187   4.635 -0.0892 -0.1888  0.5676
   64MOL     C210208   6.990   5.336   4.630 -0.2446 -0.2754  1.1929
   64MOL     C310209   6.969   5.393   4.487 -0.5906  0.5972  0.0270
   64MOL     O410210   6.882   5.476   4.465 -0.3479 -0.0213  0.1016
   64MOL     H510211   6.884   5.150   4.595  1.0938 -3.0339  0.3069
   64MOL     H610212   7.059   5.144   4.577 -0.0398 -0.0452  0.5308
   64MOL     H710213   7.092   5.359   4.661  0.9430 -0.7905 -2.1852
   64MOL     H810214   6.928   5.391   4.701  0.2495  1.3335  0.3924
   64MOL     H910215   6.973   5.149   4.737 -0.3373 -3.0659 -0.4809
   64MOL    C1010216   7.049   5.327   4.371 -0.3187  0.0064 -0.5556
   64MOL    C1110217   7.045   5.412   4.239  0.1195  0.0680  0.2495
   64MOL    C1210218   7.052   5.317   4.122  0.4141  0.7065  0.5949
   64MOL    O1310219   7.079   5.195   4.136 -0.5600 -0.4218 -0.0522
   64MOL    H1410220   7.016   5.223   4.368 -0.3441 -0.0904  2.2240
   64MOL    H1510221   7.152   5.326   4.407 -0.9153  0.7716  1.2326
   64MOL    H1610222   7.126   5.485   4.234  0.5174 -0.4994 -3.1410
   64MOL    H1710223   6.947   5.460   4.237 -2.2021 -4.3502  1.8196
   64MOL    C1810224   7.024   5.382   3.981  1.3444 -0.1158  0.5598
   64MOL    C1910225   7.055   5.291   3.862  1.1095  0.8334  0.0167
   64MOL    C2010226   7.151   5.363   3.772 -0.1269 -0.6184 -0.6653
   64MOL    O2110227   7.161   5.487   3.759  0.2652 -0.4361 -0.5382
   64MOL    H2210228   7.077   5.477   3.985  2.0687 -0.5552  1.9479
   64MOL    H2310229   6.920   5.413   3.987  0.9205 -1.3565 -0.1070
   64MOL    H2410230   6.976   5.248   3.800 -0.1258 -1.5764  3.1841
   64MOL    H2510231   7.107   5.207   3.907 -1.8773 -0.8756  0.3797
   64MOL    C2610232   7.224   5.264   3.676 -1.0193  0.6105  0.3946
   64MOL    C2710233   7.344   5.326   3.597  0.5418  0.0146  0.5897
   64MOL    C2810234   7.478   5.303   3.656  0.2318  0.0131  0.1107
   64MOL    O2910235   7.496   5.306   3.781 -0.4376 -0.1003 -0.0556
   64MOL    H3010236   7.152   5.237   3.599  2.0103  0.0827 -2.3625
   64MOL    H3110237   7.254   5.171   3.724 -0.8366  0.6299  0.3156
   64MOL    H3210238   7.317   5.432   3.592 -0.3635 -0.0060  3.8018
   64MOL    H3310239   7.336   5.295   3.493 -3.3521  0.7895  0.5676
   64MOL    C3410240   7.593   5.273   3.559  0.1922  0.7913 -0.1917
   64MOL    C3510241   7.717   5.362   3.571  0.3585 -0.4422  0.4592
   64MOL    C3610242   7.828   5.289   3.635  0.2165  0.0422 -0.7201
   64MOL    O3710243   0.073   5.272   3.572  0.0844 -0.2959 -0.1933
   64MOL    H3810244   7.566   5.296   3.456  1.6431  0.3647 -0.6793
   64MOL    H3910245   7.608   5.165   3.567  0.3986  0.8952  0.9081
   64MOL    H4010246   7.699   5.446   3.638  1.2335  0.7391 -0.7483
   64MOL    H4110247   7.747   5.395   3.471  0.1049 -1.6179 -0.0159
   64MOL    C4210248   7.805   5.222   3.771 -0.3661  0.0908 -0.0725
   64MOL    C4310249   0.072   5.162   3.839 -0.1169 -0.0892 -0.2689
   64MOL    C4410250   0.131   5.256   3.943 -0.3583 -0.1807 -0.0896
   64MOL    O4510251   0.115   5.378   3.941  0.5879 -0.7001 -0.6935
   64MOL    H4610252   7.721   5.152   3.770  0.3510 -0.7903  0.8194
   64MOL    H4710253   7.772   5.304   3.835  0.4892 -1.2937  2.2000
   64MOL    H4810254   0.142   5.150   3.756 -1.5653 -1.7132 -1.2815
   64MOL    H4910255   0.057   5.064   3.885  1.7401  0.1322  0.8294
   64MOL    C5010256   0.220   5.188   4.050 -0.3918  0.8680  0.0140
   64MOL    C5110257   0.330   5.262   4.120 -0.6437 -0.5327  0.7310
   64MOL    C5210258   0.386   5.172   4.230 -0.0256  0.0840 -0.2571
   64MOL    O5310259   0.320   5.110   4.314  0.0851  1.1941  0.0288
   64MOL    H5410260   0.265   5.094   4.018 -1.7068 -0.5002  2.0441
   64MOL    H5510261   0.150   5.153   4.126  0.8760 -1.7847  0.0063
   64MOL    H5610262   0.297   5.358   4.161  2.5084  2.0683 -2.4763
   64MOL    H5710263   0.405   5.294   4.048 -0.9862 -0.3771  0.4404
   64MOL    C5810264   0.539   5.165   4.250 -0.4260  0.6580  0.2947
   64MOL    C5910265   0.587   5.125   4.396 -0.0692  0.0715 -0.8119
   64MOL    C6010266   0.644   5.252   4.466  0.8042  0.4765  0.7105
   64MOL    O6110267   0.696   5.346   4.400 -0.0272  0.5245  0.9633
   64MOL    H6210268   0.571   5.267   4.230 -0.7758  0.4776 -1.2908
   64MOL    H6310269   0.579   5.100   4.172  0.8982  0.9371  0.7290
   64MOL    H6410270   0.672   5.061   4.373 -1.6458 -1.9094 -1.3388
   64MOL    H6510271   0.517   5.077   4.465 -2.6871  1.8841 -2.1294
   64MOL    C6610272   0.645   5.248   4.617 -0.6016  0.5043  0.1265
   64MOL    C6710273   0.736   5.128   4.669  1.0647 -0.3539 -0.2870
   64MOL    C6810274   0.655   5.033   4.764 -0.1303  0.0235  0.1635
   64MOL    O6910275   0.614   4.924   4.734 -0.5185  0.3116 -0.3208
   64MOL    H7010276   0.541   5.245   4.650 -1.0318  2.0379 -1.0656
   64MOL    H7110277   0.682   5.341   4.662 -3.3589  1.2370  0.9572
   64MOL    H7210278   0.821   5.171   4.722  1.8712 -0.6380 -1.3317
   64MOL    H7310279   0.773   5.067   4.587  0.0443 -0.8016 -0.4177
   64MOL    C7410280   0.625   5.087   4.899 -0.1849  0.0819  0.1337
   64MOL    C7510281   0.679   4.991   5.013  0.7936 -0.5667 -0.4545
   64MOL    C7610282   0.814   5.017   5.073 -0.9363  0.2992  0.8331
   64MOL    O7710283   0.910   5.049   5.001  0.0503 -0.3288 -0.5679
   64MOL    H7810284   0.517   5.069   4.902 -0.0640 -1.1805 -1.6827
   64MOL    H7910285   0.650   5.193   4.908  0.3106  0.0589 -0.8545
   64MOL    H8010286   0.672   4.883   4.997 -0.5181  0.0113 -4.1221
   64MOL    H8110287   0.608   5.010   5.093  0.2963 -0.2546 -0.9753
   64MOL    C8210288   0.836   4.986   5.214 -0.5073  0.2871 -0.0861
   64MOL    C8310289   0.929   4.864   5.234 -0.0006 -0.6953  0.4896
   64MOL    C8410290   0.861   4.729   5.267 -0.4510 -0.0352  0.1379
   64MOL    O8510291   0.737   4.721   5.287 -0.2517 -0.3970 -0.0891
   64MOL    H8610292   0.746   4.975   5.275 -0.8004  0.1396 -0.5441
   64MOL    H8710293   0.874   5.079   5.257  0.1939 -0.4473  0.9192
   64MOL    H8810294   1.010   4.882   5.304  1.3884  0.9664 -1.4729
   64MOL    H8910295   0.991   4.857   5.144 -0.2379 -1.1451  0.3596
   64MOL    C9010296   0.958   4.609   5.276  0.3453  0.2602  0.1439
   64MOL    C9110297   0.889   4.460   5.286 -0.9299  0.3588 -0.3943
   64MOL    C9210298   0.969   4.352   5.212 -0.3574 -0.0410 -0.3593
   64MOL    O9310299   1.088   4.345   5.223  0.2099  0.4223 -0.0381
   64MOL    H9410300   1.031   4.617   5.356  0.4117  0.9321  0.0187
   64MOL    H9510301   1.029   4.619   5.195 -1.9467 -1.9881 -2.2677
   64MOL    H9610302   0.795   4.465   5.231 -1.3666  3.4114  0.5297
   64MOL    H9710303   0.879   4.436   5.392  1.5211 -0.4853 -0.3101
   64MOL    C9810304   0.887   4.242   5.137 -0.1630 -0.1690 -0.0368
   64MOL    C9910305   0.929   4.100   5.163  0.2435 -0.0766  0.5075
   64MOL   C10010306   0.892   4.048   5.302  0.3449  0.2205 -1.0813
   64MOL   O10110307   0.813   4.109   5.370 -0.2804 -0.6489  0.0128
   64MOL   H10210308   0.914   4.265   5.034 -1.4575  0.6791 -0.2002
   64MOL   H10310309   0.780   4.255   5.147 -0.1021  1.3290 -1.1165
   64MOL   H10410310   1.037   4.093   5.160  0.1771 -0.7564 -0.8830
   64MOL   H10510311   0.875   4.042   5.088  1.8557 -0.1056 -0.6404
   64MOL   C10610312   0.955   3.915   5.346  0.0465 -0.1468 -0.4658
   64MOL   C10710313   0.958   3.901   5.493 -0.6635  0.2937 -0.7903
   64MOL   C10810314   1.079   3.971   5.563 -0.2869  0.0660 -0.8510
   64MOL   O10910315   1.196   3.941   5.534 -0.3287  0.1740  0.2657
   64MOL   H11010316   1.056   3.902   5.306 -0.9405  2.4469 -4.0031
   64MOL   H11110317   0.881   3.843   5.311 -0.1173 -0.9580  1.4564
   64MOL   H11210318   0.980   3.795   5.504 -1.1750 -0.0359 -2.6671
   64MOL   H11310319   0.866   3.924   5.548 -0.4757 -0.0304 -0.3429
   64MOL   C11410320   1.055   4.060   5.677  0.1175 -0.9071  0.0747
   64MOL   C11510321   1.051   4.208   5.631 -0.3329  0.3376  0.0360
   64MOL   C11610322   1.125   4.305   5.722 -1.1989  0.8668  0.1732
   64MOL   O11710323   1.246   4.285   5.746 -0.0304 -0.2059  0.7849
   64MOL   H11810324   1.135   4.041   5.749  0.0508 -1.3304  0.0398
   64MOL   H11910325   0.953   4.042   5.709  0.8724 -2.4238  1.6892
   64MOL   H12010326   0.948   4.233   5.606 -0.7548 -0.6066  0.7953
   64MOL   H12110327   1.103   4.218   5.536  0.4754 -1.4960  0.2705
   64MOL   C12210328   1.049   4.418   5.784 -0.4958 -0.4328  0.5741
   64MOL   C12310329   1.130   4.505   5.894  0.1010  0.8991 -0.3288
   64MOL   C12410330   1.210   4.626   5.834 -0.0227 -0.3249  0.3464
   64MOL   O12510331   1.213   4.643   5.710  0.4036  0.4440 -0.1770
   64MOL   H12610332   0.961   4.374   5.830 -1.3031 -1.3601 -1.8232
   64MOL   H12710333   1.020   4.493   5.710 -1.7944 -0.5459  0.9676
   64MOL   H12810334   1.189   4.442   5.960 -2.4252  0.8036  1.9663
   64MOL   H12910335   1.047   4.545   5.953 -0.0671  2.1132 -1.3632
   64MOL   C13010336   1.285   4.724   5.929 -0.3252 -0.1821 -0.7622
   64MOL   C13110337   1.345   4.853   5.870  0.3720 -0.3807  0.4893
   64MOL   C13210338   1.366   4.957   5.980 -0.4699 -0.6078 -0.3900
   64MOL   O13310339   1.301   4.952   6.087 -0.1714  0.0389 -0.2685
   64MOL   H13410340   1.364   4.662   5.971 -3.2656 -1.8422  2.5581
   64MOL   H13510341   1.223   4.737   6.017 -0.5656 -2.0738 -0.6335
   64MOL   H13610342   1.282   4.905   5.797 -0.5388  0.5575  1.9261
   64MOL   H13710343   1.441   4.837   5.820  0.7589  1.3097  0.6444
   64MOL   C13810344   1.479   5.060   5.959 -0.2190 -0.3337 -0.2450
   64MOL   C13910345   1.466   5.180   6.063 -0.3149  0.0993 -0.0807
   64MOL   C14010346   1.486   5.321   6.005  0.1910  1.1702  0.2299
   64MOL   O14110347   1.597   5.357   5.978 -0.0776 -0.4284  0.0349
   64MOL   H14210348   1.463   5.107   5.862  0.1415  1.3760  0.4874
   64MOL   H14310349   1.577   5.015   5.971 -0.2386  0.1326  2.0330
   64MOL   H14410350   1.545   5.165   6.137  0.6677 -1.3763 -1.4162
   64MOL   H14510351   1.379   5.178   6.129 -0.8164  4.4116 -0.4676
   64MOL   C14610352   1.367   5.411   5.979  0.0817 -0.2152  0.1114
   64MOL   C14710353   1.398   5.560   5.972  0.7655 -0.3527 -0.1180
   64MOL   C14810354   1.428   5.603   5.831  0.0751  0.3263 -0.2214
   64MOL   O14910355   1.335   5.627   5.750  0.0521 -0.2820 -0.0458
   64MOL   H15010356   1.299   5.405   6.063 -1.8309  1.1726 -1.3007
   64MOL   H15110357   1.325   5.372   5.886  0.0546  0.9652 -0.3874
   64MOL   H15210358   1.476   5.587   6.044  0.7269 -0.3642 -0.0724
   64MOL   H15310359   1.321   5.624   6.013  0.4086 -1.8543  1.6203
   64MOL   C15410360   1.573   5.619   5.782  0.4179  0.0178  0.2502
   64MOL   C15510361   1.585   5.671   5.630  0.4006 -0.0373  0.1419
   64MOL   C15610362   1.667   5.798   5.637  0.1177 -0.5744  0.6113
   64MOL   O15710363   1.615   5.911   5.668 -0.0472  0.4362  0.1353
   64MOL   H15810364   1.621   5.522   5.787  0.5923  0.0335 -1.0871
   64MOL   H15910365   1.621   5.682   5.857  1.2970  0.4212 -0.6455
   64MOL   H16010366   1.486   5.696   5.591  0.3105  0.7324  0.8502
   64MOL   H16110367   1.638   5.597   5.569 -0.6258 -0.9931  0.3791
   64MOL   H16210368   1.771   5.772   5.617 -0.4097 -1.3542 -1.3013
   65MOL     C110369   5.633   6.384   3.694 -0.2655 -0.5695 -0.1473
   65MOL     C210370   5.631   6.375   3.542 -0.1518 -0.1209  0.6355
   65MOL     C310371   5.489   6.327   3.506 -0.2006  1.0017  0.4495
   65MOL     O410372   5.393   6.351   3.580 -0.5729  0.4228 -0.4763
   65MOL     H510373   5.723   6.433   3.732 -1.8597  1.4600  1.0894
   65MOL     H610374   5.557   6.447   3.740  0.4679  1.4738 -1.6866
   65MOL     H710375   5.712   6.314   3.503 -0.6008  0.3479 -1.0835
   65MOL     H810376   5.653   6.469   3.490 -2.0877  0.0839  0.1657
   65MOL     H910377   5.619   6.287   3.743  0.6453 -1.0936 -0.8912
   65MOL    C1010378   5.484   6.243   3.385  0.6570 -1.0068 -0.6224
   65MOL    C1110379   5.344   6.188   3.366 -0.9787  0.2012 -0.1430
   65MOL    C1210380   5.263   6.284   3.278  0.7800 -0.2245  0.0207
   65MOL    O1310381   5.272   6.408   3.284 -0.1056 -0.3928  0.4395
   65MOL    H1410382   5.559   6.164   3.393  0.2912 -1.3811 -0.8502
   65MOL    H1510383   5.519   6.302   3.300  0.8455  0.8271  0.6891
   65MOL    H1610384   5.285   6.163   3.454  0.3449  0.4980  0.8476
   65MOL    H1710385   5.367   6.093   3.317  0.7796 -0.2898  1.5510
   65MOL    C1810386   5.169   6.220   3.173  0.7173 -0.6380  0.5192
   65MOL    C1910387   5.062   6.316   3.112 -0.6903  0.0051 -0.0867
   65MOL    C2010388   4.963   6.243   3.028 -0.3623 -0.2102  0.8266
   65MOL    O2110389   5.003   6.169   2.936  0.2233 -0.0745  0.1136
   65MOL    H2210390   5.114   6.138   3.219  0.3774 -0.8260 -0.2134
   65MOL    H2310391   5.229   6.183   3.089 -1.3960  2.1244 -2.3118
   65MOL    H2410392   5.108   6.391   3.049  1.6435  0.9549  2.6892
   65MOL    H2510393   5.010   6.366   3.193  0.8397 -2.7465  2.6889
   65MOL    C2610394   4.813   6.258   3.056 -0.0444  0.3001 -0.7762
   65MOL    C2710395   4.730   6.229   2.928 -0.0241 -0.2450 -0.2092
   65MOL    C2810396   4.579   6.255   2.936 -0.4128 -0.4874 -0.3232
   65MOL    O2910397   4.535   6.327   3.030 -0.3246  0.1260  0.3662
   65MOL    H3010398   4.802   6.360   3.091  4.2806  0.1671  1.2505
   65MOL    H3110399   4.780   6.195   3.139 -0.0627  0.9821 -0.2631
   65MOL    H3210400   4.738   6.127   2.891  1.5456 -0.0190 -0.5182
   65MOL    H3310401   4.763   6.278   2.837 -0.3487  0.9087  0.2863
   65MOL    C3410402   4.489   6.190   2.832  0.6791  0.8227 -0.5167
   65MOL    C3510403   4.383   6.274   2.762  0.2348 -0.1000  0.6912
   65MOL    C3610404   4.355   6.244   2.620 -0.0483 -0.5243 -0.8794
   65MOL    O3710405   4.434   6.172   2.554 -0.0705 -0.0090 -0.1967
   65MOL    H3810406   4.446   6.117   2.901  3.0398  0.7405  0.8954
   65MOL    H3910407   4.549   6.137   2.759  1.5597 -2.2513  2.3222
   65MOL    H4010408   4.408   6.380   2.768 -1.1063  0.1805  1.7524
   65MOL    H4110409   4.286   6.263   2.811 -0.5780  0.3948 -0.8021
   65MOL    C4210410   4.229   6.295   2.558  0.5358  0.1015 -0.2927
   65MOL    C4310411   4.192   6.254   2.420 -0.3637 -0.6484 -0.7656
   65MOL    C4410412   4.235   6.357   2.320 -0.0825 -0.5535 -0.3183
   65MOL    O4510413   4.235   6.479   2.340  0.0571  0.5550 -0.5319
   65MOL    H4610414   4.224   6.403   2.575 -0.2882 -0.1905  1.4700
   65MOL    H4710415   4.147   6.255   2.618 -0.3902  2.6143  0.1766
   65MOL    H4810416   4.086   6.231   2.408 -1.8500  3.6420  2.4178
   65MOL    H4910417   4.248   6.163   2.401 -2.4582 -2.0423 -0.4091
   65MOL    C5010418   4.273   6.297   2.183 -0.7884  0.4753  1.0301
   65MOL    C5110419   4.345   6.399   2.085 -0.0722  0.0337  0.3407
   65MOL    C5210420   4.489   6.440   2.121  0.1410 -0.1965  0.0282
   65MOL    O5310421   4.565   6.374   2.194  0.1816  0.0359  0.5714
   65MOL    H5410422   4.179   6.278   2.131  0.4810 -1.3450 -0.6456
   65MOL    H5510423   4.320   6.200   2.193 -0.9063  0.2042 -0.8082
   65MOL    H5610424   4.277   6.482   2.061 -0.0934 -0.3522 -0.9543
   65MOL    H5710425   4.363   6.344   1.993  2.1875  0.3201  0.5930
   65MOL    C5810426   4.544   6.564   2.056  0.1945  0.0559  0.4604
   65MOL    C5910427   4.679   6.543   1.996 -0.0067  0.0068 -0.4698
   65MOL    C6010428   4.802   6.554   2.083  0.4569  0.3212  0.0011
   65MOL    O6110429   4.796   6.610   2.192  0.2121 -0.1955  0.2986
   65MOL    H6210430   4.547   6.642   2.132 -0.0121 -1.1026  1.6699
   65MOL    H6310431   4.466   6.589   1.983 -1.5232 -0.2885  2.1410
   65MOL    H6410432   4.700   6.595   1.902  0.3159 -0.5352 -0.7001
   65MOL    H6510433   4.676   6.441   1.960 -0.9789 -0.6052  1.2679
   65MOL    C6610434   4.946   6.521   2.024 -0.0954 -0.0094 -0.4715
   65MOL    C6710435   5.046   6.516   2.144  0.4570 -0.0233  0.2963
   65MOL    C6810436   5.155   6.412   2.133 -1.0076  0.3004  0.3475
   65MOL    O6910437   5.188   6.351   2.030  0.2974 -0.0502  0.6662
   65MOL    H7010438   4.972   6.597   1.950  2.7059 -1.8416 -1.4339
   65MOL    H7110439   4.936   6.424   1.976 -1.8610  0.7101 -1.6109
   65MOL    H7210440   4.995   6.501   2.239 -0.2162 -3.0478 -0.4803
   65MOL    H7310441   5.098   6.612   2.141  0.8795 -0.1041  3.1127
   65MOL    C7410442   5.237   6.391   2.262 -0.5721  0.3853  0.3413
   65MOL    C7510443   5.374   6.324   2.249  0.8311  0.4207  0.1429
   65MOL    C7610444   5.469   6.370   2.351  0.8208  0.6024  0.1570
   65MOL    O7710445   5.456   6.467   2.426 -0.0369 -0.6419  0.4646
   65MOL    H7810446   5.192   6.321   2.332 -1.4655  1.4483  0.8442
   65MOL    H7910447   5.247   6.485   2.317 -0.2449  0.0914  0.7913
   65MOL    H8010448   5.417   6.358   2.155  0.3500  1.1200  0.1715
   65MOL    H8110449   5.377   6.215   2.257 -0.9241  0.3306 -0.0467
   65MOL    C8210450   5.599   6.275   2.371  0.2600 -0.2821 -0.1317
   65MOL    C8310451   5.587   6.169   2.482  0.6012 -0.2653  0.9364
   65MOL    C8410452   5.634   6.038   2.425 -0.1219  0.7528  0.7507
   65MOL    O8510453   5.618   6.007   2.305  0.5518 -0.3694 -0.0059
   65MOL    H8610454   5.682   6.330   2.415  1.4267 -1.5518 -0.7097
   65MOL    H8710455   5.627   6.227   2.277  1.3786  0.0490  0.0305
   65MOL    H8810456   5.483   6.169   2.512  0.7081  1.4651  1.3867
   65MOL    H8910457   5.660   6.192   2.559 -0.4790  0.2009  1.8277
   65MOL    C9010458   5.718   5.941   2.520  0.4388  0.4436 -0.2388
   65MOL    C9110459   5.849   5.899   2.461  0.3103  0.2245  0.2304
   65MOL    C9210460   5.941   5.829   2.558  0.8253 -0.5624  0.0742
   65MOL    O9310461   5.899   5.753   2.644  0.2669  0.2135 -0.6805
   65MOL    H9410462   5.662   5.849   2.540  1.1358 -0.3177 -1.6651
   65MOL    H9510463   5.729   5.987   2.618  1.6847 -0.9293  0.3015
   65MOL    H9610464   5.900   5.988   2.426  1.1807 -0.8046 -1.1526
   65MOL    H9710465   5.848   5.840   2.369  1.1363  0.3176  0.1542
   65MOL    C9810466   6.087   5.858   2.528  0.2439  0.2511  0.1091
   65MOL    C9910467   6.164   5.744   2.468 -0.1963  0.4506 -0.0808
   65MOL   C10010468   6.158   5.751   2.314 -0.1041  0.0577 -0.2568
   65MOL   O10110469   6.054   5.747   2.258  0.3554 -0.4383  0.2121
   65MOL   H10210470   6.138   5.879   2.622  1.3318 -0.2860 -0.3590
   65MOL   H10310471   6.101   5.947   2.467 -1.4752  1.0717  0.8730
   65MOL   H10410472   6.122   5.652   2.509  1.6137 -0.9511 -1.2983
   65MOL   H10510473   6.268   5.753   2.498  0.8175  1.6413 -3.6666
   65MOL   C10610474   6.290   5.755   2.239  0.0783 -0.1142 -0.2590
   65MOL   C10710475   6.303   5.889   2.167  0.3250 -0.2710  0.8292
   65MOL   C10810476   6.431   5.966   2.210 -0.3023  0.1210 -0.2763
   65MOL   O10910477   6.487   5.934   2.316  0.0196  0.1955  0.1601
   65MOL   H11010478   6.284   5.674   2.166 -1.8193  0.3958 -0.6876
   65MOL   H11110479   6.376   5.735   2.303 -0.2410 -0.6062  0.0289
   65MOL   H11210480   6.225   5.962   2.189 -1.0909 -1.7929  0.9491
   65MOL   H11310481   6.287   5.887   2.059  1.2738  0.1957  0.6700
   65MOL   C11410482   6.474   6.084   2.121  0.3957 -0.4870  0.2304
   65MOL   C11510483   6.556   6.188   2.201  0.4755 -0.0137  0.5988
   65MOL   C11610484   6.696   6.127   2.225  0.4049 -0.0243  0.1890
   65MOL   O11710485   6.773   6.086   2.132 -0.1866  0.0560  0.0183
   65MOL   H11810486   6.386   6.127   2.075  0.8930 -0.5650 -0.8104
   65MOL   H11910487   6.527   6.041   2.036 -1.6919  1.5253 -2.1390
   65MOL   H12010488   6.508   6.209   2.297 -1.0681 -3.5344  0.6796
   65MOL   H12110489   6.565   6.276   2.138 -2.6311 -0.2108 -0.1936
   65MOL   C12210490   6.744   6.120   2.369  1.1593  0.2109 -0.4589
   65MOL   C12310491   6.859   6.218   2.395 -0.1114 -0.0182  0.6676
   65MOL   C12410492   6.826   6.363   2.434  0.5566 -0.1680  0.2847
   65MOL   O12510493   6.721   6.419   2.415  0.1129 -0.6062 -0.3441
   65MOL   H12610494   6.780   6.017   2.378 -1.4644 -0.6873  0.0356
   65MOL   H12710495   6.661   6.133   2.438  2.0304  3.7800  0.0131
   65MOL   H12810496   6.926   6.208   2.310  1.8734  1.2166  2.0190
   65MOL   H12910497   6.914   6.175   2.479 -1.3446 -2.2991  0.3397
   65MOL   C13010498   6.940   6.435   2.500 -0.5508  0.0515  0.4439
   65MOL   C13110499   6.939   6.587   2.490 -0.1601  0.0433 -0.3590
   65MOL   C13210500   6.872   6.656   2.613 -0.2793 -0.0065  0.1902
   65MOL   O13310501   6.810   6.592   2.696  0.7674 -0.0394 -0.0665
   65MOL   H13410502   7.025   6.408   2.438 -1.6283  0.2598 -1.1821
   65MOL   H13510503   6.971   6.410   2.601 -2.1132  2.3619  1.5395
   65MOL   H13610504   6.892   6.616   2.396 -0.5849  0.7413  0.0704
   65MOL   H13710505   7.038   6.631   2.492 -0.9797  2.0030 -1.8096
   65MOL   C13810506   6.896   6.805   2.619  0.3484  0.5242  0.6060
   65MOL   C13910507   6.808   6.897   2.532 -0.6893 -0.5844  0.2103
   65MOL   C14010508   6.786   7.037   2.591 -0.5906  1.0329 -0.7096
   65MOL   O14110509   6.867   7.083   2.668  0.3141  0.5165 -0.5894
   65MOL   H14210510   7.002   6.826   2.600 -0.2350  1.2911 -1.9548
   65MOL   H14310511   6.886   6.832   2.725  3.3664  0.4529  0.9583
   65MOL   H14410512   6.714   6.851   2.504 -2.1035  1.9685  0.6161
   65MOL   H14510513   6.867   6.917   2.442 -2.1300  0.3736 -0.5468
   65MOL   C14610514   6.656   7.108   2.566  0.1284 -0.2960 -0.2278
   65MOL   C14710515   6.667   7.261   2.547 -0.0500  0.0478 -1.1888
   65MOL   C14810516   6.695   7.296   2.402  0.7094 -0.1793  0.1530
   65MOL   O14910517   6.700   7.212   2.316 -0.5971 -0.4040 -0.2493
   65MOL   H15010518   6.601   7.088   2.657  0.2916 -1.1049 -0.3019
   65MOL   H15110519   6.589   7.075   2.487 -0.4791 -3.0147  1.3830
   65MOL   H15210520   6.738   7.305   2.617 -2.5250  1.4700  0.4876
   65MOL   H15310521   6.575   7.314   2.572 -0.7216 -1.5996 -0.1103
   65MOL   C15410522   6.689   7.446   2.369  0.0754  0.0827 -0.2511
   65MOL   C15510523   6.704   7.474   2.219  0.1019 -0.4589  0.5172
   65MOL   C15610524   6.565   7.496   2.163 -0.6737  0.2621 -1.0913
   65MOL   O15710525   6.469   7.452   2.218  0.0999  0.3711  0.2787
   65MOL   H15810526   6.770   7.489   2.429 -1.6928  2.4654  0.5477
   65MOL   H15910527   6.603   7.494   2.417 -0.2868 -2.6894  2.0036
   65MOL   H16010528   6.757   7.398   2.161  0.9750 -0.8740  1.8504
   65MOL   H16110529   6.768   7.560   2.199 -2.0325  0.4205 -2.9807
   65MOL   H16210530   6.555   7.552   2.070 -0.4246 -0.9806 -1.8911
   66MOL     C110531   5.250   1.107   7.341  0.2988  0.0345 -0.4890
   66MOL     C210532   5.356   1.213   7.355  0.3177  0.8951 -0.3113
   66MOL     C310533   5.480   1.182   7.444  0.0492  0.3234 -0.3546
   66MOL     O410534   5.543   1.076   7.436  0.2538  0.1527  0.2432
   66MOL     H510535   5.201   1.097   7.439  1.2099 -2.1201 -0.2184
   66MOL     H610536   5.173   1.138   7.270  1.2860  0.5557 -1.3271
   66MOL     H710537   5.311   1.305   7.394 -0.5005 -0.3424  1.7449
   66MOL     H810538   5.380   1.249   7.255  2.5969 -0.1199 -0.1422
   66MOL     H910539   5.290   1.010   7.311 -1.2004  0.0441 -2.5949
   66MOL    C1010540   5.543   1.297   7.518 -0.4448  0.6728  0.1585
   66MOL    C1110541   5.676   1.258   7.595  1.4524 -0.1733 -0.7326
   66MOL    C1210542   5.645   1.227   7.744  0.0654 -0.6742 -0.2018
   66MOL    O1310543   5.619   1.319   7.824 -0.3176 -0.2733 -0.1203
   66MOL    H1410544   5.470   1.348   7.580  0.9251  0.0811  2.3080
   66MOL    H1510545   5.572   1.369   7.441 -0.2704 -0.5783 -0.9702
   66MOL    H1610546   5.746   1.340   7.581 -1.8173  2.4860 -1.9196
   66MOL    H1710547   5.724   1.171   7.548  0.9038 -0.1454 -1.3549
   66MOL    C1810548   5.640   1.089   7.790  0.4314 -0.6625 -0.0315
   66MOL    C1910549   5.515   1.065   0.029 -1.2062 -0.5232 -0.2547
   66MOL    C2010550   5.381   1.034   7.828 -0.4675 -0.0046  0.2880
   66MOL    O2110551   5.364   1.055   7.705 -0.4132 -0.2079 -0.0650
   66MOL    H2210552   5.725   1.057   7.851  0.9901  0.4814 -0.1974
   66MOL    H2310553   5.639   1.020   7.706 -2.2935 -1.9931  1.0262
   66MOL    H2410554   5.505   1.154   0.091 -0.2142 -0.4704 -0.1564
   66MOL    H2510555   5.528   0.987   0.104  1.9541 -1.9394 -2.1304
   66MOL    C2610556   5.271   0.981   0.062 -0.2943 -0.7290 -0.1949
   66MOL    C2710557   5.130   0.975   0.003 -0.1334  0.2221 -0.0552
   66MOL    C2810558   5.033   0.943   0.112  0.4005  0.3434  0.1260
   66MOL    O2910559   5.068   0.880   0.208 -0.4263  0.1280 -0.4774
   66MOL    H3010560   5.259   1.051   0.144 -1.2811  0.5693 -1.4171
   66MOL    H3110561   5.312   0.892   0.110 -0.9401  1.3384  4.4042
   66MOL    H3210562   5.133   0.883   7.804  1.4562 -1.0589  1.9642
   66MOL    H3310563   5.098   1.064   7.807 -3.0959 -1.3233 -0.9348
   66MOL    C3410564   4.885   0.991   0.088 -0.3600 -0.3057  0.0545
   66MOL    C3510565   4.817   1.012   0.232  0.2789  0.3596  0.0648
   66MOL    C3610566   4.744   1.146   0.229 -0.3967 -0.0486 -0.5840
   66MOL    O3710567   4.631   1.164   0.185  0.3880  0.0391  0.2171
   66MOL    H3810568   4.820   0.926   0.029  1.0024  0.3175 -2.2275
   66MOL    H3910569   4.893   1.088   0.039 -0.7796 -0.3712 -0.1445
   66MOL    H4010570   4.899   1.022   0.303  1.0168  0.5241 -0.8057
   66MOL    H4110571   4.743   0.937   0.260  0.5273 -0.4040 -1.3052
   66MOL    C4210572   4.835   1.270   0.255  0.4685  0.3242 -0.1141
   66MOL    C4310573   4.768   1.371   0.344  0.4107 -0.1716 -0.0773
   66MOL    C4410574   4.858   1.433   0.448  0.6242  0.2850 -0.1806
   66MOL    O4510575   4.978   1.394   0.473  0.6913 -0.2386 -0.5265
   66MOL    H4610576   4.841   1.316   0.156  0.2686  1.2014  0.2781
   66MOL    H4710577   4.936   1.246   0.289 -0.2300 -1.6039  0.6713
   66MOL    H4810578   4.685   1.319   0.391  1.2145 -2.5072 -1.1516
   66MOL    H4910579   4.728   1.455   0.287  1.2081 -0.3581 -0.9405
   66MOL    C5010580   4.781   1.543   0.522  0.0696  0.4709 -0.1012
   66MOL    C5110581   4.736   1.494   0.662  0.3757  0.2245  0.7537
   66MOL    C5210582   4.585   1.493   0.662  0.4135  0.0527 -0.4336
   66MOL    O5310583   4.529   1.474   0.554  0.6427  0.3777 -0.2570
   66MOL    H5410584   4.720   1.607   0.458  1.4218  3.1844  1.2433
   66MOL    H5510585   4.850   1.623   0.548 -2.1285  1.7665  2.0200
   66MOL    H5610586   4.775   1.559   0.740  0.5936 -0.1568  0.9670
   66MOL    H5710587   4.760   1.389   0.678 -0.3090 -0.0847 -0.1940
   66MOL    C5810588   4.514   1.516   0.791 -1.0123  0.6994 -0.1032
   66MOL    C5910589   4.375   1.586   0.769  0.2823 -0.4065 -0.0521
   66MOL    C6010590   4.301   1.601   0.910  0.5184  0.5155 -0.3738
   66MOL    O6110591   4.328   1.525   1.005 -0.0304  0.0115 -0.4790
   66MOL    H6210592   4.578   1.578   0.854 -1.9542  2.6236 -0.9913
   66MOL    H6310593   4.501   1.422   0.845  2.7831 -0.8393 -1.7273
   66MOL    H6410594   4.323   1.528   0.692 -0.5546  1.3562 -0.8370
   66MOL    H6510595   4.370   1.692   0.744 -1.7557 -0.2469  0.8658
   66MOL    C6610596   4.200   1.715   0.928 -0.2396  0.4852  0.2171
   66MOL    C6710597   4.098   1.696   1.038 -0.2349 -0.2698 -0.3616
   66MOL    C6810598   3.961   1.644   0.989 -0.4783  0.5139  0.9736
   66MOL    O6910599   3.922   1.671   0.869  0.3107 -0.3023  0.1347
   66MOL    H7010600   4.157   1.742   0.832 -1.1698 -0.6321  0.3013
   66MOL    H7110601   4.260   1.799   0.961  0.2524  0.1710  0.1224
   66MOL    H7210602   4.077   1.787   1.094 -0.6416 -0.7009  0.2000
   66MOL    H7310603   4.149   1.625   1.103 -0.5742 -0.9311 -0.8091
   66MOL    C7410604   3.885   1.551   1.091  0.3788  0.0789 -0.6451
   66MOL    C7510605   3.745   1.522   1.034  0.7145 -0.1442 -0.2949
   66MOL    C7610606   3.652   1.462   1.139  0.5857  1.3985 -0.3581
   66MOL    O7710607   3.632   1.342   1.158  0.0654  0.4816  0.1697
   66MOL    H7810608   3.887   1.613   1.181  0.4410 -0.1938 -0.4555
   66MOL    H7910609   3.945   1.462   1.110  0.4472 -0.0534 -1.4538
   66MOL    H8010610   3.750   1.465   0.942  0.5219 -1.6044  0.5867
   66MOL    H8110611   3.709   1.618   0.996 -0.8243 -0.9636 -0.9519
   66MOL    C8210612   3.586   1.566   1.225 -0.2288 -0.9469 -0.3686
   66MOL    C8310613   3.553   1.521   1.373  0.2755 -0.6093  0.4528
   66MOL    C8410614   3.545   1.641   1.462 -0.0868  0.0303 -0.0526
   66MOL    O8510615   3.596   1.749   1.440 -0.1041 -0.3197  0.1580
   66MOL    H8610616   3.495   1.601   1.177 -0.1626  0.1764  0.3073
   66MOL    H8710617   3.652   1.652   1.227 -0.8970 -0.4551  0.8615
   66MOL    H8810618   3.632   1.456   1.411  0.3003 -0.0911  1.2872
   66MOL    H8910619   3.462   1.462   1.381  0.4572 -0.8121  1.0390
   66MOL    C9010620   3.480   1.619   1.606 -0.9495 -0.2015  1.0157
   66MOL    C9110621   3.326   1.634   1.611  0.1529  0.2929 -0.0624
   66MOL    C9210622   3.273   1.726   1.716  0.6523 -0.5814  0.0153
   66MOL    O9310623   3.309   1.718   1.831  0.1809 -0.1549 -0.1669
   66MOL    H9410624   3.536   1.693   1.664 -1.9873  0.8323  0.7205
   66MOL    H9510625   3.512   1.518   1.632 -0.3137 -0.3559 -0.3453
   66MOL    H9610626   3.290   1.531   1.607 -3.3590  1.4935 -0.5627
   66MOL    H9710627   3.291   1.660   1.511  0.4247 -2.4714 -0.9288
   66MOL    C9810628   3.158   1.816   1.671  0.2637  0.5714  0.6504
   66MOL    C9910629   3.101   1.906   1.781 -0.1663  0.2716  0.1278
   66MOL   C10010630   3.104   2.052   1.758  0.1159 -0.1096 -0.3506
   66MOL   O10110631   3.125   2.094   1.650 -0.3311 -0.6668 -0.1763
   66MOL   H10210632   3.087   1.771   1.602  2.3351  0.8758 -1.7757
   66MOL   H10310633   3.214   1.867   1.592  0.1470 -1.2400 -0.6302
   66MOL   H10410634   3.140   1.891   1.881  0.9595  1.5107 -0.1148
   66MOL   H10510635   2.997   1.872   1.786 -0.4970  0.9717 -1.6692
   66MOL   C10610636   3.069   2.144   1.871  0.2265 -0.1748  0.0432
   66MOL   C10710637   2.948   2.229   1.854 -0.3259 -0.0992 -0.1130
   66MOL   C10810638   2.933   2.353   1.936 -0.0668  0.4018  0.5152
   66MOL   O10910639   3.010   2.384   2.029  0.2772  0.4826  0.1727
   66MOL   H11010640   3.143   2.224   1.874 -0.6404  0.6037  1.2370
   66MOL   H11110641   3.075   2.085   1.962  5.0986 -0.1571 -0.1056
   66MOL   H11210642   2.860   2.170   1.876 -2.0907  1.3846 -2.8827
   66MOL   H11310643   2.938   2.275   1.755  0.4971 -0.6290 -0.4496
   66MOL   C11410644   2.809   2.437   1.907 -0.1128 -0.3349  0.1508
   66MOL   C11510645   2.842   2.581   1.870  0.3735  0.5406 -0.2245
   66MOL   C11610646   2.825   2.598   1.723  0.2596  0.0399 -0.3701
   66MOL   O11710647   2.851   2.512   1.641 -0.5867 -0.4958 -0.1745
   66MOL   H11810648   2.751   2.436   1.999 -1.0978 -0.5348 -0.4596
   66MOL   H11910649   2.745   2.388   1.834  0.8336 -0.8578 -0.3379
   66MOL   H12010650   2.942   2.611   1.902 -0.4186  0.2926  2.6283
   66MOL   H12110651   2.775   2.638   1.935 -1.4000 -0.4999 -1.0946
   66MOL   C12210652   2.756   2.729   1.679  0.8208  0.4814  0.4700
   66MOL   C12310653   2.802   2.779   1.543  0.0129  0.5363 -0.8986
   66MOL   C12410654   2.855   2.922   1.551 -0.1749 -0.4788 -0.2137
   66MOL   O12510655   2.820   2.995   1.643 -0.4778 -0.3279 -0.3687
   66MOL   H12610656   2.761   2.796   1.765 -1.8494 -0.1662  1.1891
   66MOL   H12710657   2.647   2.728   1.676  0.6722 -0.4156  3.9383
   66MOL   H12810658   2.725   2.774   1.466 -0.2017 -1.3326 -0.5857
   66MOL   H12910659   2.887   2.717   1.515 -1.2857 -1.8927  0.3887
   66MOL   C13010660   2.967   2.970   1.449 -0.7868 -0.2192 -0.3350
   66MOL   C13110661   3.003   3.113   1.474  0.1278  0.5186  1.0326
   66MOL   C13210662   2.981   3.198   1.345 -0.3411 -0.5228 -0.1738
   66MOL   O13310663   2.909   3.160   1.259  0.1806  0.5268  0.3528
   66MOL   H13410664   2.919   2.950   1.354 -0.9458  1.6243 -0.6640
   66MOL   H13510665   3.055   2.907   1.447 -0.8981 -0.5416  2.2908
   66MOL   H13610666   3.109   3.121   1.497  0.5156 -2.3195  0.4012
   66MOL   H13710667   2.953   3.165   1.556 -2.9177 -0.5162 -0.0825
   66MOL   C13810668   3.066   3.321   1.344 -0.3434  0.2941 -0.6601
   66MOL   C13910669   3.120   3.341   1.201 -0.6340 -1.2077 -0.2930
   66MOL   C14010670   3.196   3.475   1.187 -0.2992 -0.4204  0.0819
   66MOL   O14110671   3.316   3.485   1.211  0.1295 -0.2078  0.4369
   66MOL   H14210672   3.145   3.313   1.419  1.7373 -1.8781 -2.9636
   66MOL   H14310673   3.000   3.404   1.367 -2.1757 -0.7127 -2.1322
   66MOL   H14410674   3.036   3.343   1.131 -1.5013 -1.3091  0.7166
   66MOL   H14510675   3.176   3.256   1.163 -1.4120 -1.3318 -1.2006
   66MOL   C14610676   3.123   3.597   1.136 -0.2017 -0.2824  0.5616
   66MOL   C14710677   3.059   3.676   1.250  0.6131 -0.2183 -0.2339
   66MOL   C14810678   2.902   3.663   1.254 -0.7143  0.7739  0.5947
   66MOL   O14910679   2.850   3.565   1.211  0.6507  1.0038  0.1104
   66MOL   H15010680   3.041   3.560   1.075  0.5020 -0.0791 -0.5230
   66MOL   H15110681   3.191   3.667   1.088  0.0899  1.3599  3.2189
   66MOL   H15210682   3.084   3.780   1.231 -1.4870  0.4197  0.4027
   66MOL   H15310683   3.098   3.650   1.348  2.5019  0.7288 -0.6967
   66MOL   C15410684   2.824   3.771   1.331 -0.5185 -0.2687 -0.0086
   66MOL   C15510685   2.698   3.719   1.397 -1.2745 -0.3191 -0.3039
   66MOL   C15610686   2.574   3.728   1.312  0.8452 -0.0590 -0.0644
   66MOL   O15710687   2.587   3.738   1.193 -0.0841  0.2689  0.0691
   66MOL   H15810688   2.803   3.854   1.264 -0.0874  0.0875  0.2976
   66MOL   H15910689   2.894   3.803   1.407  3.1134 -1.5955 -2.6612
   66MOL   H16010690   2.670   3.778   1.484 -0.3522 -0.9684  0.4376
   66MOL   H16110691   2.714   3.617   1.432 -0.6007  0.7037  2.4883
   66MOL   H16210692   2.479   3.732   1.366  1.4928  1.7155  0.9795
   67MOL     C110693   6.315   2.834   0.043 -0.2370 -0.2641 -0.0093
   67MOL     C210694   6.290   2.702   7.829 -0.1412 -0.2753 -0.5334
   67MOL     C310695   6.377   2.588   0.018 -0.2391 -0.2724 -0.1723
   67MOL     O410696   6.495   2.601   7.850 -0.4073  0.2930  0.0479
   67MOL     H510697   6.411   2.873   0.009  0.2475 -1.5442 -0.1451
   67MOL     H610698   6.249   2.918   0.019 -0.0649  0.2544  1.2902
   67MOL     H710699   6.299   2.713   7.721 -1.0296  1.5023 -0.4346
   67MOL     H810700   6.189   2.661   7.837 -0.5302  0.4638 -1.6041
   67MOL     H910701   6.297   2.821   0.150  0.3233  0.1761  0.1383
   67MOL    C1010702   6.322   2.473   0.097 -0.0683  0.1403 -0.3436
   67MOL    C1110703   6.428   2.399   0.175  0.1209 -0.1833  0.6082
   67MOL    C1210704   6.356   2.298   0.268 -0.1927 -0.0477 -0.5469
   67MOL    O1310705   6.300   2.198   0.225  0.8904 -1.0335 -0.4926
   67MOL    H1410706   6.250   2.420   0.034  1.9384 -1.6160 -1.2374
   67MOL    H1510707   6.258   2.522   0.169  1.2059  0.3410  0.6678
   67MOL    H1610708   6.488   2.471   0.230  0.9822 -0.9111  0.6345
   67MOL    H1710709   6.494   2.361   0.097  0.8701  0.6450  0.8306
   67MOL    C1810710   6.366   2.322   0.415  0.3774  0.0616 -0.0345
   67MOL    C1910711   6.285   2.230   0.508 -0.2335  0.3322  0.0691
   67MOL    C2010712   6.377   2.118   0.569 -0.0136  0.2848 -0.4329
   67MOL    O2110713   6.379   2.004   0.529 -0.0392 -0.7674  0.0172
   67MOL    H2210714   6.349   2.426   0.441 -2.6494 -0.4611  0.2430
   67MOL    H2310715   6.471   2.309   0.441  0.3086  0.4857  0.4735
   67MOL    H2410716   6.195   2.177   0.477  0.6521 -2.5093  2.1385
   67MOL    H2510717   6.250   2.299   0.585 -1.4558  1.7515 -1.7113
   67MOL    C2610718   6.461   2.167   0.698  0.2297  0.4092 -0.1020
   67MOL    C2710719   6.520   2.054   0.787 -0.1031 -0.6709 -0.1777
   67MOL    C2810720   6.420   2.009   0.887  0.0098 -0.4064 -0.0173
   67MOL    O2910721   6.301   2.013   0.856 -0.0246  0.2964 -0.0504
   67MOL    H3010722   6.397   2.235   0.754  0.6573 -0.1836  1.1076
   67MOL    H3110723   6.545   2.226   0.661  0.2361 -0.6513 -1.8223
   67MOL    H3210724   6.610   2.072   0.845  0.5086  1.9865 -1.8327
   67MOL    H3310725   6.555   1.979   0.717  0.1496 -0.9539  0.2512
   67MOL    C3410726   6.475   1.981   1.025 -0.5073 -0.0002 -0.3982
   67MOL    C3510727   6.371   1.917   1.114 -1.2280 -0.3648  0.1722
   67MOL    C3610728   6.376   1.763   1.109  0.5656  0.0501 -0.6538
   67MOL    O3710729   6.478   1.698   1.137 -0.0692  0.0048 -0.5274
   67MOL    H3810730   6.519   2.068   1.074 -1.6699  0.3481  0.0428
   67MOL    H3910731   6.560   1.914   1.008 -0.0665  0.1706  1.0326
   67MOL    H4010732   6.277   1.972   1.107 -0.7324  0.7602  1.8427
   67MOL    H4110733   6.400   1.927   1.219  1.6496 -0.2110 -0.5818
   67MOL    C4210734   6.245   1.705   1.072  0.1543  0.5146  0.6263
   67MOL    C4310735   6.236   1.551   1.093 -0.7219 -0.1970 -0.7216
   67MOL    C4410736   6.100   1.500   1.150 -0.4920 -0.5820  0.6638
   67MOL    O4510737   6.022   1.582   1.192  0.2389 -0.1564 -0.0224
   67MOL    H4610738   6.230   1.722   0.965  1.6346 -4.0557 -0.4154
   67MOL    H4710739   6.168   1.752   1.133 -1.4368 -1.5442  0.2430
   67MOL    H4810740   6.315   1.519   1.162 -0.5750 -0.3055 -0.9372
   67MOL    H4910741   6.255   1.505   0.996  0.0121 -0.8162 -0.2943
   67MOL    C5010742   6.058   1.355   1.125  0.2379  0.0432 -0.0466
   67MOL    C5110743   5.962   1.310   1.233  0.5764  0.4083 -0.1174
   67MOL    C5210744   5.953   1.157   1.227 -1.0307  0.0139 -0.8712
   67MOL    O5310745   6.052   1.088   1.252  0.4309 -0.2232  0.1760
   67MOL    H5410746   6.144   1.291   1.107  0.8386  1.6882 -3.3305
   67MOL    H5510747   6.007   1.362   1.029 -1.4006  1.3936  0.8821
   67MOL    H5610748   5.865   1.359   1.223 -0.0586 -0.4039  1.8512
   67MOL    H5710749   5.979   1.336   1.337 -2.5756  0.0440  0.5531
   67MOL    C5810750   5.815   1.098   1.226 -0.0442  0.0908 -0.2753
   67MOL    C5910751   5.808   0.938   1.238 -0.1097 -0.9692  0.0038
   67MOL    C6010752   5.671   0.887   1.271 -0.0144  0.3980 -0.6763
   67MOL    O6110753   5.619   0.900   1.377  0.4397 -0.9817 -0.3175
   67MOL    H6210754   5.751   1.133   1.145  0.3515  2.0035  0.2333
   67MOL    H6310755   5.774   1.148   1.313  0.2861  1.2764 -0.7961
   67MOL    H6410756   5.872   0.910   1.322  2.7330 -1.2398 -2.1765
   67MOL    H6510757   5.853   0.882   1.156 -0.7337  0.9814 -1.7053
   67MOL    C6610758   5.593   0.826   1.158 -0.1652 -0.2267  0.3385
   67MOL    C6710759   5.516   0.925   1.075 -0.8606  0.3869  0.4255
   67MOL    C6810760   5.363   0.896   1.064  0.1925 -0.0590 -0.0431
   67MOL    O6910761   5.301   0.814   1.133 -0.4118 -0.3021  0.2432
   67MOL    H7010762   5.521   0.754   1.196 -0.5185 -0.8652 -1.4706
   67MOL    H7110763   5.659   0.760   1.102 -0.7066 -0.3979 -0.1004
   67MOL    H7210764   5.549   0.932   0.972  2.8171 -2.2256  1.3316
   67MOL    H7310765   5.542   1.022   1.118  1.1316 -0.0916  0.3364
   67MOL    C7410766   5.282   0.978   0.960 -0.6248 -0.8090 -0.9757
   67MOL    C7510767   5.128   0.956   0.973 -0.1335 -0.0685 -0.2523
   67MOL    C7610768   5.077   0.822   0.907 -1.1661 -0.3549 -0.2249
   67MOL    O7710769   5.103   0.792   0.790  0.2205 -0.0709  1.1047
   67MOL    H7810770   5.318   0.938   0.865 -1.2458 -0.5531 -1.3160
   67MOL    H7910771   5.316   1.081   0.963  0.7755 -1.2842 -0.1086
   67MOL    H8010772   5.091   1.040   0.914  1.9344  0.8635 -0.2950
   67MOL    H8110773   5.083   0.966   1.071  1.8687  0.7689  0.6214
   67MOL    C8210774   4.999   0.734   0.999 -0.6511 -0.1217  0.8399
   67MOL    C8310775   4.945   0.608   0.932 -0.6828  0.5973 -0.2033
   67MOL    C8410776   4.793   0.601   0.933  0.1671  0.1661 -0.2405
   67MOL    O8510777   4.724   0.712   0.935  0.0574  1.1976 -0.2195
   67MOL    H8610778   4.930   0.814   1.025 -0.2983  0.4025  0.1702
   67MOL    H8710779   5.057   0.704   1.087  0.7894 -1.8791 -0.6685
   67MOL    H8810780   4.976   0.531   1.003  0.0450 -0.3879 -1.5742
   67MOL    H8910781   4.989   0.583   0.836 -0.3986 -0.4640  0.1995
   67MOL    C9010782   4.732   0.461   0.949  0.4907 -0.3983 -0.2209
   67MOL    C9110783   4.648   0.438   0.822 -0.4608 -0.3201  0.0783
   67MOL    C9210784   4.578   0.304   0.825 -0.6671 -0.0862  0.8928
   67MOL    O9310785   4.557   0.242   0.928 -0.1595  0.6513  0.4164
   67MOL    H9410786   4.664   0.477   1.033  0.6711  1.8088 -0.4470
   67MOL    H9510787   4.802   0.385   0.982  1.6697 -0.7315 -3.3584
   67MOL    H9610788   4.717   0.434   0.737 -1.2241 -0.3995 -0.5427
   67MOL    H9710789   4.583   0.524   0.805  0.2418  0.6977  2.3729
   67MOL    C9810790   4.539   0.245   0.686 -0.2839  0.2417 -0.7033
   67MOL    C9910791   4.474   0.108   0.689  0.2253  0.0802 -1.1534
   67MOL   C10010792   4.559   0.002   0.631  0.0395 -0.3789  0.5839
   67MOL   O10110793   4.590   7.852   0.506  0.3463  0.3777  0.3911
   67MOL   H10210794   4.636   0.240   0.636 -1.6636  0.5003 -3.4971
   67MOL   H10310795   4.480   0.315   0.627  0.1678 -1.2471 -2.9977
   67MOL   H10410796   4.378   0.105   0.636 -0.1916  1.7270 -0.5312
   67MOL   H10510797   4.447   0.087   0.792  1.8757  1.6516 -0.3878
   67MOL   C10610798   4.617   7.764   0.735 -0.3548  0.1987 -0.7837
   67MOL   C10710799   4.768   7.741   0.717  0.1775 -0.0310 -0.2672
   67MOL   C10810800   4.849   7.825   0.809  0.3650  0.3126  0.1132
   67MOL   O10910801   4.824   0.079   0.843  0.2155  0.4819 -0.0824
   67MOL   H11010802   4.570   7.666   0.732  0.1039 -0.1341  1.7614
   67MOL   H11110803   4.589   7.790   0.837 -0.7328  1.6084 -1.2292
   67MOL   H11210804   4.797   7.777   0.618 -2.8418  2.1208 -0.4548
   67MOL   H11310805   4.803   7.640   0.738 -1.3695 -0.5507 -0.1313
   67MOL   C11410806   4.967   7.750   0.865 -0.5318 -1.8466 -0.4245
   67MOL   C11510807   5.080   7.839   0.934  0.4593 -0.3029 -0.1148
   67MOL   C11610808   5.048   7.854   1.087  0.2819 -0.4698 -0.5109
   67MOL   O11710809   5.061   7.761   1.166  0.0201  0.1507  0.1465
   67MOL   H11810810   5.019   7.689   0.791 -0.0460 -1.0113 -0.7700
   67MOL   H11910811   4.926   7.692   0.949 -2.1436  0.3554  0.3481
   67MOL   H12010812   5.092   0.080   0.891 -3.3784  0.5284  0.6405
   67MOL   H12110813   5.180   7.795   0.942  1.2531  1.4523 -0.1261
   67MOL   C12210814   5.020   0.137   1.146 -0.0646  0.3985  0.0858
   67MOL   C12310815   5.023   0.144   1.306 -0.4184  0.1314  0.4570
   67MOL   C12410816   4.991   0.286   1.359 -0.0188 -0.2210  0.6178
   67MOL   O12510817   4.957   0.371   1.279 -0.1675 -0.5365 -0.2426
   67MOL   H12610818   4.924   0.168   1.105 -0.0958  1.5057  0.9734
   67MOL   H12710819   5.094   0.206   1.105  0.2381 -0.1226 -0.2573
   67MOL   H12810820   5.116   0.107   1.347 -0.0091 -1.8572 -2.1661
   67MOL   H12910821   4.960   0.062   1.341 -1.8541  0.4918 -1.2034
   67MOL   C13010822   5.003   0.320   1.507  0.4772 -0.3182  0.0770
   67MOL   C13110823   4.912   0.443   1.540 -0.5127  0.6327 -0.1606
   67MOL   C13210824   4.987   0.578   1.552  0.4502 -0.6564 -0.0077
   67MOL   O13310825   5.111   0.582   1.557  0.1227  0.1231 -0.3014
   67MOL   H13410826   5.102   0.352   1.538  0.2192 -0.0911  0.6749
   67MOL   H13510827   4.969   0.237   1.568 -0.6196 -1.9143 -2.6092
   67MOL   H13610828   4.872   0.429   1.641  1.6919 -3.4581  0.2543
   67MOL   H13710829   4.833   0.446   1.465 -1.8278  0.5641  1.1796
   67MOL   C13810830   4.900   0.699   1.562  0.2127  0.1632  0.4055
   67MOL   C13910831   4.987   0.828   1.555 -0.1931  0.4472  0.3138
   67MOL   C14010832   5.024   0.866   1.411 -0.7115 -1.1648  0.2377
   67MOL   O14110833   4.947   0.840   1.320 -1.1153 -0.5614 -0.2528
   67MOL   H14210834   4.848   0.692   1.657  0.8906  0.6692  0.8166
   67MOL   H14310835   4.821   0.707   1.486 -0.2126 -1.5081  0.6560
   67MOL   H14410836   5.078   0.813   1.612 -2.3107 -2.3942  3.1403
   67MOL   H14510837   4.925   0.912   1.585  1.1888  3.2845 -4.3014
   67MOL   C14610838   5.160   0.937   1.381  0.3519 -0.1393 -0.3508
   67MOL   C14710839   5.283   0.854   1.424 -0.2571  0.0597 -0.7449
   67MOL   C14810840   5.329   0.904   1.563 -0.3853  0.2841 -0.6934
   67MOL   O14910841   5.280   1.006   1.617  0.8035  0.3972  0.4345
   67MOL   H15010842   5.172   1.042   1.406  0.3430 -0.4000  0.7741
   67MOL   H15110843   5.163   0.946   1.272 -0.2841  1.6619 -0.2276
   67MOL   H15210844   5.359   0.862   1.346 -0.8495  2.4777 -1.0993
   67MOL   H15310845   5.264   0.747   1.437 -0.9079  0.3675  0.9307
   67MOL   C15410846   5.452   0.831   1.622  0.3136 -0.1130  0.4567
   67MOL   C15510847   5.410   0.732   1.726  0.1479 -0.3010  0.9068
   67MOL   C15610848   5.452   0.767   1.875 -0.4697  0.8815  0.1558
   67MOL   O15710849   5.506   0.875   1.905  0.2501 -0.1345 -0.5077
   67MOL   H15810850   5.529   0.899   1.658  0.5419 -0.6164  0.9218
   67MOL   H15910851   5.489   0.777   1.535 -0.9017 -0.1233 -0.0637
   67MOL   H16010852   5.448   0.631   1.707  2.9437  0.5482  1.6975
   67MOL   H16110853   5.302   0.726   1.726  0.0372  1.4346  1.8984
   67MOL   H16210854   5.419   0.675   1.924  2.9893 -1.4753 -1.7327
   68MOL     C110855   2.992   7.755   3.479  0.8530 -0.5795  0.7088
   68MOL     C210856   3.060   7.619   3.456 -0.1195 -0.2138  0.3927
   68MOL     C310857   2.994   7.505   3.539 -0.4028  0.6175  0.6147
   68MOL     O410858   2.930   7.514   3.641 -0.0137 -0.6769  0.8020
   68MOL     H510859   3.052   7.841   3.447 -1.0167  0.1510 -0.9142
   68MOL     H610860   2.893   7.751   3.434  0.8590 -0.7729  0.7120
   68MOL     H710861   3.163   7.635   3.488  1.2493 -1.6727 -3.0561
   68MOL     H810862   3.051   7.591   3.351 -0.6093  1.4957 -0.0290
   68MOL     H910863   2.985   7.757   3.588  1.0700 -0.0056  0.7134
   68MOL    C1010864   3.027   7.364   3.486 -0.5280 -0.6032  0.2499
   68MOL    C1110865   3.176   7.329   3.455  0.2830 -0.0729  0.0183
   68MOL    C1210866   3.216   7.189   3.496  0.0492 -0.1237 -0.0358
   68MOL    O1310867   3.136   7.103   3.526  0.0179  0.8071 -0.3237
   68MOL    H1410868   2.953   7.354   3.406 -0.8714 -0.9036  0.6046
   68MOL    H1510869   2.987   7.302   3.566 -3.7225  2.2605  0.9984
   68MOL    H1610870   3.238   7.399   3.510  1.7100  0.4578 -2.1983
   68MOL    H1710871   3.201   7.353   3.352 -1.2867  1.3650 -0.0410
   68MOL    C1810872   3.371   7.177   3.497  0.3321 -0.2288 -0.0761
   68MOL    C1910873   3.413   7.029   3.508 -0.4040 -1.0560 -0.3139
   68MOL    C2010874   3.517   7.005   3.623  0.4217  0.2638  1.0041
   68MOL    O2110875   3.634   6.988   3.590  0.5524 -0.4159 -0.5657
   68MOL    H2210876   3.410   7.231   3.583 -0.1303 -2.6872  1.7267
   68MOL    H2310877   3.416   7.232   3.415 -4.0178  1.6486 -1.3712
   68MOL    H2410878   3.458   7.004   3.412 -0.5525 -0.1345 -0.6323
   68MOL    H2510879   3.327   6.963   3.514  0.4456 -2.0203  2.1656
   68MOL    C2610880   3.471   6.974   3.766 -0.0163 -0.1027 -0.3673
   68MOL    C2710881   3.536   7.055   3.876 -0.4324  0.0509  0.5316
   68MOL    C2810882   3.508   7.011   4.022 -0.4855 -0.3910 -0.4430
   68MOL    O2910883   3.467   6.896   4.036 -0.0127  0.7345 -0.6669
   68MOL    H3010884   3.489   6.867   3.777  1.3981  0.3118  1.7168
   68MOL    H3110885   3.362   6.976   3.776  0.0623  1.5567  0.2445
   68MOL    H3210886   3.494   7.155   3.875 -2.5790 -0.8355 -0.9570
   68MOL    H3310887   3.644   7.055   3.862 -0.1695 -0.6755  2.4008
   68MOL    C3410888   3.531   7.105   4.139 -0.0435  0.3538 -1.3638
   68MOL    C3510889   3.457   7.054   4.258  0.7095 -0.2529 -0.1901
   68MOL    C3610890   3.375   7.156   4.346 -0.1023 -0.0855 -0.4040
   68MOL    O3710891   3.403   7.274   4.345 -0.0186  0.1859 -0.1265
   68MOL    H3810892   3.511   7.211   4.122  2.5261  1.4039  1.7026
   68MOL    H3910893   3.638   7.112   4.155 -0.2800  5.0931 -1.1977
   68MOL    H4010894   3.525   6.998   4.322 -1.2868 -1.1313  1.2050
   68MOL    H4110895   3.381   6.985   4.222 -0.5505  0.5457  0.9081
   68MOL    C4210896   3.263   7.098   4.432  0.2539  0.2987 -0.3585
   68MOL    C4310897   3.131   7.154   4.376 -0.5727 -1.1143 -0.5379
   68MOL    C4410898   3.094   7.293   4.432 -0.6926  0.2285 -0.2579
   68MOL    O4510899   3.083   7.301   4.559  0.8865 -0.2234 -0.7294
   68MOL    H4610900   3.270   7.136   4.534  1.8518  0.4642 -0.5212
   68MOL    H4710901   3.259   6.989   4.433 -2.7243  0.3287  2.8832
   68MOL    H4810902   3.058   7.083   4.415 -0.7035 -0.5888  0.1803
   68MOL    H4910903   3.115   7.150   4.268  1.5954  4.7033 -1.2303
   68MOL    C5010904   3.075   7.401   4.327  0.4032  0.0874  0.2883
   68MOL    C5110905   3.042   7.533   4.398  0.1560 -0.6115 -0.0778
   68MOL    C5210906   3.109   7.646   4.319 -0.0031 -0.1989 -0.0228
   68MOL    O5310907   3.154   7.625   4.207 -0.3637  0.3006 -0.2319
   68MOL    H5410908   2.995   7.365   4.261 -1.3469  1.9501  1.3281
   68MOL    H5510909   3.171   7.402   4.275 -0.0175  0.1943 -0.5086
   68MOL    H5610910   3.092   7.527   4.494  1.4225  0.1343 -0.6708
   68MOL    H5710911   2.938   7.561   4.417  0.4903  0.1467  0.6616
   68MOL    C5810912   3.121   7.786   4.382  0.9290 -0.2447 -0.2465
   68MOL    C5910913   3.174   0.041   4.288  0.4490  0.1369 -0.5567
   68MOL    C6010914   3.070   0.138   4.246 -0.7398 -0.3777  0.0808
   68MOL    O6110915   2.967   0.149   4.312  0.0566  0.0523 -0.5235
   68MOL    H6210916   3.195   7.783   4.463  1.4120  0.0550 -0.6742
   68MOL    H6310917   3.019   7.806   4.414  1.3250  1.1880  0.1431
   68MOL    H6410918   3.234   7.859   4.206  0.5964  0.2505 -0.5063
   68MOL    H6510919   3.249   0.095   4.345 -0.2481  0.2500  0.2510
   68MOL    C6610920   3.098   0.225   4.127 -0.0375 -0.2560 -0.7730
   68MOL    C6710921   2.992   0.336   4.111  0.0692 -0.4293 -0.0685
   68MOL    C6810922   3.037   0.469   4.171  0.0441 -0.1552  0.5373
   68MOL    O6910923   3.156   0.497   4.178  0.0427 -0.4413  0.2539
   68MOL    H7010924   3.085   0.159   4.042 -2.3811  0.0027 -0.6625
   68MOL    H7110925   3.201   0.261   4.127 -0.2611  0.4139 -1.8696
   68MOL    H7210926   2.898   0.307   4.158 -0.6905  1.3388 -0.4826
   68MOL    H7310927   2.964   0.356   4.008 -0.7149 -0.0655  0.2146
   68MOL    C7410928   2.931   0.567   4.218 -0.0411  0.2065 -0.1910
   68MOL    C7510929   2.832   0.510   4.325  0.1385  0.2714  0.1346
   68MOL    C7610930   2.792   0.620   4.423 -0.5429 -0.5322 -0.5870
   68MOL    O7710931   2.810   0.740   4.401 -0.9001  0.4803  0.2320
   68MOL    H7810932   2.878   0.603   4.129  2.0858 -0.4682 -1.7566
   68MOL    H7910933   2.991   0.647   4.260 -0.6480  0.7785 -0.3853
   68MOL    H8010934   2.883   0.431   4.381 -0.7895 -0.9188 -0.6582
   68MOL    H8110935   2.746   0.476   4.266 -1.4892  4.3301  0.0500
   68MOL    C8210936   2.709   0.579   4.549 -0.5293 -0.0146  0.8152
   68MOL    C8310937   2.694   0.690   4.653 -1.2233 -0.9487 -0.9406
   68MOL    C8410938   2.722   0.649   4.798  0.3049 -0.2123 -0.5098
   68MOL    O8510939   2.796   0.554   4.830  0.1350  0.4409 -0.7541
   68MOL    H8610940   2.738   0.483   4.593 -0.1150  0.2233  1.0574
   68MOL    H8710941   2.608   0.558   4.512 -0.7714  0.3058  1.2903
   68MOL    H8810942   2.594   0.734   4.650 -0.7968  0.1643  0.8173
   68MOL    H8910943   2.749   0.782   4.638 -3.5015  0.7524  0.6733
   68MOL    C9010944   2.653   0.739   4.900 -0.2200 -0.0876 -0.3339
   68MOL    C9110945   2.625   0.680   5.035  0.3844  0.0599  0.4702
   68MOL    C9210946   2.500   0.593   5.042  0.7462 -0.1532  0.1247
   68MOL    O9310947   2.435   0.567   4.937 -0.2784  0.0844 -0.3106
   68MOL    H9410948   2.565   0.787   4.859  0.1113  0.8398  0.0431
   68MOL    H9510949   2.728   0.818   4.905  2.3735 -2.5118  0.9978
   68MOL    H9610950   2.607   0.771   5.091  1.2136  0.2964  0.3580
   68MOL    H9710951   2.714   0.633   5.077  0.1772 -1.7457 -1.0188
   68MOL    C9810952   2.439   0.545   5.175  0.7524  0.1106 -0.1052
   68MOL    C9910953   2.329   0.432   5.162  0.1538 -0.6490 -0.5135
   68MOL   C10010954   2.313   0.347   5.288  0.0281 -0.2461 -0.2505
   68MOL   O10110955   2.375   0.374   5.392 -0.4572  0.4896 -0.4712
   68MOL   H10210956   2.403   0.633   5.228  1.6980  0.2258  0.3545
   68MOL   H10310957   2.520   0.500   5.232 -1.4356 -3.3727  0.4584
   68MOL   H10410958   2.369   0.363   5.087  1.0553  0.8118 -1.3907
   68MOL   H10510959   2.231   0.465   5.129 -0.2270  0.1496  1.3959
   68MOL   C10610960   2.219   0.233   5.280 -0.1481  0.6739 -0.5942
   68MOL   C10710961   2.177   0.177   5.416 -0.4496  0.4535 -0.0853
   68MOL   C10810962   2.046   0.108   5.417 -0.2055  0.5793 -0.9153
   68MOL   O10910963   1.967   0.120   5.328 -0.2488  0.5176  0.3559
   68MOL   H11010964   2.258   0.153   5.218  0.5525  1.5016 -1.2285
   68MOL   H11110965   2.128   0.277   5.238  0.1994  0.8636 -1.1607
   68MOL   H11210966   2.190   0.255   5.491 -0.9282  2.5593 -2.1449
   68MOL   H11310967   2.249   0.102   5.450 -0.5438  1.0590  1.5095
   68MOL   C11410968   2.015   0.016   5.541 -0.0643  0.1296  0.4478
   68MOL   C11510969   2.017   7.727   5.500 -0.2374 -0.1415  0.2472
   68MOL   C11610970   1.881   7.681   5.447 -0.4197  0.2910 -0.4761
   68MOL   O11710971   1.784   7.745   5.481  0.1273 -0.6756  1.0405
   68MOL   H11810972   1.927   0.062   5.585 -1.4223  1.2229 -3.2209
   68MOL   H11910973   2.107   0.022   5.600 -0.8658 -0.6488  1.7917
   68MOL   H12010974   2.063   7.667   5.578  1.3216 -0.3463 -0.7948
   68MOL   H12110975   2.089   7.719   5.419 -0.0771 -2.6788  0.6127
   68MOL   C12210976   1.871   7.567   5.351  1.0771 -0.0054 -0.5560
   68MOL   C12310977   1.755   7.578   5.254 -0.0824 -0.1185 -0.4454
   68MOL   C12410978   1.785   7.543   5.102 -0.2326  0.6991 -0.5649
   68MOL   O12510979   1.894   7.495   5.077 -0.1309 -0.0385 -0.0769
   68MOL   H12610980   1.880   7.472   5.402  2.3495  0.8175  0.8074
   68MOL   H12710981   1.955   7.590   5.285  2.4406 -0.5370  0.9695
   68MOL   H12810982   1.706   7.675   5.250  2.3398  1.2331  1.0729
   68MOL   H12910983   1.672   7.521   5.294  0.0881 -0.7480 -0.9852
   68MOL   C13010984   1.672   7.546   5.004 -0.1819 -0.1920  0.0683
   68MOL   C13110985   1.723   7.600   4.864 -0.1091  0.2560  0.3709
   68MOL   C13210986   1.754   7.485   4.776 -0.8038  0.0211 -0.1193
   68MOL   O13310987   1.666   7.407   4.729 -0.1727 -0.0725  0.4878
   68MOL   H13410988   1.592   7.617   5.022 -0.9213 -0.1441 -3.0627
   68MOL   H13510989   1.624   7.448   4.997 -1.2755  0.1766  1.9864
   68MOL   H13610990   1.806   7.670   4.862  0.4394 -0.3509  1.4369
   68MOL   H13710991   1.642   7.653   4.813  1.5578  0.9247 -1.6650
   68MOL   C13810992   1.897   7.459   4.734 -0.9865 -0.2658 -0.4442
   68MOL   C13910993   1.913   7.378   4.606 -0.6535  0.6514 -0.5820
   68MOL   C14010994   2.027   7.430   4.513  0.1028  0.3326 -0.9598
   68MOL   O14110995   2.099   7.525   4.549 -0.3913  0.3425 -0.8913
   68MOL   H14210996   1.960   7.413   4.810  0.6083  0.8820 -1.0264
   68MOL   H14310997   1.935   7.561   4.723  2.1552 -1.3489 -0.0382
   68MOL   H14410998   1.817   7.378   4.554 -1.3366  1.3381  0.6691
   68MOL   H14510999   1.937   7.273   4.622  2.6942  1.6943  1.7182
   68MOL   C14611000   2.045   7.345   4.387  0.4441  0.1060  0.1690
   68MOL   C14711001   2.131   7.411   4.276 -0.2051  0.0416  0.7925
   68MOL   C14811002   2.139   7.326   4.148 -0.4753  0.2954 -0.1547
   68MOL   O14911003   2.043   7.251   4.120  0.2705  0.5176 -0.2360
   68MOL   H15011004   1.945   7.342   4.343  0.0334 -0.7266  1.1403
   68MOL   H15111005   2.084   7.246   4.409  0.2360  0.2387  1.1606
   68MOL   H15211006   2.228   7.443   4.315  0.3936  0.5132 -1.0409
   68MOL   H15311007   2.087   7.502   4.234 -1.9824 -1.1772 -0.0342
   68MOL   C15411008   2.260   7.345   4.059  0.1007  0.2832 -0.0098
   68MOL   C15511009   2.282   7.219   3.971 -0.4077 -0.6713 -0.6998
   68MOL   C15611010   2.378   7.247   3.855 -0.8028 -0.3958 -0.1779
   68MOL   O15711011   2.490   7.287   3.878 -0.4259 -0.1526  0.6756
   68MOL   H15811012   2.355   7.372   4.104  1.4554  1.3585 -3.3474
   68MOL   H15911013   2.241   7.435   4.001 -2.7075  0.4627  1.0797
   68MOL   H16011014   2.193   7.182   3.920  0.3098 -0.6095 -2.0241
   68MOL   H16111015   2.307   7.136   4.037 -0.8584 -0.7047 -0.5701
   68MOL   H16211016   2.340   7.231   3.754 -2.2386  3.3169 -0.2959
   69MOL     C111017   5.504   5.493   2.690  0.2316 -0.0071  0.3161
   69MOL     C211018   5.635   5.535   2.747 -0.1581  0.3182  0.2719
   69MOL     C311019   5.718   5.424   2.818 -0.0771  0.0811  0.1118
   69MOL     O411020   5.670   5.312   2.850 -0.3021  0.2866  0.2782
   69MOL     H511021   5.451   5.568   2.631  1.1415  0.0979 -0.3770
   69MOL     H611022   5.513   5.407   2.624 -0.4183  0.6962 -0.6985
   69MOL     H711023   5.606   5.622   2.805 -1.8997  0.0487 -0.1826
   69MOL     H811024   5.694   5.567   2.661 -0.4819 -1.4346 -0.6229
   69MOL     H911025   5.434   5.460   2.767  0.4351  1.1890  1.0314
   69MOL    C1011026   5.857   5.474   2.856  0.1909  0.8514  0.4607
   69MOL    C1111027   5.947   5.353   2.898 -0.1620 -0.3477 -1.2423
   69MOL    C1211028   6.034   5.378   3.018 -0.5982  0.8357  0.6690
   69MOL    O1311029   6.036   5.482   3.085  0.3743  0.2125  0.5312
   69MOL    H1411030   5.842   5.544   2.939  0.0905  0.5227  0.7212
   69MOL    H1511031   5.906   5.526   2.773 -1.5398 -0.4407 -1.4289
   69MOL    H1611032   6.006   5.325   2.811  1.1973 -0.4135 -0.3195
   69MOL    H1711033   5.890   5.263   2.920  0.6712 -0.7675 -0.7663
   69MOL    C1811034   6.147   5.270   3.052  0.2743 -0.2383 -0.2988
   69MOL    C1911035   6.178   5.266   3.203 -0.2792 -0.1903 -0.0177
   69MOL    C2011036   6.272   5.152   3.234  0.2346 -0.3302 -0.0087
   69MOL    O2111037   6.305   5.063   3.153  0.5108 -0.4466 -0.4716
   69MOL    H2211038   6.236   5.301   2.997 -0.8045  0.3610 -1.7119
   69MOL    H2311039   6.116   5.177   3.005  1.5651 -0.1513 -1.3444
   69MOL    H2411040   6.096   5.245   3.271 -0.1821  1.1500  0.5260
   69MOL    H2511041   6.215   5.361   3.242 -0.3436  0.6906 -2.0621
   69MOL    C2611042   6.346   5.155   3.377  0.5077  0.2525  0.0245
   69MOL    C2711043   6.280   5.048   3.474 -0.2546  0.9787  0.2116
   69MOL    C2811044   6.191   5.116   3.578  0.0564 -0.1522  0.1800
   69MOL    O2911045   6.121   5.215   3.543  0.0580  0.2458  0.0459
   69MOL    H3011046   6.342   5.255   3.420 -0.6866 -0.2459  1.1060
   69MOL    H3111047   6.451   5.131   3.361  0.5531 -0.4611  1.3961
   69MOL    H3211048   6.353   4.981   3.519 -0.2737  0.7017 -0.1649
   69MOL    H3311049   6.214   4.987   3.413  0.5388 -0.2903  0.6022
   69MOL    C3411050   6.197   5.062   3.718 -1.2726 -0.2161 -0.0084
   69MOL    C3511051   6.070   5.084   3.807  0.2965 -0.8603  0.0228
   69MOL    C3611052   6.045   5.236   3.833 -0.1064  0.1659  0.5798
   69MOL    O3711053   6.140   5.313   3.855  0.4910  1.0068 -0.5320
   69MOL    H3811054   6.286   5.100   3.767 -0.5442  0.8591 -2.0698
   69MOL    H3911055   6.208   4.956   3.695 -0.7303 -0.4941  1.5012
   69MOL    H4011056   6.071   5.035   3.905  0.8851  1.4469  1.2208
   69MOL    H4111057   5.986   5.040   3.755  0.7042 -0.4081 -1.0226
   69MOL    C4211058   5.901   5.285   3.841 -0.4434 -0.5077 -1.0658
   69MOL    C4311059   5.887   5.440   3.823  0.5226  0.0722  0.0039
   69MOL    C4411060   5.929   5.514   3.952 -0.1283 -0.1877 -0.2443
   69MOL    O4511061   5.898   5.472   4.060  0.3609  0.2883  0.3883
   69MOL    H4611062   5.863   5.261   3.940 -0.3771  0.4093 -0.8152
   69MOL    H4711063   5.837   5.229   3.773 -3.5476  2.0877 -0.3750
   69MOL    H4811064   5.783   5.454   3.794  0.5074 -0.3900 -0.1732
   69MOL    H4911065   5.943   5.458   3.732 -1.2310 -2.5445 -1.6459
   69MOL    C5011066   5.998   5.646   3.932 -0.3796  0.0065 -0.1547
   69MOL    C5111067   6.149   5.651   3.973  0.2400 -0.3225  0.6116
   69MOL    C5211068   6.205   5.790   3.954 -0.2477 -0.1185  0.7910
   69MOL    O5311069   6.143   5.876   3.891 -0.3630 -0.1484 -0.1244
   69MOL    H5411070   5.936   5.716   3.987 -3.0359 -1.1795 -1.5384
   69MOL    H5511071   6.002   5.682   3.829 -3.2684  0.8120 -0.0149
   69MOL    H5611072   6.212   5.574   3.927  3.0409  1.6387  1.0224
   69MOL    H5711073   6.145   5.625   4.079 -1.7262 -0.0582  0.6162
   69MOL    C5811074   6.335   5.819   4.017  0.5164  0.0102  0.1369
   69MOL    C5911075   6.374   5.971   4.019 -0.4059 -0.7077  0.1922
   69MOL    C6011076   6.462   6.003   3.899  0.8728  0.4517  0.0900
   69MOL    O6111077   6.572   5.946   3.887 -0.1920  0.3602  0.4379
   69MOL    H6211078   6.416   5.753   3.983  0.7524  0.4102 -0.0839
   69MOL    H6311079   6.316   5.780   4.116  1.6517 -2.0203 -0.4148
   69MOL    H6411080   6.428   5.996   4.110  0.3290 -1.2225 -0.0949
   69MOL    H6511081   6.292   6.042   4.020 -0.2502 -0.5341  0.6939
   69MOL    C6611082   6.398   6.079   3.779 -0.7025 -0.0053 -0.4295
   69MOL    C6711083   6.459   6.053   3.643 -0.2581  0.1117  0.5555
   69MOL    C6811084   6.587   6.135   3.616  0.4887 -0.0104 -0.1259
   69MOL    O6911085   6.603   6.248   3.658  0.3136 -0.4455  0.2207
   69MOL    H7011086   6.398   6.185   3.804 -0.4791  0.3184 -1.7332
   69MOL    H7111087   6.292   6.055   3.772 -0.4434 -1.9929  2.0235
   69MOL    H7211088   6.384   6.087   3.572 -0.8896  1.4555  1.8557
   69MOL    H7311089   6.481   5.949   3.619 -0.7904 -0.4906  2.5806
   69MOL    C7411090   6.691   6.056   3.532  0.2598 -0.9589  0.3117
   69MOL    C7511091   6.821   6.142   3.521 -0.7362 -0.2030  0.2968
   69MOL    C7611092   6.951   6.063   3.527  0.5359  0.1087  0.0697
   69MOL    O7711093   6.975   5.993   3.628 -0.3608 -0.4799  0.1304
   69MOL    H7811094   6.662   6.009   3.438 -0.4238 -1.2549  0.6673
   69MOL    H7911095   6.716   5.972   3.596  2.2407  0.0314  0.8710
   69MOL    H8011096   6.822   6.222   3.595  0.2184  0.3577 -0.3118
   69MOL    H8111097   6.819   6.196   3.427  3.0261 -1.1725 -0.4036
   69MOL    C8211098   7.056   6.098   3.416  0.1777  0.1127  0.6847
   69MOL    C8311099   7.014   6.067   3.274 -0.2699  0.1541  0.1490
   69MOL    C8411100   7.090   5.947   3.219 -0.2495  0.5791  0.6583
   69MOL    O8511101   7.213   5.943   3.226  0.3592 -0.4726 -0.6446
   69MOL    H8611102   7.130   6.023   3.444  0.0600 -0.7425 -1.1580
   69MOL    H8711103   7.090   6.202   3.421 -0.3580  0.4038 -1.2855
   69MOL    H8811104   7.011   6.160   3.216  1.3383  0.6906  0.8672
   69MOL    H8911105   6.909   6.039   3.272  0.1606 -1.3776 -2.3042
   69MOL    C9011106   7.001   5.839   3.148  0.6056 -0.6977 -0.7400
   69MOL    C9111107   7.088   5.745   3.054  0.1979  0.1708 -0.3084
   69MOL    C9211108   7.008   5.627   3.005 -0.5351  1.2013  0.1736
   69MOL    O9311109   6.886   5.618   3.034  0.1772  0.8361  0.2764
   69MOL    H9411110   6.915   5.877   3.093  0.5083  2.6524  1.5328
   69MOL    H9511111   6.954   5.783   3.229 -0.9714  1.6278 -0.0030
   69MOL    H9611112   7.164   5.702   3.120 -1.2031 -2.5877 -0.4343
   69MOL    H9711113   7.132   5.794   2.967  0.5035 -1.2699 -0.9666
   69MOL    C9811114   7.080   5.534   2.915  0.2949 -0.0593  0.2560
   69MOL    C9911115   7.011   5.401   2.890  0.0262 -0.8269  0.2159
   69MOL   C10011116   6.968   5.372   2.749 -0.0321  0.2145 -0.1096
   69MOL   O10111117   6.996   5.458   2.662 -0.4360 -0.2885 -0.5724
   69MOL   H10211118   7.177   5.519   2.963 -1.2664 -1.0057  3.2207
   69MOL   H10311119   7.110   5.587   2.825 -2.0755  0.0900 -0.4832
   69MOL   H10411120   6.921   5.391   2.952 -0.4353  0.9643 -0.1460
   69MOL   H10511121   7.077   5.325   2.932  0.0219 -1.6471 -1.2279
   69MOL   C10611122   6.886   5.244   2.714  0.3791  0.1867 -0.2280
   69MOL   C10711123   6.843   5.238   2.571 -0.1543 -0.5772  0.3307
   69MOL   C10811124   6.823   5.095   2.517 -0.4707 -0.1222  0.2202
   69MOL   O10911125   6.740   5.023   2.561 -0.2825 -0.0333  0.5952
   69MOL   H11011126   6.806   5.230   2.787 -2.7894  0.5802 -3.4733
   69MOL   H11111127   6.960   5.165   2.727 -0.5272 -1.1051 -2.5306
   69MOL   H11211128   6.915   5.292   2.510  0.1124  0.0708  1.2058
   69MOL   H11311129   6.752   5.295   2.558  0.7633  1.2814  1.7852
   69MOL   C11411130   6.902   5.070   2.396  0.0262  0.1544 -0.1399
   69MOL   C11511131   6.951   4.920   2.389 -0.7500 -0.0617 -0.0844
   69MOL   C11611132   7.095   4.906   2.422  0.1085 -0.2635  0.8989
   69MOL   O11711133   7.146   4.977   2.503 -0.0894  0.0785 -0.0653
   69MOL   H11811134   6.983   5.141   2.380 -1.4289  1.3988 -2.3215
   69MOL   H11911135   6.830   5.084   2.314  0.3149  0.7952 -0.2845
   69MOL   H12011136   6.940   4.880   2.288  0.0348  0.2344 -0.2890
   69MOL   H12111137   6.898   4.853   2.456  1.0358 -0.0210  1.4046
   69MOL   C12211138   7.172   4.806   2.348 -0.0090  0.6118 -0.2368
   69MOL   C12311139   7.323   4.812   2.355  0.7929 -0.2714 -0.1773
   69MOL   C12411140   7.395   4.907   2.261 -0.3036  0.6382  0.1364
   69MOL   O12511141   7.335   4.986   2.187 -0.7834 -0.3660 -0.0631
   69MOL   H12611142   7.148   4.817   2.242  1.9726 -0.1308 -0.7835
   69MOL   H12711143   7.145   4.705   2.379  1.7608 -0.1633 -1.1320
   69MOL   H12811144   7.353   4.707   2.361 -0.2925 -0.5423  0.6480
   69MOL   H12911145   7.360   4.845   2.452  0.9078 -1.3789  0.1646
   69MOL   C13011146   7.549   4.903   2.237  0.2096 -0.2563  0.2615
   69MOL   C13111147   7.614   5.032   2.284  0.1880 -0.1286 -0.4309
   69MOL   C13211148   7.648   5.021   2.433  0.7070  0.3467  0.4498
   69MOL   O13311149   7.610   4.927   2.502  0.0729 -0.1828 -0.0614
   69MOL   H13411150   7.564   4.880   2.132 -1.6926  0.2545 -0.1485
   69MOL   H13511151   7.589   4.814   2.286 -0.3703  0.1478  1.5001
   69MOL   H13611152   7.555   5.124   2.283  0.7870  0.2606 -0.1750
   69MOL   H13711153   7.695   5.056   2.216  0.6354  0.3593  0.2626
   69MOL   C13811154   7.739   5.129   2.485  0.3774 -0.0623 -0.6455
   69MOL   C13911155   7.773   5.124   2.638 -0.3799 -0.1391  1.4338
   69MOL   C14011156   7.850   5.238   2.696 -0.4626 -0.7403  0.6013
   69MOL   O14111157   0.052   5.304   2.619  0.2220  0.2566 -0.3819
   69MOL   H14211158   7.698   5.227   2.462  0.8534 -0.1100 -1.7666
   69MOL   H14311159   7.829   5.134   2.423 -0.3230  1.3263 -1.6007
   69MOL   H14411160   7.836   5.036   2.651  0.5733  0.1448 -0.9681
   69MOL   H14511161   7.684   5.105   2.697 -1.1861 -0.4978  0.1117
   69MOL   C14611162   7.839   5.282   2.840 -0.3905 -0.0039 -0.8148
   69MOL   C14711163   0.063   5.400   2.885 -0.1404  0.0019  0.6217
   69MOL   C14811164   0.208   5.339   2.910  0.4836 -0.2924 -0.9395
   69MOL   O14911165   0.233   5.224   2.909  0.0387  0.5895  0.5572
   69MOL   H15011166   7.854   5.190   2.896  0.5497  0.3159 -0.5287
   69MOL   H15111167   7.738   5.320   2.858  0.9783  3.6650 -0.3666
   69MOL   H15211168   0.018   5.451   2.970 -0.1881  1.2065 -0.1160
   69MOL   H15311169   0.069   5.478   2.809  0.3240 -0.5629  0.0690
   69MOL   C15411170   0.319   5.447   2.934 -0.3687 -0.1168 -0.9179
   69MOL   C15511171   0.453   5.378   2.951 -0.4103  0.4738  0.8521
   69MOL   C15611172   0.570   5.460   3.008  0.0822 -0.4166  0.3710
   69MOL   O15711173   0.581   5.476   3.129 -0.0306  0.8311  0.1902
   69MOL   H15811174   0.285   5.522   3.004 -0.6009  0.8492 -2.0503
   69MOL   H15911175   0.316   5.505   2.842 -0.4706  0.6254 -0.4440
   69MOL   H16011176   0.503   5.334   2.864  0.6509  0.5011  1.4427
   69MOL   H16111177   0.442   5.285   3.007 -3.2859 -1.9233 -3.3557
   69MOL   H16211178   0.631   5.521   2.940 -2.1157  0.5379 -0.8134
   70MOL     C111179   0.909   2.738   6.283 -0.3529  0.4519 -0.4171
   70MOL     C211180   1.058   2.702   6.288  0.1265  0.4814  0.3792
   70MOL     C311181   1.109   2.618   6.172 -0.2061 -0.6305 -0.0766
   70MOL     O411182   1.142   2.504   6.194  1.1687 -0.0977 -0.1173
   70MOL     H511183   0.878   2.791   6.193 -2.7616 -0.7124 -0.3232
   70MOL     H611184   0.855   2.643   6.274 -0.1547  0.4505 -1.7261
   70MOL     H711185   1.076   2.643   6.378  0.9366 -0.0964 -0.1539
   70MOL     H811186   1.115   2.793   6.310 -1.3726  1.6006 -0.2953
   70MOL     H911187   0.873   2.774   6.379  1.4138  1.0090  0.0542
   70MOL    C1011188   1.111   2.686   6.029 -0.0203  0.4488 -0.2243
   70MOL    C1111189   1.245   2.659   5.964  0.1338  0.0481  0.5644
   70MOL    C1211190   1.233   2.618   5.819 -0.3597 -0.0952 -0.1095
   70MOL    O1311191   1.173   2.688   5.735  1.0719  0.7329  0.1560
   70MOL    H1411192   1.115   2.795   6.032 -1.3032  0.4963 -0.1835
   70MOL    H1511193   1.037   2.642   5.961  1.2141 -1.5446 -0.3172
   70MOL    H1611194   1.311   2.581   6.001  0.9405  1.0875  1.3622
   70MOL    H1711195   1.302   2.752   5.960  0.3103  0.1167  3.5241
   70MOL    C1811196   1.293   2.486   5.780 -0.5596  0.5735  0.0915
   70MOL    C1911197   1.317   2.475   5.625  0.3082 -0.0724 -0.1327
   70MOL    C2011198   1.458   2.531   5.583  0.2119 -0.4758  0.3662
   70MOL    O2111199   1.545   2.561   5.666 -0.5028  0.0152 -0.0087
   70MOL    H2211200   1.212   2.419   5.808 -0.5409  0.3221 -0.4351
   70MOL    H2311201   1.371   2.454   5.848 -1.2657  0.6275  0.9297
   70MOL    H2411202   1.234   2.524   5.575 -0.4768  1.3322  2.4572
   70MOL    H2511203   1.325   2.376   5.581 -2.5170  0.3109 -1.6025
   70MOL    C2611204   1.491   2.550   5.436 -0.1256  0.4943 -0.2799
   70MOL    C2711205   1.627   2.611   5.402 -0.0451  0.6791 -0.0435
   70MOL    C2811206   1.699   2.530   5.293 -0.4065 -0.2486  0.2243
   70MOL    O2911207   1.724   2.418   5.323 -0.9947  0.0818  0.2204
   70MOL    H3011208   1.418   2.619   5.392 -1.0262 -0.7227 -0.7181
   70MOL    H3111209   1.479   2.450   5.393  1.9604 -0.3934  1.1455
   70MOL    H3211210   1.696   2.636   5.482 -2.3294  3.1800  1.2661
   70MOL    H3311211   1.609   2.710   5.359  0.6483 -0.1572 -2.3570
   70MOL    C3411212   1.733   2.583   5.149  0.0071  0.1308 -0.0915
   70MOL    C3511213   1.878   2.638   5.154  0.2437 -0.8156 -0.3289
   70MOL    C3611214   1.879   2.789   5.168  1.2017  0.3807  0.6441
   70MOL    O3711215   1.773   2.847   5.200  0.2829 -0.6230  0.5024
   70MOL    H3811216   1.646   2.645   5.127  1.5174  2.6500  0.7699
   70MOL    H3911217   1.720   2.494   5.087 -0.5040  0.7677 -0.9126
   70MOL    H4011218   1.940   2.609   5.070 -0.2917 -2.0239 -0.3259
   70MOL    H4111219   1.931   2.596   5.240 -0.1005 -1.4544 -0.4252
   70MOL    C4211220   2.007   2.867   5.146  0.3852  0.4036 -0.1121
   70MOL    C4311221   2.001   3.015   5.189  0.4473  0.0068 -0.9644
   70MOL    C4411222   2.136   3.058   5.239 -0.2838  0.1313 -0.3493
   70MOL    O4511223   2.167   3.043   5.355  0.6154  0.3362  0.1403
   70MOL    H4611224   2.031   2.868   5.040  0.9634 -0.1974  0.0082
   70MOL    H4711225   2.086   2.809   5.195  1.5329  1.4266 -0.7265
   70MOL    H4811226   1.930   3.025   5.271 -0.5233 -0.9955 -1.6679
   70MOL    H4911227   1.969   3.074   5.103  0.7970 -1.9556 -2.4866
   70MOL    C5011228   2.221   3.116   5.133 -0.3791 -0.6910 -0.0754
   70MOL    C5111229   2.371   3.110   5.163 -0.7841 -0.0746  0.0670
   70MOL    C5211230   2.441   2.987   5.095 -0.4242 -0.3400  0.6287
   70MOL    O5311231   2.370   2.908   5.041 -0.0219  0.1337 -0.6526
   70MOL    H5411232   2.191   3.221   5.141  0.7299 -0.4025  0.3685
   70MOL    H5511233   2.204   3.080   5.032  0.3763 -0.7926 -0.1642
   70MOL    H5611234   2.376   3.109   5.272  0.7594  0.2002  0.0078
   70MOL    H5711235   2.417   3.200   5.123 -1.0114  1.1574  2.4554
   70MOL    C5811236   2.595   2.973   5.094  0.0543 -0.0624 -0.8079
   70MOL    C5911237   2.652   2.883   4.976 -0.1378 -0.4168 -0.8020
   70MOL    C6011238   2.799   2.854   5.008 -0.3060 -0.1856 -0.6960
   70MOL    O6111239   2.852   2.921   5.095  0.2267 -0.3786  0.2024
   70MOL    H6211240   2.612   2.913   5.183  1.4437  2.2331  0.5124
   70MOL    H6311241   2.660   3.060   5.099  1.2842 -0.9846 -0.5761
   70MOL    H6411242   2.657   2.920   4.874  0.8293  0.8959 -0.2942
   70MOL    H6511243   2.604   2.786   4.967  0.7316 -0.9099 -0.2166
   70MOL    C6611244   2.883   2.758   4.922 -0.8991 -0.3804 -0.3590
   70MOL    C6711245   3.034   2.744   4.963 -0.2209  0.5019 -0.5974
   70MOL    C6811246   3.124   2.865   4.925  0.1274 -0.1612  0.3714
   70MOL    O6911247   3.085   2.942   4.836 -0.6233 -0.1659  0.3987
   70MOL    H7011248   2.867   2.779   4.816 -1.6216  1.1880  0.0550
   70MOL    H7111249   2.831   2.662   4.932  1.0335 -1.4194  0.0441
   70MOL    H7211250   3.063   2.652   4.912 -1.2053  0.5017 -1.1760
   70MOL    H7311251   3.046   2.733   5.071  2.0275 -0.5868 -0.9513
   70MOL    C7411252   3.249   2.897   5.000  0.2220  0.3243 -0.0832
   70MOL    C7511253   3.331   3.007   4.943  0.3842 -0.6585 -0.2146
   70MOL    C7611254   3.419   2.976   4.825 -0.0306  0.0272  0.1128
   70MOL    O7711255   3.479   2.869   4.824  0.4424 -0.0998  0.8940
   70MOL    H7811256   3.307   2.805   5.008 -0.5918 -0.1113  1.0252
   70MOL    H7911257   3.216   2.922   5.101 -2.5125 -1.4593 -0.4825
   70MOL    H8011258   3.392   3.046   5.025 -1.1096  3.3183 -0.8678
   70MOL    H8111259   3.266   3.087   4.906 -0.5936 -0.8678  0.9851
   70MOL    C8211260   3.445   3.089   4.736 -0.3776 -0.3520  0.0826
   70MOL    C8311261   3.538   3.043   4.621  0.0049  0.1801  0.4516
   70MOL    C8411262   3.669   3.122   4.647  0.4276 -0.2137 -0.8443
   70MOL    O8511263   3.680   3.246   4.643 -0.0378  1.0840  0.1724
   70MOL    H8611264   3.474   3.180   4.788  0.3986 -1.9952  2.6445
   70MOL    H8711265   3.347   3.110   4.694 -0.9602  0.2386  1.6911
   70MOL    H8811266   3.501   3.064   4.521 -1.3624  1.4150  1.2039
   70MOL    H8911267   3.572   2.939   4.623  1.2445  0.5940  1.0940
   70MOL    C9011268   3.798   3.046   4.682 -0.0373 -0.5184  0.2926
   70MOL    C9111269   3.809   3.006   4.830  0.1317  0.0046  0.2048
   70MOL    C9211270   3.860   2.868   4.856  0.0040  1.2218  0.2237
   70MOL    O9311271   3.947   2.848   4.944  0.0018 -0.5503  0.0573
   70MOL    H9411272   3.888   3.099   4.650  1.5549 -1.3038  3.2614
   70MOL    H9511273   3.795   2.956   4.620 -0.3409  0.0711 -0.5543
   70MOL    H9611274   3.712   3.003   4.880  0.2506 -1.0898  0.3806
   70MOL    H9711275   3.878   3.073   4.881  2.6902 -2.0186 -0.4697
   70MOL    C9811276   3.803   2.754   4.768  0.2410 -0.4041  0.2891
   70MOL    C9911277   3.807   2.609   4.835 -0.8727  0.7652  0.4095
   70MOL   C10011278   3.824   2.492   4.743  0.0050  0.7075  0.5193
   70MOL   O10111279   3.877   2.495   4.630 -0.8604  0.3192 -0.2824
   70MOL   H10211280   3.864   2.763   4.678  0.1325  0.4185  0.3002
   70MOL   H10311281   3.703   2.783   4.737  1.6168  4.2810 -0.0592
   70MOL   H10411282   3.735   2.580   4.910 -0.7059 -0.6709  0.0155
   70MOL   H10511283   3.905   2.600   4.883 -0.2464  0.5355 -0.8921
   70MOL   C10611284   3.766   2.356   4.796  0.1104 -0.0040  0.4449
   70MOL   C10711285   3.871   2.290   4.878 -0.2131 -0.6260 -0.6576
   70MOL   C10811286   3.821   2.150   4.911  0.4090  0.4535 -0.0393
   70MOL   O10911287   3.781   2.119   5.024 -0.5450  0.2322 -0.0774
   70MOL   H11011288   3.731   2.299   4.710  2.7634 -0.5712 -0.3166
   70MOL   H11111289   3.675   2.371   4.853  0.4367 -0.8365  1.1927
   70MOL   H11211290   3.893   2.345   4.970 -0.5919  2.5810 -2.3972
   70MOL   H11311291   3.965   2.280   4.823  0.9777  0.7605  1.0619
   70MOL   C11411292   3.832   2.044   4.801 -0.4240  0.1100 -0.3749
   70MOL   C11511293   3.864   1.901   4.853 -0.2748 -0.7493  0.3022
   70MOL   C11611294   3.889   1.801   4.743 -0.2181  0.4000 -0.0026
   70MOL   O11711295   3.826   1.795   4.635  0.0216 -0.1300  0.4704
   70MOL   H11811296   3.896   2.068   4.717 -0.6959 -1.3533 -1.0156
   70MOL   H11911297   3.735   2.049   4.751 -0.1151 -0.6709 -1.0518
   70MOL   H12011298   3.798   1.870   4.934  0.0910 -0.0519  0.8692
   70MOL   H12111299   3.965   1.903   4.892  0.3665 -0.1098 -1.3331
   70MOL   C12211300   3.999   1.702   4.771  0.6557 -0.3485 -0.0684
   70MOL   C12311301   4.031   1.625   4.636 -0.3800  0.1279 -0.2215
   70MOL   C12411302   4.126   1.697   4.547 -0.3802  0.6254 -0.2098
   70MOL   O12511303   4.184   1.797   4.586  0.1359 -0.5387 -0.6582
   70MOL   H12611304   3.965   1.638   4.853 -0.4387 -1.5289 -1.4237
   70MOL   H12711305   4.084   1.762   4.804 -1.0191  1.2964  1.4099
   70MOL   H12811306   3.943   1.600   4.578  1.3558  0.4252 -3.0683
   70MOL   H12911307   4.074   1.527   4.660 -1.5790 -0.5763 -0.9192
   70MOL   C13011308   4.144   1.644   4.407  0.1168 -0.5038  0.0939
   70MOL   C13111309   4.167   1.752   4.300  0.0078 -0.2364  0.0990
   70MOL   C13211310   4.203   1.707   4.163 -0.3003  0.1760 -0.0204
   70MOL   O13311311   4.321   1.677   4.145  0.3415 -0.2637  0.1882
   70MOL   H13411312   4.053   1.589   4.383  0.4781 -0.8382 -0.5080
   70MOL   H13511313   4.226   1.573   4.414  0.4573 -0.1279 -0.0707
   70MOL   H13611314   4.253   1.808   4.337 -0.6564  1.1119 -0.3686
   70MOL   H13711315   4.090   1.829   4.297  0.8898  0.6097 -1.3381
   70MOL   C13811316   4.097   1.720   4.058 -0.6989  0.7501 -0.0831
   70MOL   C13911317   4.148   1.673   3.927 -0.9664 -0.1547 -0.2637
   70MOL   C14011318   4.200   1.785   3.845  0.4377  0.3649 -0.4107
   70MOL   O14111319   4.220   1.897   3.894 -0.1484  0.1447 -0.1124
   70MOL   H14211320   4.068   1.825   4.061 -1.2204  0.6030  0.0359
   70MOL   H14311321   4.007   1.666   4.087 -1.5826  1.0274 -2.2080
   70MOL   H14411322   4.072   1.620   3.870  0.5360 -1.3604 -1.1847
   70MOL   H14511323   4.241   1.617   3.937  0.5010  2.2379 -0.0568
   70MOL   C14611324   4.214   1.744   3.697  0.2307 -0.6212  0.1764
   70MOL   C14711325   4.226   1.862   3.596 -0.0285  0.2891 -0.1171
   70MOL   C14811326   4.328   1.853   3.490 -0.6741 -0.2621  0.2792
   70MOL   O14911327   4.382   1.746   3.459  0.3215 -0.1241  0.2472
   70MOL   H15011328   4.132   1.677   3.670  1.0443 -0.8566 -1.8378
   70MOL   H15111329   4.303   1.682   3.709  0.9486  0.3220 -0.1726
   70MOL   H15211330   4.242   1.953   3.654 -2.3581 -1.7762  3.9716
   70MOL   H15311331   4.136   1.875   3.535 -0.2628 -1.1863 -0.1036
   70MOL   C15411332   4.382   1.985   3.428 -0.4325 -0.3989  0.0452
   70MOL   C15511333   4.390   1.974   3.280 -0.0915 -0.1059  0.3336
   70MOL   C15611334   4.412   2.098   3.209 -0.1110  0.0129  0.4434
   70MOL   O15711335   4.335   2.191   3.216  0.5000  0.2442 -0.6044
   70MOL   H15811336   4.485   2.007   3.457 -0.2675 -1.6163  0.4069
   70MOL   H15911337   4.311   2.064   3.454  2.0836  2.0719 -0.2895
   70MOL   H16011338   4.291   1.948   3.241 -1.0028  2.0090  1.1648
   70MOL   H16111339   4.457   1.893   3.251  0.0746 -0.3820  1.4627
   70MOL   H16211340   4.507   2.117   3.159 -1.1346 -0.4988 -1.7750
   71MOL     C111341   5.392   3.060   1.875 -0.3582  0.5283 -0.6649
   71MOL     C211342   5.434   3.036   1.733  0.0048 -0.3113  0.2972
   71MOL     C311343   5.564   2.963   1.706 -0.2674 -0.4634 -0.2442
   71MOL     O411344   5.640   2.927   1.795  0.5400 -0.0249 -0.3058
   71MOL     H511345   5.313   2.988   1.897 -0.3658 -0.0472 -2.4629
   71MOL     H611346   5.477   3.053   1.942 -1.4282  1.4949  0.8202
   71MOL     H711347   5.450   3.125   1.672  3.0678 -2.3363 -2.0082
   71MOL     H811348   5.343   2.994   1.691 -0.7369 -1.2065  2.7267
   71MOL     H911349   5.341   3.155   1.890  1.3550  1.4792 -0.7274
   71MOL    C1011350   5.606   2.939   1.563  0.5144 -0.4025 -0.4424
   71MOL    C1111351   5.684   2.811   1.535  0.2754  0.4868 -0.2228
   71MOL    C1211352   5.826   2.824   1.469  0.5434 -1.0147 -0.1502
   71MOL    O1311353   5.920   2.890   1.520 -0.0589 -0.7358 -0.3954
   71MOL    H1411354   5.672   3.021   1.536 -0.1164  0.6960  1.3269
   71MOL    H1511355   5.521   2.937   1.494 -0.9433 -1.6666  1.3591
   71MOL    H1611356   5.624   2.748   1.470 -1.5903  0.6909  1.2421
   71MOL    H1711357   5.699   2.756   1.628 -0.4885 -2.0519 -1.5718
   71MOL    C1811358   5.860   2.718   1.364  0.2399 -0.6705 -0.5062
   71MOL    C1911359   6.017   2.696   1.341  0.2746  0.1111  0.1243
   71MOL    C2011360   6.077   2.775   1.226  0.1383  0.2793  0.4845
   71MOL    O2111361   6.031   2.765   1.112  0.1709 -0.1009 -0.2358
   71MOL    H2211362   5.813   2.742   1.269 -1.6760 -0.1088  0.5560
   71MOL    H2311363   5.815   2.624   1.397 -1.3333  0.0866 -0.4756
   71MOL    H2411364   6.028   2.591   1.317  0.2833 -0.1387  1.1747
   71MOL    H2511365   6.070   2.721   1.434  0.9443  1.7765 -0.6735
   71MOL    C2611366   6.194   2.868   1.260 -1.0745 -0.2847  0.0280
   71MOL    C2711367   6.265   2.931   1.130 -0.2977  0.3301  0.0830
   71MOL    C2811368   6.193   3.051   1.065  0.1795 -0.4705 -0.5350
   71MOL    O2911369   6.113   3.124   1.131  0.4254 -0.4392 -0.5917
   71MOL    H3011370   6.269   2.809   1.314 -1.1339 -1.2340 -0.9121
   71MOL    H3111371   6.150   2.950   1.317 -0.3210  0.9074 -1.0979
   71MOL    H3211372   6.273   2.845   1.064 -4.0281  0.0374 -0.0869
   71MOL    H3311373   6.366   2.963   1.157  0.3326 -1.1973 -0.3705
   71MOL    C3411374   6.238   3.077   0.925 -0.1601 -1.0096  0.1813
   71MOL    C3511375   6.242   3.227   0.878  0.0437 -0.4833 -0.0448
   71MOL    C3611376   6.377   3.298   0.877  0.1424  0.4469  0.5196
   71MOL    O3711377   6.471   3.243   0.925  0.0931  0.2158 -0.0955
   71MOL    H3811378   6.154   3.037   0.868  0.8981 -0.1244 -2.0507
   71MOL    H3911379   6.328   3.022   0.897  0.3637 -0.0374 -0.0411
   71MOL    H4011380   6.184   3.286   0.949  1.4587 -0.9627  1.5666
   71MOL    H4111381   6.189   3.235   0.784 -0.2452 -1.5531  0.0234
   71MOL    C4211382   6.387   3.427   0.802  0.2267 -0.0472 -0.1227
   71MOL    C4311383   6.535   3.483   0.800 -0.1751  0.0473 -0.1705
   71MOL    C4411384   6.589   3.504   0.662 -0.4806  0.4307  0.0668
   71MOL    O4511385   6.577   3.419   0.576  0.3011  0.4743  0.1210
   71MOL    H4611386   6.313   3.487   0.855  1.7652  0.9788  0.8978
   71MOL    H4711387   6.348   3.408   0.702 -0.1741  0.2765 -0.0264
   71MOL    H4811388   6.611   3.418   0.844  2.0397  1.9053 -1.1618
   71MOL    H4911389   6.539   3.571   0.864 -2.2673 -1.1782  1.6876
   71MOL    C5011390   6.658   3.638   0.633  1.1705 -0.2501  0.5202
   71MOL    C5111391   6.783   3.608   0.551  0.1746 -0.8350 -0.7961
   71MOL    C5211392   6.758   3.591   0.403 -0.2945  0.1678  0.0547
   71MOL    O5311393   6.666   3.649   0.344 -0.4118  0.0168 -0.6503
   71MOL    H5411394   6.685   3.670   0.733 -1.9507  0.4560  1.1951
   71MOL    H5511395   6.592   3.710   0.585  0.1898 -2.5630 -1.7094
   71MOL    H5611396   6.821   3.512   0.586 -0.5476 -0.9551 -0.3377
   71MOL    H5711397   6.857   3.687   0.562  0.3078 -1.0610 -0.0579
   71MOL    C5811398   6.851   3.489   0.328  0.5569 -0.1290 -0.6839
   71MOL    C5911399   6.784   3.417   0.219 -0.1668  0.6455  0.3315
   71MOL    C6011400   6.805   3.271   0.227 -0.4161  0.3957  0.4532
   71MOL    O6111401   6.845   3.217   0.328  0.7252  0.1244 -0.5866
   71MOL    H6211402   6.902   3.418   0.392 -0.8451 -1.0513 -0.5652
   71MOL    H6311403   6.942   3.540   0.297  1.1470  0.4879  2.0035
   71MOL    H6411404   6.826   3.459   0.127  2.2765 -2.3185  0.0335
   71MOL    H6511405   6.676   3.431   0.217 -0.1454  0.7144 -0.4837
   71MOL    C6611406   6.757   3.196   0.101  0.0005  0.6501 -0.1138
   71MOL    C6711407   6.861   3.087   0.068 -0.2472  0.1569 -0.4155
   71MOL    C6811408   6.812   2.974   7.844 -0.1432 -0.1468  0.2066
   71MOL    O6911409   6.732   2.991   7.753  0.1656 -0.4040  0.0302
   71MOL    H7011410   6.769   3.258   0.012 -0.7176  0.3251 -0.4421
   71MOL    H7111411   6.657   3.152   0.103  1.1680 -2.0022  2.0920
   71MOL    H7211412   6.913   3.045   0.154 -2.4617  0.6492  1.1974
   71MOL    H7311413   6.938   3.137   0.009  0.8343 -0.8291  0.1263
   71MOL    C7411414   6.855   2.835   0.033 -0.5916  0.2547 -0.0908
   71MOL    C7511415   6.808   2.716   7.799  0.6677  0.6463  0.8966
   71MOL    C7611416   6.875   2.592   7.843  0.3725  0.9476  0.2468
   71MOL    O7711417   6.980   2.599   0.049  0.2053  1.0165  0.4122
   71MOL    H7811418   6.822   2.813   0.134 -1.1378  3.0301  0.3716
   71MOL    H7911419   6.962   2.837   0.048 -0.3571  1.0979 -1.7772
   71MOL    H8011420   6.832   2.732   7.694  0.1118  0.7943  0.7917
   71MOL    H8111421   6.704   2.684   7.809  0.6969 -0.6403 -2.3303
   71MOL    C8211422   6.806   2.453   7.826 -0.6916  0.5897  0.5150
   71MOL    C8311423   6.874   2.331   0.038  0.0567 -0.8427  0.1058
   71MOL    C8411424   6.822   2.288   0.169 -0.4405  0.0974 -0.2681
   71MOL    O8511425   6.740   2.354   0.224 -0.0339 -0.4824  0.0770
   71MOL    H8611426   6.803   2.428   7.720  2.8700  3.4304 -0.3620
   71MOL    H8711427   6.701   2.467   7.851 -0.8078  0.4531  0.1122
   71MOL    H8811428   6.983   2.343   0.040 -0.0530  0.0483  2.7952
   71MOL    H8911429   6.856   2.245   7.832 -1.6074  0.2967 -0.9656
   71MOL    C9011430   6.886   2.160   0.226 -0.1400 -0.0786  0.1275
   71MOL    C9111431   6.838   2.115   0.363 -0.2837 -0.5109 -0.7680
   71MOL    C9211432   6.894   2.193   0.480 -0.1140 -0.0274  0.2110
   71MOL    O9311433   6.997   2.257   0.475 -0.5455 -0.1345 -0.2418
   71MOL    H9411434   6.995   2.169   0.229 -0.1261 -0.0520 -0.4100
   71MOL    H9511435   6.863   2.096   0.141 -1.3155  1.2645 -0.5894
   71MOL    H9611436   6.857   2.008   0.371 -0.7687 -0.9071 -4.0569
   71MOL    H9711437   6.729   2.108   0.365 -0.3287  0.5869  2.0188
   71MOL    C9811438   6.817   2.184   0.611  0.0936 -0.1432 -0.6659
   71MOL    C9911439   6.910   2.143   0.731  0.0976  0.1672 -0.1750
   71MOL   C10011440   6.930   1.989   0.745  0.0528  0.1422 -1.0761
   71MOL   O10111441   6.878   1.909   0.663 -0.1119 -0.7250 -0.0957
   71MOL   H10211442   6.738   2.109   0.612  0.1947 -0.2740  2.4284
   71MOL   H10311443   6.758   2.273   0.630 -1.9653 -1.1201 -2.2937
   71MOL   H10411444   6.893   2.180   0.832  1.5625  0.1326  0.0923
   71MOL   H10511445   7.010   2.181   0.712  0.8886 -1.1575  1.2479
   71MOL   C10611446   7.014   1.937   0.863 -0.0301  0.4415 -0.0665
   71MOL   C10711447   6.929   1.916   0.986  0.0963 -0.0594 -0.0407
   71MOL   C10811448   6.964   1.790   1.069  0.0276 -1.1073  0.0546
   71MOL   O10911449   7.064   1.720   1.051 -0.6873 -0.3508  0.2313
   71MOL   H11011450   7.095   1.995   0.906 -0.6370  1.7346 -0.6365
   71MOL   H11111451   7.057   1.840   0.840 -0.2207  0.3113  0.1153
   71MOL   H11211452   6.822   1.909   0.966 -0.6753 -1.5753  4.0238
   71MOL   H11311453   6.947   2.004   1.048 -0.7301  1.7675 -2.3273
   71MOL   C11411454   6.868   1.762   1.183  0.6154  0.0153  0.3219
   71MOL   C11511455   6.890   1.624   1.254  0.2307 -0.5214 -0.0330
   71MOL   C11611456   6.938   1.636   1.396  0.4555 -0.4516 -0.1204
   71MOL   O11711457   7.013   1.729   1.416 -0.0491  0.4296  0.5906
   71MOL   H11811458   6.768   1.769   1.140 -0.4474  0.6190  2.7686
   71MOL   H11911459   6.880   1.835   1.263  0.5085 -0.1318  0.4740
   71MOL   H12011460   6.955   1.554   1.201 -1.0613 -2.4953  0.9154
   71MOL   H12111461   6.791   1.577   1.249  0.7826 -1.9143  1.7707
   71MOL   C12211462   6.901   1.539   1.507 -0.0807  0.8408  0.3389
   71MOL   C12311463   6.968   1.577   1.645  0.8950 -0.3415 -0.4479
   71MOL   C12411464   7.075   1.477   1.700  0.2364 -0.0207  0.3901
   71MOL   O12511465   7.192   1.516   1.700  0.1562 -0.3085  0.6918
   71MOL   H12611466   6.932   1.441   1.473 -0.4221  1.7487 -2.7210
   71MOL   H12711467   6.794   1.546   1.527  0.1300  3.1986  0.8780
   71MOL   H12811468   6.892   1.575   1.724  1.5176  2.2573  0.2802
   71MOL   H12911469   7.009   1.677   1.658  1.6882 -0.7621  0.3597
   71MOL   C13011470   7.041   1.333   1.732  0.0176 -0.2274 -0.0418
   71MOL   C13111471   7.031   1.251   1.603  0.5014 -0.3429 -0.2768
   71MOL   C13211472   7.099   1.115   1.611  0.0984 -0.7476 -0.4776
   71MOL   O13311473   7.225   1.114   1.610  0.1624  0.0602 -0.2284
   71MOL   H13411474   6.952   1.329   1.794  1.0124  0.1285  1.4368
   71MOL   H13511475   7.128   1.306   1.792  0.5557  0.8371 -0.3234
   71MOL   H13611476   7.072   1.300   1.515  1.1451 -2.6900 -1.3017
   71MOL   H13711477   6.923   1.239   1.590  0.9914 -1.5370 -3.6105
   71MOL   C13811478   7.003   1.005   1.622  0.0791 -0.1598  0.7673
   71MOL   C13911479   7.069   0.872   1.594 -0.2981  0.1495  0.0360
   71MOL   C14011480   7.137   0.813   1.718  0.0178 -0.1828  0.3907
   71MOL   O14111481   7.076   0.781   1.822  0.2195 -0.3270  0.4282
   71MOL   H14211482   6.915   1.025   1.560  0.6804  0.1739  0.0100
   71MOL   H14311483   6.972   1.015   1.726 -1.4134  2.6593  0.1014
   71MOL   H14411484   7.138   0.874   1.510  1.3714  0.5018  1.3705
   71MOL   H14511485   6.980   0.815   1.569 -0.4816 -0.4179  1.8904
   71MOL   C14611486   7.292   0.801   1.716  0.8395  0.2428 -0.0690
   71MOL   C14711487   7.356   0.775   1.855 -0.7238 -0.7818 -0.3011
   71MOL   C14811488   7.453   0.654   1.853  0.7906  0.4731  1.1150
   71MOL   O14911489   7.449   0.563   1.769 -0.6083 -0.3667  0.1878
   71MOL   H15011490   7.329   0.892   1.668  0.2350  1.6710  2.0898
   71MOL   H15111491   7.324   0.729   1.641 -0.0671 -1.6274  1.3073
   71MOL   H15211492   7.288   0.757   1.938 -0.0304  1.8899  0.8995
   71MOL   H15311493   7.422   0.858   1.881 -1.1852 -0.9055  1.3089
   71MOL   C15411494   7.536   0.636   1.981 -0.6269  0.4875  0.0581
   71MOL   C15511495   7.669   0.562   1.957 -0.0268 -0.1685 -0.3302
   71MOL   C15611496   7.668   0.421   2.004  0.2687 -0.2273  0.0151
   71MOL   O15711497   7.616   0.387   2.108  0.4593  0.1282 -0.5620
   71MOL   H15811498   7.469   0.576   2.042  0.0672 -0.2885  0.0552
   71MOL   H15911499   7.563   0.737   2.012  3.8369 -0.6320  0.1017
   71MOL   H16011500   7.739   0.615   2.021 -1.0066  1.7776 -0.8206
   71MOL   H16111501   7.702   0.568   1.853 -2.0745 -4.0453 -1.3111
   71MOL   H16211502   7.731   0.356   1.942 -0.3196 -0.5934 -0.1987
   72MOL     C111503   1.025   1.473   2.704 -0.4260  0.0444 -0.0910
   72MOL     C211504   1.017   1.319   2.674  0.0433 -0.0195  0.5253
   72MOL     C311505   1.101   1.239   2.780  0.3981  0.4637 -0.2827
   72MOL     O411506   1.042   1.214   2.885 -0.6107 -0.2440  0.8944
   72MOL     H511507   0.992   1.498   2.805  2.2900  2.5229  0.2543
   72MOL     H611508   1.129   1.504   2.693 -0.3729  0.4733  1.4304
   72MOL     H711509   1.046   1.274   2.579  0.1702 -1.9462  1.4473
   72MOL     H811510   0.910   1.301   2.675  0.1818 -1.0172 -0.9492
   72MOL     H911511   0.964   1.537   2.641  2.3847  0.4897 -2.4946
   72MOL    C1011512   1.253   1.234   2.762  0.7592  0.6019 -0.1017
   72MOL    C1111513   1.324   1.251   2.898 -1.0104 -0.1430 -0.0957
   72MOL    C1211514   1.334   1.111   2.964  0.2308  0.0067 -0.1481
   72MOL    O1311515   1.381   1.017   2.903  0.3304 -0.4042 -0.0716
   72MOL    H1411516   1.283   1.321   2.704  1.2904  1.5927  1.6310
   72MOL    H1511517   1.279   1.144   2.706  0.2064  0.3745  0.0085
   72MOL    H1611518   1.270   1.318   2.965  1.0556 -0.0417  1.5299
   72MOL    H1711519   1.422   1.298   2.896 -1.7434  1.6669  2.9834
   72MOL    C1811520   1.266   1.108   3.097 -0.3568 -0.3840 -0.7255
   72MOL    C1911521   1.255   0.971   3.166  0.3900 -0.4195 -0.0431
   72MOL    C2011522   1.259   0.979   3.320 -0.6510 -0.5551  0.1026
   72MOL    O2111523   1.320   1.070   3.381  0.2471  0.0947  0.2880
   72MOL    H2211524   1.162   1.139   3.089 -0.6500 -1.1503 -0.0521
   72MOL    H2311525   1.314   1.186   3.157 -1.8274  1.1984 -1.5971
   72MOL    H2411526   1.335   0.903   3.139  1.9562  0.6445  1.7920
   72MOL    H2511527   1.160   0.925   3.136  0.9758 -0.1693 -2.3602
   72MOL    C2611528   1.202   0.865   3.402 -0.4840 -0.3828  0.1284
   72MOL    C2711529   1.267   0.849   3.540  0.4052  0.1873  0.3025
   72MOL    C2811530   1.192   0.908   3.657  0.2599  0.1139  0.3640
   72MOL    O2911531   1.083   0.962   3.640  1.0279  0.0267  0.2173
   72MOL    H3011532   1.217   0.777   3.340  0.8085  0.1089 -0.2719
   72MOL    H3111533   1.093   0.865   3.405 -0.6072 -1.5731 -2.8740
   72MOL    H3211534   1.365   0.898   3.537  1.5776 -1.9692  1.8381
   72MOL    H3311535   1.283   0.745   3.566  0.5761  0.1121 -0.1036
   72MOL    C3411536   1.267   0.915   3.790  0.3332  0.1087  0.1607
   72MOL    C3511537   1.174   0.924   3.911 -0.6781 -0.0481  0.2866
   72MOL    C3611538   1.103   0.800   3.964 -0.2423  0.5003 -0.4614
   72MOL    O3711539   1.121   0.689   3.905  0.1223  0.5259 -0.4209
   72MOL    H3811540   1.337   0.998   3.777 -1.5218  1.6331 -0.3759
   72MOL    H3911541   1.317   0.819   3.806 -1.5780 -1.3215 -2.0345
   72MOL    H4011542   1.111   1.013   3.899 -0.3283  0.1711  0.0421
   72MOL    H4111543   1.233   0.955   3.997  0.2163  1.0470 -0.7008
   72MOL    C4211544   0.999   0.815   4.083  0.3382 -0.5282 -0.1995
   72MOL    C4311545   0.895   0.699   4.074  0.5820  0.0617  0.0397
   72MOL    C4411546   0.765   0.730   4.148 -0.0097  0.2382 -0.7338
   72MOL    O4511547   0.714   0.651   4.229  0.4071  0.0746 -0.1052
   72MOL    H4611548   0.943   0.908   4.073  0.4756 -0.5835 -1.5751
   72MOL    H4711549   1.053   0.820   4.177  0.2938  0.3053 -0.2163
   72MOL    H4811550   0.934   0.601   4.102 -1.7796 -1.0790 -0.5379
   72MOL    H4911551   0.866   0.694   3.969  1.6840  1.7178 -0.3571
   72MOL    C5011552   0.688   0.850   4.098  0.1341 -0.3298 -0.5857
   72MOL    C5111553   0.538   0.837   4.130 -0.1028 -0.3363  0.0989
   72MOL    C5211554   0.455   0.799   4.002  0.4925  0.2033  0.4226
   72MOL    O5311555   0.437   0.882   3.913 -0.0981 -0.3719 -0.6205
   72MOL    H5411556   0.702   0.855   3.990  0.4801  0.9703 -0.4876
   72MOL    H5511557   0.721   0.947   4.134 -3.2830  0.6290  0.1410
   72MOL    H5611558   0.490   0.930   4.161 -0.4085 -0.0450 -1.1997
   72MOL    H5711559   0.517   0.760   4.204 -3.3409  0.5768  0.2041
   72MOL    C5811560   0.408   0.651   4.002  0.1941 -0.8214  0.4227
   72MOL    C5911561   0.403   0.588   3.863  0.1301  0.2392 -0.3547
   72MOL    C6011562   0.541   0.523   3.829  0.7828 -0.4198  0.1888
   72MOL    O6111563   0.650   0.561   3.866 -0.0958 -0.4875 -0.1902
   72MOL    H6211564   0.306   0.642   4.038 -0.0733  0.0815 -0.0774
   72MOL    H6311565   0.463   0.589   4.073  3.4261 -0.3699 -1.5540
   72MOL    H6411566   0.380   0.660   3.785  0.0615  1.3950  0.7216
   72MOL    H6511567   0.327   0.510   3.867 -0.2876  0.7070  0.8050
   72MOL    C6611568   0.528   0.402   3.742 -0.4163 -0.0629 -0.0034
   72MOL    C6711569   0.601   0.285   3.817  0.1417  0.6571  0.2681
   72MOL    C6811570   0.554   0.154   3.760 -0.6654 -0.0701 -0.6085
   72MOL    O6911571   0.500   0.143   3.652 -0.0953 -0.1003 -0.3170
   72MOL    H7011572   0.578   0.423   3.648  0.4598 -3.1741 -0.2787
   72MOL    H7111573   0.424   0.375   3.721 -0.4052 -0.1332  0.0322
   72MOL    H7211574   0.573   0.286   3.922 -1.3808  2.0916 -0.1213
   72MOL    H7311575   0.707   0.307   3.808  0.1628  0.2483 -0.6037
   72MOL    C7411576   0.573   0.031   3.855 -0.3800  0.1094  0.0526
   72MOL    C7511577   0.458   0.004   3.955  0.1981 -0.4818  0.3476
   72MOL    C7611578   0.366   7.756   3.910 -0.8062 -0.0896 -0.0355
   72MOL    O7711579   0.406   7.641   3.903  0.7421 -0.1267  0.3507
   72MOL    H7811580   0.658   0.051   3.921 -1.0239  0.4839  0.7738
   72MOL    H7911581   0.603   7.809   3.788 -2.4626 -1.9067  1.4978
   72MOL    H8011582   0.418   0.102   3.981 -0.4175 -0.6154 -0.0796
   72MOL    H8111583   0.500   7.834   4.051 -1.7539 -3.2438  0.4258
   72MOL    C8211584   0.221   7.795   3.881 -0.8286  0.4618 -0.5212
   72MOL    C8311585   0.193   7.839   3.739  0.2609 -0.4844  0.3133
   72MOL    C8411586   0.102   7.740   3.665  0.3019  0.1522 -0.5325
   72MOL    O8511587   0.133   7.624   3.648 -0.3763  0.2068  0.4004
   72MOL    H8611588   0.198   0.028   3.935 -1.6128  0.0761 -0.1925
   72MOL    H8711589   0.147   7.728   3.926  1.9861 -2.0555  0.4853
   72MOL    H8811590   0.281   7.855   3.676  1.8775 -1.5064  2.2411
   72MOL    H8911591   0.154   0.081   3.747  0.9546 -0.2129  0.2491
   72MOL    C9011592   7.828   7.792   3.602 -0.5199  0.2323 -0.8790
   72MOL    C9111593   7.776   7.708   3.489  0.4548  0.5359  0.2893
   72MOL    C9211594   7.625   7.686   3.503  0.4044  0.0228 -0.1515
   72MOL    O9311595   7.556   7.776   3.474 -0.2238  0.7473  0.2724
   72MOL    H9411596   7.832   0.036   3.568 -0.1405 -0.3349 -2.5650
   72MOL    H9511597   7.759   7.789   3.686  1.2961 -0.8530  0.6195
   72MOL    H9611598   7.827   7.613   3.474  0.7473  0.8683 -0.9320
   72MOL    H9711599   7.792   7.749   3.389 -0.4687 -0.4287 -0.2554
   72MOL    C9811600   7.588   7.559   3.572  0.0295  0.1625 -0.4901
   72MOL    C9911601   7.475   7.495   3.502  0.4807  0.0686  0.3300
   72MOL   C10011602   7.506   7.366   3.427 -0.2616  0.1352  0.3915
   72MOL   O10111603   7.535   7.369   3.307  0.2466 -0.1879  0.3839
   72MOL   H10211604   7.551   7.584   3.672 -1.5218 -0.0535 -0.9969
   72MOL   H10311605   7.670   7.488   3.578 -1.0775 -1.3124 -2.1982
   72MOL   H10411606   7.428   7.558   3.427  0.5593 -0.1026  0.1362
   72MOL   H10511607   7.410   7.459   3.582  0.3207 -3.4140 -1.2662
   72MOL   C10611608   7.510   7.237   3.507  0.2945  0.1945  0.0087
   72MOL   C10711609   7.386   7.142   3.489  0.6121  0.2163  0.0762
   72MOL   C10811610   7.428   7.001   3.487 -0.5724  0.8744 -1.0163
   72MOL   O10911611   7.461   6.948   3.383 -0.1523 -0.2556  0.4583
   72MOL   H11011612   7.521   7.254   3.614 -0.3504 -1.0596  0.2844
   72MOL   H11111613   7.603   7.186   3.482  0.1320  0.1439 -0.4871
   72MOL   H11211614   7.339   7.154   3.391 -0.3955 -3.0041  0.1184
   72MOL   H11311615   7.315   7.161   3.569 -1.0784 -2.0117 -0.8530
   72MOL   C11411616   7.440   6.928   3.623  0.2467  0.0257 -0.4096
   72MOL   C11511617   7.551   6.820   3.620  0.0315  0.0064 -0.7556
   72MOL   C11611618   7.685   6.866   3.678 -0.8048 -0.4243  0.1529
   72MOL   O11711619   7.740   6.968   3.638  0.0147 -0.3119  0.1846
   72MOL   H11811620   7.348   6.869   3.631 -0.8274  1.5149 -1.4123
   72MOL   H11911621   7.442   6.995   3.709  1.6566 -0.2685 -0.1982
   72MOL   H12011622   7.555   6.784   3.517 -0.3643  3.3993 -1.9920
   72MOL   H12111623   7.518   6.736   3.683  0.9454 -0.0904 -0.3932
   72MOL   C12211624   7.753   6.769   3.779 -0.2870 -0.0142 -0.0008
   72MOL   C12311625   0.044   6.794   3.797 -0.5227 -0.0123 -0.4265
   72MOL   C12411626   0.090   6.778   3.944  0.1560  0.3206  0.2698
   72MOL   O12511627   0.019   6.743   4.040 -0.9224 -0.2076  0.9167
   72MOL   H12611628   7.758   6.666   3.742 -1.8807 -0.5192  1.1178
   72MOL   H12711629   7.703   6.764   3.876  1.8024 -0.7936  1.0535
   72MOL   H12811630   0.066   6.896   3.765 -0.7268  0.0260 -0.4462
   72MOL   H12911631   0.098   6.740   3.719  1.3232  1.4512 -0.1868
   72MOL   C13011632   0.240   6.794   3.972 -0.8197 -0.0592  1.1103
   72MOL   C13111633   0.295   6.668   4.039 -0.8170  0.1674 -0.5045
   72MOL   C13211634   0.341   6.686   4.182 -0.0514 -0.3103 -0.9361
   72MOL   O13311635   0.311   6.787   4.238 -0.4834 -0.0609  0.1783
   72MOL   H13411636   0.267   6.888   4.021  1.5998 -0.1587  0.0213
   72MOL   H13511637   0.284   6.792   3.872  1.7266  0.9615  2.1654
   72MOL   H13611638   0.372   6.620   3.979 -0.7039 -0.2675 -0.0163
   72MOL   H13711639   0.215   6.597   4.059 -0.8555  0.7011  1.3935
   72MOL   C13811640   0.439   6.584   4.244 -0.2965 -0.6803 -0.4664
   72MOL   C13911641   0.581   6.644   4.248  0.2512  0.2513 -0.0187
   72MOL   C14011642   0.695   6.546   4.235 -0.1617 -0.2325 -0.6543
   72MOL   O14111643   0.685   6.441   4.175 -0.5220 -0.4466  0.5604
   72MOL   H14211644   0.430   6.490   4.191  0.0365  0.4589 -2.6045
   72MOL   H14311645   0.400   6.565   4.344 -0.7858  0.1044 -0.4991
   72MOL   H14411646   0.604   6.718   4.324 -0.6454  1.8762 -1.2975
   72MOL   H14511647   0.595   6.704   4.158 -1.5244 -0.7505 -0.9886
   72MOL   C14611648   0.833   6.598   4.273 -0.2976  0.2127 -0.7237
   72MOL   C14711649   0.842   6.655   4.417  0.2226  0.1401 -0.4865
   72MOL   C14811650   0.970   6.619   4.501  0.6468 -0.0415  0.5275
   72MOL   O14911651   1.069   6.575   4.447 -0.4998 -0.2747  0.4554
   72MOL   H15011652   0.866   6.672   4.200  0.1983  0.5205 -0.1948
   72MOL   H15111653   0.894   6.508   4.265  0.0411  0.4813 -1.1499
   72MOL   H15211654   0.755   6.630   4.477  0.2086  1.5411  0.1243
   72MOL   H15311655   0.844   6.764   4.407 -1.9622  0.2953  0.5842
   72MOL   C15411656   0.953   6.647   4.647  0.4439  0.4093  0.3553
   72MOL   C15511657   1.055   6.581   4.737 -0.0212  0.5964  0.0279
   72MOL   C15611658   0.994   6.535   4.868 -0.2214  0.1723  0.5351
   72MOL   O15711659   0.888   6.575   4.915  0.4675 -0.0897 -0.3163
   72MOL   H15811660   0.850   6.628   4.678 -0.3476 -1.5657 -3.1452
   72MOL   H15911661   0.969   6.753   4.666  1.0017  0.0187  2.0972
   72MOL   H16011662   1.140   6.646   4.757 -0.0228  0.1879  1.3766
   72MOL   H16111663   1.096   6.493   4.687 -0.9388  0.3674 -0.3381
   72MOL   H16211664   1.051   6.451   4.909  0.3424  0.0148 -0.5757
   73MOL     C111665   5.332   4.346   4.426 -0.4352 -0.3387  0.1359
   73MOL     C211666   5.420   4.279   4.534 -0.2938  0.2909 -0.2798
   73MOL     C311667   5.568   4.321   4.523 -0.5903  0.0389  0.0569
   73MOL     O411668   5.616   4.350   4.413 -0.3105 -0.3052 -0.3216
   73MOL     H511669   5.233   4.375   4.461 -0.0600 -2.0806  2.7864
   73MOL     H611670   5.371   4.445   4.400  1.0874 -1.0377 -0.2407
   73MOL     H711671   5.416   4.170   4.529  1.4111  0.1725  0.3442
   73MOL     H811672   5.383   4.319   4.628  0.9627  0.5755  0.1049
   73MOL     H911673   5.321   4.278   4.342 -1.8129  1.4051 -1.1626
   73MOL    C1011674   5.662   4.311   4.648  0.3821  0.4469 -0.4208
   73MOL    C1111675   5.812   4.341   4.617  0.4617  0.4390  0.3878
   73MOL    C1211676   5.906   4.309   4.735  0.3356  0.2027 -0.0443
   73MOL    O1311677   5.911   4.375   4.841  0.6366  0.0277  0.5486
   73MOL    H1411678   5.652   4.208   4.682 -0.8138  0.0054 -2.0730
   73MOL    H1511679   5.615   4.375   4.722  2.9002  0.1135  1.5234
   73MOL    H1611680   5.818   4.449   4.604 -0.4963  0.5895  1.0845
   73MOL    H1711681   5.854   4.292   4.529 -0.1313  0.1992  0.2328
   73MOL    C1811682   6.001   4.192   4.703  0.1439  0.5211  0.3020
   73MOL    C1911683   6.151   4.225   4.708  0.6349  0.5823 -0.7979
   73MOL    C2011684   6.233   4.103   4.745  0.1396 -0.1751 -0.8589
   73MOL    O2111685   6.212   3.996   4.690 -0.0908 -0.2960 -0.0417
   73MOL    H2211686   5.967   4.160   4.605 -0.8241  1.3250  0.3580
   73MOL    H2311687   5.972   4.111   4.771  1.5298 -0.4554 -0.2467
   73MOL    H2411688   6.160   4.301   4.786 -0.3304 -1.6557  1.5654
   73MOL    H2511689   6.185   4.266   4.613  1.0388  0.5746 -0.6581
   73MOL    C2611690   6.342   4.112   4.854  0.0481 -0.1368  0.0846
   73MOL    C2711691   6.468   4.026   4.828 -0.4354 -0.3192 -0.1038
   73MOL    C2811692   6.603   4.106   4.832 -0.3242  0.0922  0.1365
   73MOL    O2911693   6.601   4.223   4.853 -0.4969 -0.1245 -0.1805
   73MOL    H3011694   6.298   4.079   4.947  0.3378 -0.2627  0.1771
   73MOL    H3111695   6.362   4.219   4.859  2.1399 -0.3805 -1.9228
   73MOL    H3211696   6.460   3.988   4.726  0.7868 -1.2014  0.1160
   73MOL    H3311697   6.478   3.931   4.882 -0.8950  0.2799  1.0616
   73MOL    C3411698   6.741   4.028   4.811  0.9397  0.4792  0.0764
   73MOL    C3511699   6.867   4.110   4.848 -0.4075 -0.2080 -0.2467
   73MOL    C3611700   6.932   4.182   4.731  1.0135  0.6107  0.7900
   73MOL    O3711701   6.868   4.182   4.621 -0.2197  0.5187 -0.5790
   73MOL    H3811702   6.731   3.998   4.707  0.4403 -0.6424  0.4306
   73MOL    H3911703   6.721   3.948   4.882 -0.4583  0.1844 -0.6188
   73MOL    H4011704   6.953   4.049   4.874  0.0861  0.0207 -1.3373
   73MOL    H4111705   6.839   4.163   4.939  0.1345  1.7804 -1.2114
   73MOL    C4211706   7.073   4.234   4.745 -0.0233 -0.2482 -0.3174
   73MOL    C4311707   7.101   4.356   4.659  0.6122 -0.2673  0.5504
   73MOL    C4411708   7.149   4.478   4.735  0.0006  0.8323 -0.6741
   73MOL    O4511709   7.095   4.506   4.838  0.4831 -0.3681  0.1829
   73MOL    H4611710   7.132   4.145   4.725  0.8767  0.8136 -2.5642
   73MOL    H4711711   7.099   4.245   4.850 -0.0847 -1.0910 -0.2086
   73MOL    H4811712   7.016   4.397   4.605  0.7935 -0.4099  0.1522
   73MOL    H4911713   7.175   4.324   4.585  0.4923  1.9114 -0.5462
   73MOL    C5011714   7.262   4.564   4.680 -0.2515 -0.0305 -0.2883
   73MOL    C5111715   7.292   4.682   4.762  0.1537  0.1562  0.1933
   73MOL    C5211716   7.438   4.710   4.773 -0.0864  0.5023  0.1051
   73MOL    O5311717   7.526   4.627   4.766  0.2230 -0.5871 -0.5611
   73MOL    H5411718   7.225   4.605   4.586 -0.5983  1.7834  0.6151
   73MOL    H5511719   7.348   4.501   4.656  0.6038  1.5856 -1.5321
   73MOL    H5611720   7.265   4.666   4.867 -0.0372 -1.6227 -0.1105
   73MOL    H5711721   7.233   4.767   4.729  1.0834  1.3837  1.5751
   73MOL    C5811722   7.466   4.860   4.795 -0.5744  0.1575  0.4951
   73MOL    C5911723   7.619   4.904   4.809  0.2492 -0.2061  0.3074
   73MOL    C6011724   7.645   4.935   4.955 -0.1424  0.3768 -0.0747
   73MOL    O6111725   7.646   4.844   5.041  0.4034  0.0144 -0.7113
   73MOL    H6211726   7.403   4.889   4.879 -1.8774 -0.5890 -0.2050
   73MOL    H6311727   7.423   4.910   4.708 -2.0647 -1.3780  0.2958
   73MOL    H6411728   7.639   4.988   4.742  1.2535 -1.5184 -1.0922
   73MOL    H6511729   7.689   4.825   4.779 -0.5667 -0.3436 -1.2864
   73MOL    C6611730   7.662   5.074   4.992 -0.0028  0.0430  0.4945
   73MOL    C6711731   7.628   5.106   5.137 -0.6558 -0.6576  0.6749
   73MOL    C6811732   7.717   5.202   5.207 -0.5775  0.4516  0.5822
   73MOL    O6911733   7.784   5.282   5.146 -0.3078 -0.3393  0.0633
   73MOL    H7011734   7.608   5.137   4.922  0.2333  1.7616  1.8134
   73MOL    H7111735   7.767   5.096   4.978 -0.5043  2.7277  0.7401
   73MOL    H7211736   7.625   5.016   5.198  1.8193 -1.1249  0.1498
   73MOL    H7311737   7.529   5.152   5.132  0.2191  1.0901 -0.9561
   73MOL    C7411738   7.714   5.193   5.360  0.1576 -0.1396  0.2765
   73MOL    C7511739   7.572   5.177   5.422 -0.8470  0.1145  0.5071
   73MOL    C7611740   7.538   5.288   5.524 -0.1438 -0.8067  0.2393
   73MOL    O7711741   7.619   5.320   5.608 -0.4011  0.6509 -0.0398
   73MOL    H7811742   7.780   5.274   5.392 -0.2115 -0.1451  1.0605
   73MOL    H7911743   7.771   5.104   5.387 -0.9456 -0.4986  1.4833
   73MOL    H8011744   7.558   5.091   5.487  1.7914 -0.2416  0.6646
   73MOL    H8111745   7.495   5.162   5.346  0.2176  1.4038 -0.8494
   73MOL    C8211746   7.405   5.362   5.507 -0.8248 -0.1792  0.3762
   73MOL    C8311747   7.309   5.331   5.621  0.1809 -0.0536  0.4071
   73MOL    C8411748   7.201   5.230   5.591  1.1324 -0.1269  0.8719
   73MOL    O8511749   7.222   5.127   5.517 -0.5983 -0.3552 -0.2995
   73MOL    H8611750   7.346   5.325   5.423  0.5214 -0.4299 -0.4711
   73MOL    H8711751   7.419   5.470   5.502  0.1326 -0.1570  2.9882
   73MOL    H8811752   7.258   5.412   5.674 -1.1663 -0.4300 -0.3111
   73MOL    H8911753   7.356   5.290   5.710 -0.6159  0.1170  0.9104
   73MOL    C9011754   7.064   5.252   5.650 -0.1084 -0.3521 -0.2471
   73MOL    C9111755   6.963   5.162   5.577 -0.0720  0.3774 -0.3749
   73MOL    C9211756   6.828   5.166   5.648 -0.6724 -0.7741 -0.7140
   73MOL    O9311757   6.826   5.150   5.771 -0.4257  0.0061 -0.2554
   73MOL    H9411758   7.033   5.356   5.635  1.2528 -0.0743 -1.2801
   73MOL    H9511759   7.066   5.239   5.758  0.2506  0.3896 -0.1591
   73MOL    H9611760   6.993   5.058   5.586 -0.5149  0.3447  0.9632
   73MOL    H9711761   6.962   5.183   5.470  0.5812 -0.1815 -0.4973
   73MOL    C9811762   6.701   5.209   5.565  0.2820 -0.1626 -0.9638
   73MOL    C9911763   6.599   5.297   5.645 -0.0116  0.7269  0.2650
   73MOL   C10011764   6.655   5.438   5.666  0.0910 -0.0111 -0.2806
   73MOL   O10111765   6.712   5.497   5.578  0.0295  0.1894 -0.3477
   73MOL   H10211766   6.644   5.119   5.540 -1.0764  0.4688 -0.2126
   73MOL   H10311767   6.722   5.259   5.470 -1.6030 -2.0334 -2.4346
   73MOL   H10411768   6.583   5.235   5.734  2.3840  1.0790  0.9949
   73MOL   H10511769   6.499   5.306   5.602 -0.5488 -0.0734  1.3161
   73MOL   C10611770   6.632   5.494   5.808 -0.6606 -0.0683  0.5623
   73MOL   C10711771   6.673   5.639   5.823  0.2938 -0.2408 -0.3238
   73MOL   C10811772   6.550   5.729   5.802  0.2944 -0.3327  0.3524
   73MOL   O10911773   6.451   5.686   5.749  0.1807  0.1261 -0.0519
   73MOL   H11011774   6.687   5.439   5.884 -2.2865 -1.9553  0.3845
   73MOL   H11111775   6.528   5.479   5.836 -0.2012 -2.9363  0.9108
   73MOL   H11211776   6.752   5.675   5.759  1.0358 -1.2539  0.0155
   73MOL   H11311777   6.707   5.646   5.927 -3.1809 -0.3784  0.9215
   73MOL   C11411778   6.580   5.874   5.827 -0.3401 -0.2785  0.5881
   73MOL   C11511779   6.457   5.959   5.857 -0.2105  0.2251  0.2735
   73MOL   C11611780   6.431   5.970   6.006 -0.3831 -0.9440  0.0971
   73MOL   O11711781   6.475   5.888   6.089 -0.2588 -0.3887 -0.2151
   73MOL   H11811782   6.631   5.911   5.738 -0.9582 -1.5281 -0.3052
   73MOL   H11911783   6.665   5.875   5.896  0.9014 -0.9976 -0.8866
   73MOL   H12011784   6.374   5.908   5.808  2.2959 -1.8466 -2.0032
   73MOL   H12111785   6.465   6.060   5.817  2.4473  1.1232  2.8741
   73MOL   C12211786   6.361   6.093   6.060 -0.1662  0.3988  0.0594
   73MOL   C12311787   6.350   6.102   6.216 -0.1293  0.4447 -0.1883
   73MOL   C12411788   6.448   6.207   6.278  0.1036 -0.1214  0.0397
   73MOL   O12511789   6.490   6.301   6.215  0.0134  0.1377 -0.1186
   73MOL   H12611790   6.262   6.085   6.014  0.5149 -0.4156 -1.2655
   73MOL   H12711791   6.413   6.179   6.017  0.6695 -0.0856  0.1051
   73MOL   H12811792   6.364   6.008   6.268 -0.0653 -1.1169 -2.9302
   73MOL   H12911793   6.255   6.153   6.236 -0.2530 -0.1413  0.7546
   73MOL   C13011794   6.503   6.183   6.424 -0.3119 -0.7986 -0.4018
   73MOL   C13111795   6.564   6.304   6.489 -0.3678  0.0995  0.0267
   73MOL   C13211796   6.718   6.293   6.499  0.0616  0.1989 -0.0807
   73MOL   O13311797   6.773   6.182   6.508 -0.2024 -0.3550 -0.2132
   73MOL   H13411798   6.581   6.107   6.419  0.3323 -0.1690  0.0085
   73MOL   H13511799   6.418   6.154   6.486 -0.1085  0.2116  0.3632
   73MOL   H13611800   6.522   6.320   6.589 -0.3992 -1.2309  0.2364
   73MOL   H13711801   6.539   6.401   6.445  0.8306 -0.0008 -0.9047
   73MOL   C13811802   6.796   6.422   6.517 -0.6807 -0.5820 -0.4220
   73MOL   C13911803   6.904   6.417   6.625  0.4796 -0.6920 -0.5490
   73MOL   C14011804   7.038   6.426   6.559  0.0391  0.8474  0.1197
   73MOL   O14111805   7.112   6.523   6.568 -0.3290  0.3699 -0.1780
   73MOL   H14211806   6.725   6.497   6.551  1.1445  0.7878  0.4711
   73MOL   H14311807   6.838   6.450   6.420  1.8181 -1.8614  0.2388
   73MOL   H14411808   6.888   6.329   6.688 -2.4455 -0.0310 -0.2823
   73MOL   H14511809   6.892   6.507   6.685 -0.6844 -1.2253  0.0313
   73MOL   C14611810   7.089   6.293   6.499 -0.3943  0.5124 -0.0490
   73MOL   C14711811   7.200   6.316   6.385  0.1588  0.9283  0.2487
   73MOL   C14811812   7.163   6.257   6.248 -0.1196  0.2215 -0.1367
   73MOL   O14911813   7.082   6.165   6.241 -0.0190 -0.3724 -0.0506
   73MOL   H15011814   7.008   6.236   6.453 -0.0130  0.9657 -1.3192
   73MOL   H15111815   7.136   6.233   6.577 -1.0130 -0.9711 -0.7976
   73MOL   H15211816   7.295   6.271   6.414 -0.3300 -0.5279 -0.3601
   73MOL   H15311817   7.222   6.418   6.354 -1.2692  1.5109  1.0891
   73MOL   C15411818   7.264   6.281   6.132 -0.1334  0.6187 -0.1551
   73MOL   C15511819   7.203   6.258   5.990  0.1155 -0.0963 -0.2911
   73MOL   C15611820   7.213   6.116   5.932 -0.8779  0.3451 -0.4093
   73MOL   O15711821   7.324   6.062   5.925 -0.1169 -0.1050  0.0398
   73MOL   H15811822   7.333   6.197   6.130  0.1915  0.9243 -2.1466
   73MOL   H15911823   7.322   6.373   6.129  0.0393  0.5290  0.3902
   73MOL   H16011824   7.255   6.324   5.921 -3.4462  2.3278 -0.8265
   73MOL   H16111825   7.097   6.284   5.998  0.0014 -0.1660 -1.4136
   73MOL   H16211826   7.120   6.071   5.897  0.1465 -2.6832  0.6051
   74MOL     C111827   3.159   5.461   2.238 -0.0940 -0.2134 -0.0619
   74MOL     C211828   3.023   5.452   2.178 -0.2583  0.8103  0.5478
   74MOL     C311829   2.910   5.501   2.268  0.0335  0.0948 -0.4092
   74MOL     O411830   2.929   5.533   2.384 -0.0840  0.2397  0.3497
   74MOL     H511831   3.163   5.456   2.347 -0.7427  0.5760  0.0007
   74MOL     H611832   3.217   5.374   2.208  0.0820 -0.6327  1.4402
   74MOL     H711833   3.001   5.348   2.151 -0.0920  0.7719  0.5608
   74MOL     H811834   3.039   5.492   2.078 -2.4059 -3.5643 -1.7480
   74MOL     H911835   3.203   5.556   2.208 -0.8498  0.8345  2.0520
   74MOL    C1011836   2.777   5.519   2.202 -0.0192  0.7179  0.1351
   74MOL    C1111837   2.672   5.436   2.280 -0.7025 -0.4495  0.2941
   74MOL    C1211838   2.671   5.295   2.228  0.5167  0.5099  0.1358
   74MOL    O1311839   2.770   5.220   2.229  0.3503  0.1192 -0.1066
   74MOL    H1411840   2.787   5.490   2.097 -0.1968  0.0118  0.3101
   74MOL    H1511841   2.749   5.623   2.189 -1.0217  0.5085  0.5500
   74MOL    H1611842   2.575   5.476   2.252 -0.2383  0.3229 -0.2556
   74MOL    H1711843   2.687   5.444   2.387 -2.1943  0.2410  0.4655
   74MOL    C1811844   2.531   5.241   2.173  0.6860  0.2502  0.3832
   74MOL    C1911845   2.498   5.095   2.169 -0.5156  0.7743 -0.4716
   74MOL    C2011846   2.492   5.024   2.306 -0.5643 -0.6195  0.5058
   74MOL    O2111847   2.519   5.094   2.409 -0.1107  0.0265 -0.9021
   74MOL    H2211848   2.537   5.283   2.072  0.9533  1.7708  1.0242
   74MOL    H2311849   2.453   5.301   2.219  1.4596  1.6789 -0.1248
   74MOL    H2411850   2.580   5.053   2.109 -1.9839 -1.2180 -1.1399
   74MOL    H2511851   2.396   5.081   2.133 -0.8479 -0.2274  0.8164
   74MOL    C2611852   2.440   4.887   2.311  0.1562 -0.0843 -0.3636
   74MOL    C2711853   2.483   4.815   2.443 -0.2167 -0.0624  0.2899
   74MOL    C2811854   2.386   4.700   2.479  0.0556  0.7783  0.3519
   74MOL    O2911855   2.300   4.665   2.397 -0.6500 -0.3187  0.0799
   74MOL    H3011856   2.479   4.836   2.223 -1.5753 -0.5853 -0.8732
   74MOL    H3111857   2.331   4.891   2.298 -0.0620  0.9302  1.7222
   74MOL    H3211858   2.488   4.875   2.533  1.5690 -0.0763  0.2234
   74MOL    H3311859   2.580   4.769   2.421  0.1530  1.1835 -0.7682
   74MOL    C3411860   2.406   4.636   2.617  0.5750  0.8701  0.0501
   74MOL    C3511861   2.385   4.488   2.607  0.4572  0.2940  0.1532
   74MOL    C3611862   2.278   4.430   2.702  0.1686 -0.9489  0.5113
   74MOL    O3711863   2.294   4.440   2.824 -0.0066  0.0748 -0.5458
   74MOL    H3811864   2.334   4.672   2.691  3.3692  1.7451  2.4395
   74MOL    H3911865   2.503   4.669   2.654 -0.3791  1.0168  2.4837
   74MOL    H4011866   2.471   4.431   2.642 -0.1493 -0.7090  0.0233
   74MOL    H4111867   2.370   4.456   2.503  3.6697 -0.6354 -0.0894
   74MOL    C4211868   2.170   4.347   2.637  0.3513  0.0955  0.0533
   74MOL    C4311869   2.051   4.327   2.734 -0.3947  0.4858  0.7040
   74MOL    C4411870   1.979   4.200   2.693 -0.5939 -0.1884  0.6991
   74MOL    O4511871   2.012   4.124   2.604  0.0777  0.0629  0.5309
   74MOL    H4611872   2.222   4.261   2.594  1.5746  1.0357 -0.3856
   74MOL    H4711873   2.128   4.409   2.558 -2.3046  0.2553  1.5155
   74MOL    H4811874   1.978   4.407   2.738 -0.6649  0.2249  1.0746
   74MOL    H4911875   2.087   4.294   2.831  1.8505 -1.5619 -0.7411
   74MOL    C5011876   1.844   4.178   2.764 -0.2565  0.3076  0.1723
   74MOL    C5111877   1.786   4.039   2.730  0.2626  0.1406 -0.2524
   74MOL    C5211878   1.640   4.024   2.773 -0.5733  0.0014  0.1901
   74MOL    O5311879   1.597   4.058   2.885 -0.0626  0.7045 -0.6669
   74MOL    H5411880   1.782   4.263   2.735 -0.2540  0.4015  0.4407
   74MOL    H5511881   1.863   4.180   2.872 -1.2248 -1.9304  0.4111
   74MOL    H5611882   1.840   3.957   2.778  0.5182  0.3238 -0.2268
   74MOL    H5711883   1.783   4.018   2.623  0.0092  3.1088 -0.8664
   74MOL    C5811884   1.545   3.953   2.671  0.2820  0.8595 -0.0600
   74MOL    C5911885   1.401   3.990   2.714 -0.2281  0.2589  0.2065
   74MOL    C6011886   1.295   3.943   2.612  0.4383  0.0448 -0.4101
   74MOL    O6111887   1.303   3.853   2.529  0.4498  0.2377 -0.0567
   74MOL    H6211888   1.562   3.847   2.689 -0.1523  0.6049 -1.1671
   74MOL    H6311889   1.560   3.984   2.568  2.2347  2.3731  0.6221
   74MOL    H6411890   1.383   4.097   2.723 -1.3330  0.3228 -2.4656
   74MOL    H6511891   1.373   3.949   2.811 -0.5022  1.4325  0.6270
   74MOL    C6611892   1.158   4.013   2.629  0.2844  0.3016 -0.3531
   74MOL    C6711893   1.033   3.923   2.636  0.2827  0.6530  0.4559
   74MOL    C6811894   0.903   3.988   2.681 -0.3894 -0.4147  0.4478
   74MOL    O6911895   0.902   4.059   2.777 -0.0791  0.4347 -0.2928
   74MOL    H7011896   1.144   4.070   2.536 -3.2877  1.8451  1.0402
   74MOL    H7111897   1.151   4.075   2.718 -1.0945 -1.4665  0.7854
   74MOL    H7211898   1.046   3.843   2.708  0.8088  0.4692  0.1559
   74MOL    H7311899   1.006   3.895   2.534  2.1562  1.2902 -0.2256
   74MOL    C7411900   0.780   3.965   2.594  0.2801 -0.5652  0.2720
   74MOL    C7511901   0.740   4.096   2.525  0.2490  0.1554 -0.1343
   74MOL    C7611902   0.801   4.100   2.379  0.2881 -0.6964 -0.3486
   74MOL    O7711903   0.888   4.021   2.336 -0.0524 -0.2645  0.4200
   74MOL    H7811904   0.701   3.935   2.662 -0.9189  0.6822 -0.5545
   74MOL    H7911905   0.799   3.878   2.531  0.1037 -1.7190  1.7752
   74MOL    H8011906   0.773   4.178   2.588  2.4574  0.5502 -1.7461
   74MOL    H8111907   0.635   4.107   2.499  0.0401 -0.7459  0.3214
   74MOL    C8211908   0.749   4.206   2.290 -0.0960 -0.0261 -0.2019
   74MOL    C8311909   0.763   4.182   2.138  0.4702  0.4679  0.1429
   74MOL    C8411910   0.647   4.090   2.087  0.1475  0.2046 -0.2909
   74MOL    O8511911   0.540   4.064   2.146 -0.0289 -0.0503  0.7794
   74MOL    H8611912   0.804   4.298   2.305  0.3047  0.1362 -2.4362
   74MOL    H8711913   0.651   4.237   2.326  0.1419  1.4990 -0.8643
   74MOL    H8811914   0.858   4.135   2.113 -0.3340 -0.6295 -0.8894
   74MOL    H8911915   0.756   4.278   2.086  0.1235  0.5248  0.2990
   74MOL    C9011916   0.660   4.045   1.943 -0.0072  0.3375 -0.0347
   74MOL    C9111917   0.520   4.052   1.875 -0.3931  0.7008 -0.2449
   74MOL    C9211918   0.471   3.905   1.847  0.2671 -0.5409 -0.6938
   74MOL    O9311919   0.514   3.809   1.913  0.0897 -0.0088 -0.4948
   74MOL    H9411920   0.712   3.948   1.943  0.1145  0.3772 -2.0524
   74MOL    H9511921   0.733   4.104   1.887  0.8953 -1.6983 -1.0791
   74MOL    H9611922   0.548   4.099   1.780 -0.2889 -0.5268 -0.8279
   74MOL    H9711923   0.449   4.106   1.938 -1.5056  0.0460 -0.9227
   74MOL    C9811924   0.348   3.888   1.761  0.1398 -0.5415  0.5099
   74MOL    C9911925   0.372   3.835   1.618 -0.1806 -0.0051  0.2050
   74MOL   C10011926   0.423   3.922   1.498  0.3544 -0.0285 -0.0510
   74MOL   O10111927   0.497   4.014   1.520  0.0436  0.0770  0.1369
   74MOL   H10211928   0.318   3.992   1.751  0.6395 -0.5915 -1.6120
   74MOL   H10311929   0.276   3.831   1.821 -2.5185  1.4879 -0.6365
   74MOL   H10411930   0.278   3.784   1.594 -0.4395 -0.3004  1.8230
   74MOL   H10511931   0.451   3.761   1.615 -0.4061 -0.2062 -1.9564
   74MOL   C10611932   0.368   3.883   1.359  0.4934 -0.4552 -0.6730
   74MOL   C10711933   0.484   3.813   1.284  0.0057 -0.6245 -0.4489
   74MOL   C10811934   0.444   3.760   1.143  0.1684 -1.2513 -0.3061
   74MOL   O10911935   0.323   3.725   1.116 -0.7654 -0.2100  0.0868
   74MOL   H11011936   0.338   3.969   1.299  1.8554  0.0143 -0.6797
   74MOL   H11111937   0.286   3.811   1.357 -1.0655  1.3094 -3.2625
   74MOL   H11211938   0.492   3.719   1.339  1.1212 -1.2508 -1.6425
   74MOL   H11311939   0.584   3.856   1.283 -0.3506  0.2573 -2.9745
   74MOL   C11411940   0.550   3.756   1.033 -0.2029  0.2512 -0.1633
   74MOL   C11511941   0.497   3.698   0.902  0.0999  0.1413  0.5229
   74MOL   C11611942   0.478   3.550   0.889 -0.9847 -0.0407  0.2194
   74MOL   O11711943   0.533   3.472   0.965  0.4426  0.1326 -0.5678
   74MOL   H11811944   0.630   3.694   1.072  0.6097  0.7569 -1.0044
   74MOL   H11911945   0.592   3.856   1.019 -0.4283  0.5186  0.9965
   74MOL   H12011946   0.564   3.725   0.820 -0.7327 -1.0840 -0.5723
   74MOL   H12111947   0.400   3.738   0.876  0.1826 -0.2133 -0.3513
   74MOL   C12211948   0.380   3.494   0.784  0.6776  0.3616  0.3332
   74MOL   C12311949   0.423   3.350   0.727  0.3000 -0.1718 -0.3507
   74MOL   C12411950   0.550   3.350   0.645 -0.4770 -0.0839 -0.9507
   74MOL   O12511951   0.584   3.444   0.579 -0.5676  0.5832  0.0570
   74MOL   H12611952   0.376   3.561   0.698 -0.0645  0.6914  0.6215
   74MOL   H12711953   0.277   3.497   0.819  0.6913  0.0119  0.4043
   74MOL   H12811954   0.348   3.321   0.653 -3.1665  3.6403  1.4971
   74MOL   H12911955   0.426   3.271   0.802 -0.6694  1.1860  1.1543
   74MOL   C13011956   0.617   3.215   0.631 -0.0726 -0.3733 -0.4990
   74MOL   C13111957   0.707   3.199   0.505 -0.3749 -0.1599  0.4085
   74MOL   C13211958   0.750   3.053   0.481  0.4231 -0.7454 -1.3394
   74MOL   O13311959   0.708   2.967   0.556  0.3802  0.3194 -0.3118
   74MOL   H13411960   0.541   3.137   0.633  1.2042 -1.6282 -0.3168
   74MOL   H13511961   0.670   3.189   0.723 -0.2369 -0.4646 -0.4309
   74MOL   H13611962   0.800   3.254   0.520  0.7596 -1.7970 -0.4286
   74MOL   H13711963   0.655   3.236   0.416  0.3381  0.6556  0.3233
   74MOL   C13811964   0.850   3.035   0.371 -0.4396  0.0955 -0.4725
   74MOL   C13911965   0.804   2.927   0.270 -0.4252  0.4529 -0.3262
   74MOL   C14011966   0.769   2.987   0.134 -0.2662  0.2262 -0.0353
   74MOL   O14111967   0.843   2.978   0.035  0.1701  0.2645  0.6149
   74MOL   H14211968   0.939   3.012   0.428  0.7665  3.6032 -0.7803
   74MOL   H14311969   0.852   3.129   0.316 -3.5038  0.1113 -0.6751
   74MOL   H14411970   0.719   2.873   0.311  0.5320 -0.8768 -0.0328
   74MOL   H14511971   0.887   2.858   0.253 -0.8375  0.4237 -2.3748
   74MOL   C14611972   0.632   3.054   0.133 -0.1702  0.3425 -0.1001
   74MOL   C14711973   0.599   3.144   0.012  0.3013  0.0724  0.0374
   74MOL   C14811974   0.560   3.059   7.745 -0.2951  0.8353  0.0759
   74MOL   O14911975   0.447   3.017   7.736 -0.5063 -0.1001 -0.1535
   74MOL   H15011976   0.603   3.129   0.207  0.1192  0.4096 -0.0534
   74MOL   H15111977   0.557   2.976   0.131 -1.5955  1.6660  1.0380
   74MOL   H15211978   0.686   3.203   7.842 -1.0895  1.2835 -1.7831
   74MOL   H15311979   0.519   3.217   0.022 -0.9191 -1.1533 -0.6305
   74MOL   C15411980   0.657   3.044   7.629  0.4444  0.3593 -0.0357
   74MOL   C15511981   0.697   2.895   7.619  0.4510 -0.3153  0.5562
   74MOL   C15611982   0.840   2.878   7.571  0.5326 -0.6593 -0.8723
   74MOL   O15711983   0.871   2.915   7.456 -0.0030  1.1934  0.3052
   74MOL   H15811984   0.744   3.101   7.663  0.5439 -0.1903  0.6564
   74MOL   H15911985   0.631   3.077   7.528  2.2720 -0.7063 -0.8883
   74MOL   H16011986   0.636   2.843   7.544 -2.9849  0.9784  2.3623
   74MOL   H16111987   0.696   2.834   7.709  1.7794 -2.7812 -1.0287
   74MOL   H16211988   0.906   2.835   7.646  0.7716 -0.5344 -1.0094
   75MOL     C111989   0.381   3.186   5.503 -0.3528 -0.1641  0.9377
   75MOL     C211990   0.292   3.059   5.546 -0.2115 -0.4258 -0.2531
   75MOL     C311991   0.362   2.937   5.598  0.1415 -1.0690 -0.1020
   75MOL     O411992   0.481   2.948   5.647  0.2083  0.4008 -0.0162
   75MOL     H511993   0.441   3.157   5.417 -2.0460  0.1541 -0.3830
   75MOL     H611994   0.316   3.270   5.476 -0.9255 -0.4553  1.3974
   75MOL     H711995   0.232   3.015   5.466 -2.2917 -1.4673  1.8241
   75MOL     H811996   0.214   3.085   5.618 -1.4431  1.5207 -2.2034
   75MOL     H911997   0.449   3.224   5.579 -1.6399  1.4131  1.3277
   75MOL    C1011998   0.295   2.798   5.586  0.6168  1.1486  0.4437
   75MOL    C1111999   0.358   2.695   5.680 -0.2641  0.1260 -0.2007
   75MOL    C1212000   0.285   2.550   5.664 -0.3810  0.0022 -0.0314
   75MOL    O1312001   0.217   2.525   5.564  0.3760  0.0993  0.3920
   75MOL    H1412002   0.305   2.767   5.482 -1.8437  0.2302  0.4554
   75MOL    H1512003   0.190   2.814   5.607  0.3458  2.9519 -2.1662
   75MOL    H1612004   0.339   2.720   5.785 -2.1745 -0.6903 -0.3247
   75MOL    H1712005   0.464   2.684   5.657  0.3966  1.9953  1.8243
   75MOL    C1812006   0.323   2.447   5.771 -0.1887 -0.3757 -0.4914
   75MOL    C1912007   0.221   2.332   5.778  0.6333 -0.4911  0.4899
   75MOL    C2012008   0.166   2.315   5.924  0.0057  0.0790  0.2385
   75MOL    O2112009   0.227   2.242   6.006 -0.3797 -0.1625  0.1258
   75MOL    H2212010   0.335   2.502   5.864  3.4634 -2.0106  0.1121
   75MOL    H2312011   0.416   2.405   5.732  0.3718  2.0800 -1.8768
   75MOL    H2412012   0.268   2.242   5.737 -1.3427 -0.5762 -1.7092
   75MOL    H2512013   0.139   2.364   5.714  0.4888 -0.1202  0.8568
   75MOL    C2612014   0.032   2.390   5.967 -0.5189 -0.4643  0.1871
   75MOL    C2712015   7.849   2.366   6.120 -0.0034  0.4075  0.4355
   75MOL    C2812016   0.051   2.467   6.222  0.4467 -0.5375  0.2689
   75MOL    O2912017   0.152   2.533   6.190  0.4804  0.0240 -0.0088
   75MOL    H3012018   7.814   2.346   5.903  0.9620 -1.9345 -0.6434
   75MOL    H3112019   0.036   2.496   5.944 -1.6628 -0.4105  0.2110
   75MOL    H3212020   0.019   2.268   6.161  0.4968 -0.5172 -2.0404
   75MOL    H3312021   7.741   2.367   6.129  0.1018  2.4084  1.7997
   75MOL    C3412022   7.852   2.470   6.366 -0.8173 -0.5282  0.4227
   75MOL    C3512023   0.098   2.424   6.472  0.2549  0.6795 -1.2043
   75MOL    C3612024   0.084   2.502   6.605 -0.0504  0.1044 -0.2209
   75MOL    O3712025   0.014   2.600   6.610 -0.4773 -0.5103  0.0555
   75MOL    H3812026   7.761   2.412   6.381  0.9466 -3.0339  1.7592
   75MOL    H3912027   7.828   2.574   6.386 -0.3597 -0.0328 -1.4981
   75MOL    H4012028   0.198   2.426   6.430  0.6087 -0.0713 -0.4136
   75MOL    H4112029   0.071   2.319   6.485  0.3263  0.7247 -0.6690
   75MOL    C4212030   0.130   2.421   6.724  0.2014 -0.7570  0.0137
   75MOL    C4312031   0.117   2.485   6.862 -0.6040 -0.4109  0.1038
   75MOL    C4412032   0.241   2.557   6.911 -0.1796  0.0946 -0.2357
   75MOL    O4512033   0.289   2.647   6.840  0.2026 -0.1227 -0.0772
   75MOL    H4612034   0.234   2.390   6.715 -0.0221 -1.8280  0.9919
   75MOL    H4712035   0.065   2.333   6.720  1.3313 -1.5972 -0.0634
   75MOL    H4812036   0.107   2.417   6.946  1.5158 -0.0247  0.7027
   75MOL    H4912037   0.039   2.562   6.864  1.4395  1.7364  0.0925
   75MOL    C5012038   0.309   2.511   7.035 -0.0579 -0.2457 -0.5187
   75MOL    C5112039   0.442   2.586   7.062 -0.1036 -0.4091  0.4819
   75MOL    C5212040   0.505   2.548   7.192 -0.3639  0.0965  1.0835
   75MOL    O5312041   0.463   2.449   7.250  0.1148 -0.3520  0.1857
   75MOL    H5412042   0.352   2.412   7.026  1.7664  0.2618  2.1566
   75MOL    H5512043   0.239   2.525   7.117 -0.7947  0.5149 -1.2622
   75MOL    H5612044   0.432   2.694   7.074  1.3340 -0.0695 -1.2316
   75MOL    H5712045   0.508   2.553   6.983  0.2488 -0.0630  0.6329
   75MOL    C5812046   0.613   2.641   7.250  0.3884 -0.2497  0.1060
   75MOL    C5912047   0.741   2.569   7.281  0.5753 -0.3066  0.0415
   75MOL    C6012048   0.854   2.611   7.186 -0.4478  0.2971  0.6857
   75MOL    O6112049   0.854   2.578   7.072 -0.5042 -0.2569 -0.9844
   75MOL    H6212050   0.582   2.680   7.347  0.0397  1.8633 -0.8233
   75MOL    H6312051   0.625   2.733   7.192  0.7800 -0.7350 -0.5824
   75MOL    H6412052   0.733   2.460   7.288  1.5863 -0.3912  0.0713
   75MOL    H6512053   0.766   2.597   7.384  0.1145  1.1450 -0.2437
   75MOL    C6612054   0.974   2.684   7.254  0.1815 -0.7677 -0.0160
   75MOL    C6712055   1.106   2.664   7.186 -0.3253 -0.1134 -0.0838
   75MOL    C6812056   1.195   2.559   7.236  0.7719  0.5878 -1.0960
   75MOL    O6912057   1.193   2.521   7.352  0.1117  0.2093 -0.1789
   75MOL    H7012058   0.972   2.643   7.355  1.6622 -0.5366  0.1130
   75MOL    H7112059   0.948   2.789   7.268 -1.9758 -0.9119 -2.4827
   75MOL    H7212060   1.168   2.754   7.185 -0.5104  0.0192  0.2152
   75MOL    H7312061   1.081   2.645   7.082  0.0844  1.5575 -0.5005
   75MOL    C7412062   1.269   2.484   7.117 -0.5141  0.3343  0.0093
   75MOL    C7512063   1.413   2.438   7.157 -0.2037  1.1929  0.1260
   75MOL    C7612064   1.471   2.353   7.045  0.7764 -0.8597  0.2816
   75MOL    O7712065   1.450   2.388   6.927  0.0061 -1.1271  0.2274
   75MOL    H7812066   1.268   2.559   7.039 -1.4364 -1.9466 -2.2570
   75MOL    H7912067   1.210   2.397   7.087  0.9055 -0.7386  0.2430
   75MOL    H8012068   1.419   2.381   7.249  1.4895  0.9253 -0.1273
   75MOL    H8112069   1.480   2.523   7.168  0.4726  0.6679  0.0774
   75MOL    C8212070   1.542   2.222   7.090  0.0568 -0.1802 -0.1166
   75MOL    C8312071   1.482   2.104   7.009  0.4188  0.8793  0.1819
   75MOL    C8412072   1.391   2.017   7.091  0.2903  0.4648  1.0233
   75MOL    O8512073   1.381   2.035   7.212 -0.4553  0.3981  0.0939
   75MOL    H8612074   1.514   2.218   7.195  2.4306  0.1959  0.5609
   75MOL    H8712075   1.649   2.237   7.076  0.1286 -1.9748 -1.7111
   75MOL    H8812076   1.568   2.050   6.969  0.7153  1.2833  0.2691
   75MOL    H8912077   1.428   2.137   6.921 -2.3358  0.2038  1.5486
   75MOL    C9012078   1.300   1.916   7.023  0.2526  0.3068 -0.2605
   75MOL    C9112079   1.159   1.904   7.083  0.4950  0.0082  0.2199
   75MOL    C9212080   1.156   1.809   7.204  0.2311  0.8898  0.4204
   75MOL    O9312081   1.245   1.725   7.216  0.7777  0.0254  0.6561
   75MOL    H9412082   1.357   1.824   7.035 -2.1624 -0.9230  2.4020
   75MOL    H9512083   1.303   1.924   6.914  2.1240  0.3249 -0.2205
   75MOL    H9612084   1.085   1.873   7.010 -0.9470 -0.7600  1.9624
   75MOL    H9712085   1.117   2.001   7.109 -0.9370 -0.4256 -0.4414
   75MOL    C9812086   1.047   1.827   7.305 -0.7133  0.1696  0.4023
   75MOL    C9912087   1.093   1.875   7.439  0.4425  0.9380 -0.0253
   75MOL   C10012088   1.126   2.031   7.444 -0.1316 -0.1617  0.5001
   75MOL   O10112089   1.064   2.107   7.373  0.1281 -0.2537  0.0872
   75MOL   H10212090   0.998   1.730   7.316 -0.6574  0.2193  1.1252
   75MOL   H10312091   0.969   1.894   7.271 -1.9626 -0.9429  0.9975
   75MOL   H10412092   1.174   1.813   7.478 -1.6385 -2.6415 -1.1610
   75MOL   H10512093   1.011   1.853   7.506 -0.6654  3.4473 -0.4781
   75MOL   C10612094   1.228   2.080   7.543  0.0985 -0.2058  0.4153
   75MOL   C10712095   1.311   2.205   7.492  0.3753 -0.1383 -0.3948
   75MOL   C10812096   1.376   2.271   7.612 -0.3200 -0.3564  0.5586
   75MOL   O10912097   1.435   2.208   7.695 -0.0357 -0.1798 -0.0656
   75MOL   H11012098   1.298   2.004   7.576  0.0649  0.8399  3.0445
   75MOL   H11112099   1.163   2.102   7.629 -2.2876 -0.8515 -1.1826
   75MOL   H11212100   1.245   2.276   7.443 -1.0231 -1.1076  0.0598
   75MOL   H11312101   1.386   2.166   7.422 -0.2881 -0.0165 -1.1856
   75MOL   C11412102   1.362   2.423   7.617 -0.1283 -0.0138 -0.0995
   75MOL   C11512103   1.430   2.474   7.742 -0.1977  0.2431 -0.0881
   75MOL   C11612104   1.344   2.536   7.850  1.0511  0.3508 -0.0125
   75MOL   O11712105   1.325   2.657   0.000 -0.2603  0.0770 -0.0484
   75MOL   H11812106   1.261   2.465   7.617  0.4787  1.4697 -0.3832
   75MOL   H11912107   1.407   2.463   7.527 -0.3229  1.8209  0.6119
   75MOL   H12012108   1.501   2.550   7.710  1.4470 -2.0796 -2.0848
   75MOL   H12112109   1.500   2.405   7.789 -1.9150 -0.7895  0.9838
   75MOL   C12212110   1.260   2.446   0.079  0.6212 -0.6833 -0.7873
   75MOL   C12312111   1.273   2.460   0.237 -0.0128 -0.6196 -0.6973
   75MOL   C12412112   1.191   2.570   0.294 -0.4833  0.6052 -0.6411
   75MOL   O12512113   1.071   2.579   0.263 -0.5867  0.2888 -0.4200
   75MOL   H12612114   1.288   2.344   0.053  0.2214 -1.1057  0.3713
   75MOL   H12712115   1.153   2.463   0.070  0.6405  1.0880  1.7234
   75MOL   H12812116   1.379   2.476   0.254  0.0972  0.6143 -2.4430
   75MOL   H12912117   1.254   2.367   0.290 -1.4556 -0.3748 -0.7585
   75MOL   C13012118   1.254   2.652   0.398  0.1040 -0.6637  0.0258
   75MOL   C13112119   1.165   2.773   0.459  0.7905 -0.3756  0.0048
   75MOL   C13212120   1.122   2.753   0.599 -0.2494 -0.3563 -0.0847
   75MOL   O13312121   1.060   2.649   0.622  0.3130 -0.0599  0.1422
   75MOL   H13412122   1.345   2.691   0.352 -0.1561  1.0115  0.9055
   75MOL   H13512123   1.292   2.594   0.482  0.8950  1.4389  1.1712
   75MOL   H13612124   1.077   2.795   0.398 -0.2858 -2.1663  0.8816
   75MOL   H13712125   1.232   2.858   0.445  0.5681 -0.4399 -1.5329
   75MOL   C13812126   1.167   2.854   0.699 -0.0072 -0.2555  0.6675
   75MOL   C13912127   1.086   2.843   0.829  0.6232 -0.0516  0.7594
   75MOL   C14012128   0.972   2.947   0.835  0.0350 -0.1865  0.7211
   75MOL   O14112129   0.916   2.987   0.732 -0.1385  0.3188 -0.0685
   75MOL   H14212130   1.143   2.948   0.649  0.2420 -0.2807  0.4957
   75MOL   H14312131   1.271   2.846   0.730 -0.3777 -0.2588  1.9034
   75MOL   H14412132   1.156   2.855   0.912  0.1199 -0.3881  1.2382
   75MOL   H14512133   1.028   2.751   0.840 -1.7216  1.3417  0.3898
   75MOL   C14612134   0.921   2.994   0.972  0.3376 -0.3550  1.3484
   75MOL   C14712135   0.896   3.144   0.976  0.0773 -0.6690  0.1030
   75MOL   C14812136   0.756   3.191   1.037  0.1309  0.2310 -0.8740
   75MOL   O14912137   0.652   3.145   0.992 -0.5520  0.6864  0.4468
   75MOL   H15012138   1.001   2.970   1.042  3.3558 -1.6080 -2.3524
   75MOL   H15112139   0.837   2.927   0.989  0.3891 -0.7251  0.2152
   75MOL   H15212140   0.898   3.187   0.876 -2.7462  1.9887  1.1113
   75MOL   H15312141   0.969   3.204   1.029  0.3515 -0.8518 -0.0640
   75MOL   C15412142   0.758   3.295   1.150 -0.2475  0.8545  0.4395
   75MOL   C15512143   0.639   3.283   1.248  0.0079  0.5018  0.4001
   75MOL   C15612144   0.576   3.419   1.275  0.1794  0.2929  0.0334
   75MOL   O15712145   0.613   3.490   1.366 -0.0723  0.5800 -0.2525
   75MOL   H15812146   0.758   3.392   1.102  0.0648 -0.0643 -1.4547
   75MOL   H15912147   0.850   3.283   1.209 -0.0852  0.0210  0.0284
   75MOL   H16012148   0.664   3.240   1.345  0.5701 -0.5468 -0.2009
   75MOL   H16112149   0.563   3.211   1.217 -0.0654  0.3054  1.0371
   75MOL   H16212150   0.496   3.449   1.208  1.1761 -0.8968 -1.7264
   76MOL     C112151   6.848   1.839   3.840  0.3750 -0.2755 -0.3942
   76MOL     C212152   6.875   1.696   3.795  0.3647  0.0195  0.1569
   76MOL     C312153   7.024   1.674   3.774  0.4701  0.7396 -0.3704
   76MOL     O412154   7.103   1.718   3.858 -0.1680 -0.7631  0.1261
   76MOL     H512155   6.906   1.919   3.793 -1.1069  1.5451  0.8000
   76MOL     H612156   6.741   1.861   3.830  0.5640  0.5272 -0.7626
   76MOL     H712157   6.826   1.680   3.699  2.5114 -0.1556 -0.9436
   76MOL     H812158   6.831   1.626   3.867 -0.4785  2.0370  1.6380
   76MOL     H912159   6.865   1.851   3.947  0.3245  0.2991 -0.4456
   76MOL    C1012160   7.071   1.601   3.647 -0.7894 -0.5585  0.0745
   76MOL    C1112161   7.212   1.545   3.661 -0.7757  0.1304  0.4611
   76MOL    C1212162   7.225   1.407   3.589 -0.6045 -0.1042  0.2226
   76MOL    O1312163   7.126   1.336   3.563 -0.4775 -0.1191 -0.6085
   76MOL    H1412164   7.060   1.666   3.560 -1.2936 -0.5833  0.1143
   76MOL    H1512165   6.999   1.519   3.648  0.0341 -1.3020  2.8206
   76MOL    H1612166   7.235   1.523   3.766  0.8451  0.7621  0.2476
   76MOL    H1712167   7.287   1.621   3.639 -0.3087 -0.2815  0.5943
   76MOL    C1812168   7.371   1.368   3.540  0.6310  0.3176  0.3872
   76MOL    C1912169   7.390   1.222   3.484 -0.2673  0.0578  0.4491
   76MOL    C2012170   7.395   1.205   3.331  0.6851  0.2406  0.4456
   76MOL    O2112171   7.467   1.286   3.267 -0.0941 -0.1325  0.4191
   76MOL    H2212172   7.434   1.397   3.624  0.4473  2.2770 -0.1048
   76MOL    H2312173   7.407   1.425   3.454 -0.1907 -0.7223 -0.6552
   76MOL    H2412174   7.306   1.166   3.524 -1.1707 -0.8025 -2.5133
   76MOL    H2512175   7.486   1.183   3.517 -0.4150 -1.4805 -0.8573
   76MOL    C2612176   7.309   1.096   3.263 -0.7500  0.9193 -0.7217
   76MOL    C2712177   7.168   1.137   3.229  0.1942 -0.1317  0.3058
   76MOL    C2812178   7.090   1.049   3.135  0.4459 -0.0973 -0.8560
   76MOL    O2912179   7.132   0.945   3.090  0.5493 -0.4842  0.7654
   76MOL    H3012180   7.295   1.011   3.329 -0.5153  1.1405 -0.3856
   76MOL    H3112181   7.361   1.063   3.173  1.2959 -0.5720  0.9553
   76MOL    H3212182   7.183   1.233   3.180  1.9031 -1.1003 -1.0920
   76MOL    H3312183   7.101   1.133   3.315  1.3804 -1.7591  1.1820
   76MOL    C3412184   6.948   1.094   3.099  0.1684  0.1347  0.0129
   76MOL    C3512185   6.900   1.044   2.965  0.2357 -0.0018  0.9055
   76MOL    C3612186   6.755   1.074   2.949  0.1801 -0.4370 -0.2752
   76MOL    O3712187   6.679   1.097   3.047 -0.0172 -0.0531  0.5659
   76MOL    H3812188   6.944   1.202   3.112  1.6838 -0.1082  2.7913
   76MOL    H3912189   6.887   1.036   3.168 -1.6608 -1.9453 -3.2085
   76MOL    H4012190   6.915   0.936   2.957 -0.9625 -0.0490 -1.2371
   76MOL    H4112191   6.949   1.094   2.882 -0.2599 -2.4552 -0.9542
   76MOL    C4212192   6.695   1.070   2.808 -0.0243  0.5074 -0.2103
   76MOL    C4312193   6.543   1.107   2.794  1.0883  0.4294 -0.3237
   76MOL    C4412194   6.447   1.025   2.717  0.0261 -0.1257  0.1328
   76MOL    O4512195   6.484   0.924   2.657 -0.4983  0.0857 -0.7914
   76MOL    H4612196   6.708   0.967   2.774  1.0214  0.3438  0.6883
   76MOL    H4712197   6.756   1.138   2.748  2.8923 -3.1130 -1.6122
   76MOL    H4812198   6.536   1.201   2.739  2.0767  1.6210  1.5245
   76MOL    H4912199   6.497   1.114   2.893 -0.7074 -0.9306 -1.0367
   76MOL    C5012200   6.304   1.077   2.708 -0.3487  0.0919  0.4674
   76MOL    C5112201   6.205   0.976   2.648  0.0161 -0.4567  0.6652
   76MOL    C5212202   6.178   0.993   2.502  0.6651 -0.4551  0.0876
   76MOL    O5312203   6.233   1.084   2.438  0.3845 -0.0703 -0.7331
   76MOL    H5412204   6.289   1.169   2.653  0.0338  0.4721  1.0011
   76MOL    H5512205   6.278   1.092   2.812  1.0121  0.9075  0.6977
   76MOL    H5612206   6.108   0.978   2.697 -0.4715  0.7077 -0.3319
   76MOL    H5712207   6.235   0.871   2.656 -1.3125 -0.8692  0.3364
   76MOL    C5812208   6.071   0.904   2.440  0.1641  0.0942 -0.3455
   76MOL    C5912209   6.107   0.865   2.296  0.3336  0.3225 -0.4248
   76MOL    C6012210   6.035   0.740   2.258  0.6022 -0.0481  0.2595
   76MOL    O6112211   5.925   0.751   2.197  0.8619 -0.1449 -0.0951
   76MOL    H6212212   5.978   0.961   2.449  0.4575  0.2062  2.2471
   76MOL    H6312213   6.071   0.818   2.506  0.2980 -0.6081 -1.2572
   76MOL    H6412214   6.214   0.848   2.285  0.3879  0.7254 -0.5577
   76MOL    H6512215   6.087   0.945   2.224 -0.5131  1.5181  1.1229
   76MOL    C6612216   6.105   0.613   2.290  0.2597 -0.0065 -0.1456
   76MOL    C6712217   6.046   0.498   2.206  0.0137  0.7254  0.2480
   76MOL    C6812218   6.140   0.377   2.206 -0.4628 -0.7944 -0.4226
   76MOL    O6912219   6.234   0.379   2.284 -0.0459  0.0152  0.8913
   76MOL    H7012220   6.099   0.586   2.396 -0.1843 -1.4223 -0.5246
   76MOL    H7112221   6.210   0.631   2.267  0.2435 -0.5971 -0.6888
   76MOL    H7212222   6.025   0.513   2.100 -1.0854 -0.0708  0.3382
   76MOL    H7312223   5.954   0.469   2.256 -0.2060 -0.9416 -1.1021
   76MOL    C7412224   6.116   0.271   2.100  0.0125  0.4163  0.6097
   76MOL    C7512225   6.187   0.138   2.143  0.1648 -0.3608  0.0767
   76MOL    C7612226   6.338   0.145   2.121 -0.6241 -0.6352 -0.0862
   76MOL    O7712227   6.382   0.212   2.033  0.0332 -0.3999 -0.1274
   76MOL    H7812228   6.165   0.301   2.008 -0.6199  1.1463  0.5027
   76MOL    H7912229   6.008   0.262   2.082  0.1357 -1.2333  0.6392
   76MOL    H8012230   6.156   0.056   2.079  1.2488  1.0233 -2.2599
   76MOL    H8112231   6.164   0.118   2.248  0.6122  0.3043  0.3034
   76MOL    C8212232   6.427   0.063   2.212  0.5559 -0.3983 -1.0404
   76MOL    C8312233   6.535   0.141   2.281 -0.4050  0.5869 -0.0267
   76MOL    C8412234   6.636   0.051   2.349  0.7449 -0.1546 -0.7809
   76MOL    O8512235   6.682   7.810   2.290 -0.6122  0.3416  0.0927
   76MOL    H8612236   6.480   7.852   2.147 -1.0082 -1.7501 -0.8848
   76MOL    H8712237   6.364   0.012   2.286  2.2783  0.7145  1.2685
   76MOL    H8812238   6.477   0.202   2.350  1.3773  1.2531  0.9251
   76MOL    H8912239   6.590   0.216   2.224 -0.1181  1.6269  1.5817
   76MOL    C9012240   6.684   0.090   2.488 -0.6057 -0.5415  0.1598
   76MOL    C9112241   6.835   0.076   2.496 -0.2033  0.2146 -0.2383
   76MOL    C9212242   6.865   7.791   2.553  0.1966  0.4706  0.2262
   76MOL    O9312243   6.796   7.739   2.641 -0.4426 -0.2369 -0.3308
   76MOL    H9412244   6.640   0.014   2.551  0.3133 -1.1022  0.1453
   76MOL    H9512245   6.652   0.193   2.503  1.5514  0.3664 -1.0523
   76MOL    H9612246   6.884   0.153   2.555  2.1092 -0.7909 -0.7767
   76MOL    H9712247   6.887   0.096   2.402 -1.3563  2.4527 -0.4346
   76MOL    C9812248   6.983   7.718   2.488 -0.2087  0.7085 -0.2811
   76MOL    C9912249   7.043   7.598   2.559  0.2684  1.0342 -0.0501
   76MOL   C10012250   7.197   7.619   2.576 -0.0061  0.5438 -0.0740
   76MOL   O10112251   7.282   7.566   2.500 -0.0115 -0.0317  0.2645
   76MOL   H10212252   7.055   7.792   2.452  0.6705 -0.6738 -1.4529
   76MOL   H10312253   6.949   7.677   2.392 -0.0684  1.9652 -0.8772
   76MOL   H10412254   7.021   7.506   2.504  2.4090  0.2083  0.4219
   76MOL   H10512255   7.021   7.582   2.665 -1.3593 -0.2393 -0.5504
   76MOL   C10612256   7.242   7.733   2.662  1.4240 -0.1206  0.5512
   76MOL   C10712257   7.331   7.833   2.594 -1.1417  0.1106 -0.6049
   76MOL   C10812258   7.255   0.106   2.573  0.4456 -0.6639 -0.0375
   76MOL   O10912259   7.141   0.129   2.612  0.3464  0.3648 -0.0481
   76MOL   H11012260   7.296   7.684   2.743  0.5983 -0.9110  0.6358
   76MOL   H11112261   7.163   7.780   2.721  0.8585  0.2008 -0.4501
   76MOL   H11212262   7.382   7.789   2.509  1.1442 -0.2427  0.8905
   76MOL   H11312263   7.402   7.856   2.674 -1.8250 -1.4824  0.4825
   76MOL   C11412264   7.333   0.214   2.508  0.0036  0.3163 -0.7883
   76MOL   C11512265   7.286   0.238   2.367  0.2644 -0.0846 -0.1090
   76MOL   C11612266   7.366   0.178   2.249  1.0653  0.8338  0.4849
   76MOL   O11712267   7.462   0.105   2.270  0.5376 -0.0446  0.0641
   76MOL   H11812268   7.441   0.200   2.507 -0.0437 -0.2159  0.6592
   76MOL   H11912269   7.320   0.297   2.576 -0.7451 -0.8373  0.5125
   76MOL   H12012270   7.290   0.344   2.344 -0.3664 -0.4027 -1.7141
   76MOL   H12112271   7.183   0.205   2.361 -0.4481  1.6497  2.0007
   76MOL   C12212272   7.330   0.215   2.109  0.2209 -0.4601  0.4488
   76MOL   C12312273   7.262   0.095   2.030  0.3939 -0.4790 -0.2993
   76MOL   C12412274   7.115   0.085   2.074  1.0894 -0.1799  0.2427
   76MOL   O12512275   7.065   0.156   2.161  0.3307 -0.2888  0.8884
   76MOL   H12612276   7.419   0.247   2.055 -0.9944 -0.7369 -1.7673
   76MOL   H12712277   7.265   0.303   2.106  1.1614  0.2596  0.6975
   76MOL   H12812278   7.306   0.001   2.063  0.7291  0.2457  1.4106
   76MOL   H12912279   7.265   0.105   1.922  0.1127  0.7525 -0.2055
   76MOL   C13012280   7.031   7.851   1.988 -0.5215 -0.2784  0.3540
   76MOL   C13112281   6.972   7.730   2.063 -0.3300  0.4227  0.4947
   76MOL   C13212282   7.030   7.595   2.011  0.1411 -0.5949  0.1994
   76MOL   O13312283   7.053   7.575   1.894  0.2191 -0.0914  0.0261
   76MOL   H13412284   7.095   7.823   1.905 -0.1354 -1.1280  0.9271
   76MOL   H13512285   6.949   0.045   1.940 -0.4717 -1.7475 -1.3769
   76MOL   H13612286   6.865   7.734   2.045 -0.6073 -1.1572  1.7345
   76MOL   H13712287   6.997   7.736   2.169 -0.0354 -2.2120  0.5986
   76MOL   C13812288   7.060   7.493   2.119  0.4844 -0.5915  0.2339
   76MOL   C13912289   7.210   7.449   2.124 -0.1953 -0.2433  0.0672
   76MOL   C14012290   7.304   7.554   2.189 -0.2132 -0.1959  0.8935
   76MOL   O14112291   7.268   7.669   2.195 -0.0861  0.0692  0.0229
   76MOL   H14212292   7.001   7.402   2.103  0.8212 -0.9602  1.0612
   76MOL   H14312293   7.032   7.531   2.217  0.7805 -0.3958  0.2418
   76MOL   H14412294   7.239   7.434   2.020  3.1419  0.7070  0.8149
   76MOL   H14512295   7.229   7.352   2.171  1.9735  0.7862  1.3838
   76MOL   C14612296   7.452   7.514   2.227  0.3073  0.3546  0.3600
   76MOL   C14712297   7.546   7.629   2.263 -0.7335 -0.7115 -0.2307
   76MOL   C14812298   7.644   7.582   2.372  0.4412  0.2939 -0.2681
   76MOL   O14912299   7.737   7.504   2.354 -0.4657  0.1120 -0.2010
   76MOL   H15012300   7.512   7.454   2.158  0.2567  2.4796 -1.6111
   76MOL   H15112301   7.441   7.449   2.313 -0.8002 -1.4249 -1.1092
   76MOL   H15212302   7.494   7.713   2.308  0.3307 -0.5441  0.7152
   76MOL   H15312303   7.587   7.656   2.166  0.1813  1.7241  0.8133
   76MOL   C15412304   7.628   7.637   2.510 -0.2221  0.4982  1.1498
   76MOL   C15512305   7.766   7.662   2.583  0.8218  0.1604 -0.3614
   76MOL   C15612306   7.780   7.799   2.653  0.8328  0.1026 -0.3092
   76MOL   O15712307   7.681   0.015   2.668 -0.4639 -0.0702  0.1377
   76MOL   H15812308   7.556   7.581   2.569 -1.4342  0.7239 -0.1097
   76MOL   H15912309   7.584   7.732   2.483 -1.1336  0.1615  1.4394
   76MOL   H16012310   7.853   7.643   2.521  0.4757 -0.9418 -0.5358
   76MOL   H16112311   7.764   7.602   2.675 -2.2411  1.0850  0.2358
   76MOL   H16212312   0.025   7.820   2.681  1.5962 -2.0065 -1.4593
   77MOL     C112313   7.488   6.524   5.285 -0.2572  0.2380 -0.3450
   77MOL     C212314   7.369   6.500   5.191 -0.4406 -0.0317 -0.5602
   77MOL     C312315   7.286   6.374   5.215 -0.0741  0.0736 -0.2597
   77MOL     O412316   7.259   6.337   5.328 -0.3700 -0.3209 -0.5091
   77MOL     H512317   7.533   6.427   5.306  0.3796  1.0493  2.3296
   77MOL     H612318   7.558   6.590   5.233 -1.0433  3.4934  2.5347
   77MOL     H712319   7.409   6.487   5.090 -2.8811 -0.4130 -1.5315
   77MOL     H812320   7.307   6.589   5.183 -0.9248 -0.2490  0.6557
   77MOL     H912321   7.443   6.572   5.372 -1.3940 -1.8767  0.2835
   77MOL    C1012322   7.229   6.301   5.094 -0.7815 -0.2051 -0.0894
   77MOL    C1112323   7.159   6.168   5.126 -0.1676 -0.0397  0.0417
   77MOL    C1212324   7.043   6.175   5.221 -0.0095  0.8334  0.1795
   77MOL    O1312325   6.990   6.284   5.244 -0.8647  0.4327 -0.5847
   77MOL    H1412326   7.305   6.280   5.018 -0.3374  1.3064 -0.0745
   77MOL    H1512327   7.156   6.376   5.064 -0.1533  0.5155  0.1807
   77MOL    H1612328   7.228   6.099   5.174 -2.4403 -1.3177  1.5448
   77MOL    H1712329   7.117   6.125   5.035  1.9201 -1.0794 -0.4565
   77MOL    C1812330   6.983   6.037   5.269 -0.5235 -0.4378  0.3617
   77MOL    C1912331   6.918   6.059   5.413  0.0117  0.3026 -0.3243
   77MOL    C2012332   6.912   5.934   5.494  0.3966  0.3221 -0.6204
   77MOL    O2112333   6.811   5.872   5.504 -0.1814 -0.3528 -0.3443
   77MOL    H2212334   7.044   5.946   5.268  0.0012 -0.1280  1.9478
   77MOL    H2312335   6.907   6.005   5.198 -0.3483  2.8702 -1.4168
   77MOL    H2412336   6.820   6.107   5.406  0.1045  0.5730  0.2657
   77MOL    H2512337   6.968   6.133   5.475  0.8095 -0.3112 -0.2352
   77MOL    C2612338   7.043   5.894   5.569  0.3283  0.2910  0.5242
   77MOL    C2712339   7.012   5.856   5.714 -0.4391  0.3418  0.2168
   77MOL    C2812340   7.036   5.705   5.752 -0.8202 -0.0381 -0.1506
   77MOL    O2912341   7.068   5.616   5.674  0.2019  0.0327 -0.1470
   77MOL    H3012342   7.113   5.978   5.568  2.0600 -1.1236 -1.2267
   77MOL    H3112343   7.094   5.820   5.508  1.3789  1.1978  0.2886
   77MOL    H3212344   6.904   5.870   5.725 -0.0079  3.5814  0.8295
   77MOL    H3312345   7.073   5.914   5.784 -0.4486 -1.0102  1.3606
   77MOL    C3412346   7.009   5.663   5.894 -0.1200 -0.1818  0.7760
   77MOL    C3512347   6.988   5.511   5.906  0.3483 -0.3172 -0.5438
   77MOL    C3612348   6.970   5.456   6.045  0.2090 -0.2212  0.5965
   77MOL    O3712349   6.968   5.528   6.145  0.5735  0.0385  0.4026
   77MOL    H3812350   6.934   5.718   5.951  1.1210  1.1656  1.1451
   77MOL    H3912351   7.101   5.665   5.953  1.7978 -0.7769 -2.0979
   77MOL    H4012352   7.084   5.469   5.876  0.0849 -0.7025 -0.8429
   77MOL    H4112353   6.908   5.475   5.842  0.3282 -1.8172  0.3147
   77MOL    C4212354   6.946   5.305   6.060  0.2012  1.0250 -0.4965
   77MOL    C4312355   7.011   5.259   6.193 -0.8360  0.1579 -0.1699
   77MOL    C4412356   6.955   5.120   6.219  0.0811 -0.0930 -0.1230
   77MOL    O4512357   6.844   5.099   6.259 -0.1970 -1.0073  1.3309
   77MOL    H4612358   6.978   5.250   5.972  0.1242 -0.3079  0.2980
   77MOL    H4712359   6.838   5.302   6.076  0.3211 -0.4162  0.0873
   77MOL    H4812360   6.998   5.323   6.280  0.5358 -1.6518  1.4031
   77MOL    H4912361   7.116   5.251   6.165 -0.4745  0.0326  1.2078
   77MOL    C5012362   7.045   5.001   6.176  0.1987  0.4148  0.2022
   77MOL    C5112363   7.033   4.975   6.027 -0.0805 -0.0464 -0.0135
   77MOL    C5212364   7.165   5.003   5.948  0.2190 -0.7166 -0.1600
   77MOL    O5312365   7.249   5.078   5.994  0.1483 -0.1458 -0.1774
   77MOL    H5412366   7.017   4.909   6.228  1.8545 -0.4368 -0.3725
   77MOL    H5512367   7.148   5.022   6.203  0.7501  0.4259 -1.8231
   77MOL    H5612368   6.964   5.040   5.973  2.0803  1.6059 -0.8650
   77MOL    H5712369   6.995   4.875   6.006 -2.1926  0.3840  1.5903
   77MOL    C5812370   7.201   4.925   5.818  0.1827 -0.0586 -0.4231
   77MOL    C5912371   7.334   4.951   5.754  0.0474  0.2989  0.5980
   77MOL    C6012372   7.439   4.851   5.814  0.6205  0.6366  1.1324
   77MOL    O6112373   7.422   4.729   5.813  0.1420  0.6611  0.1315
   77MOL    H6212374   7.130   4.948   5.738 -1.5026 -0.4674  0.9267
   77MOL    H6312375   7.186   4.820   5.842  0.4821 -0.0261 -0.0898
   77MOL    H6412376   7.367   5.053   5.776  1.4483 -0.3115  1.4149
   77MOL    H6512377   7.327   4.929   5.648 -0.7048  2.8864  0.0741
   77MOL    C6612378   7.573   4.912   5.841 -0.5426 -0.3270  0.1752
   77MOL    C6712379   7.666   4.834   5.928  0.4898  0.3634  0.1741
   77MOL    C6812380   7.761   4.914   6.014 -0.2271  0.2986  0.0109
   77MOL    O6912381   7.747   5.031   6.036  0.0977 -0.6115  0.3291
   77MOL    H7012382   7.545   4.995   5.906 -0.0565 -0.7218  0.8923
   77MOL    H7112383   7.623   4.959   5.757  0.9061 -1.4797  0.3751
   77MOL    H7212384   7.734   4.779   5.863  2.3631  0.2276  2.1512
   77MOL    H7312385   7.615   4.758   5.988 -0.9508  1.0529 -0.1554
   77MOL    C7412386   0.002   4.841   6.102  0.1471  0.1190 -0.3344
   77MOL    C7512387   0.094   4.941   6.184 -0.0526 -0.3770 -0.0565
   77MOL    C7612388   0.165   4.872   6.300  0.4436  0.5619 -0.0765
   77MOL    O7712389   0.103   4.805   6.380 -0.6489 -0.2521  0.0774
   77MOL    H7812390   0.070   4.777   6.048 -1.3698  0.5474 -2.8526
   77MOL    H7912391   7.815   4.762   6.161  1.3828  0.2074  0.7649
   77MOL    H8012392   0.060   5.042   6.206  0.4240 -0.6451  2.1032
   77MOL    H8112393   0.176   4.957   6.115 -0.6778  1.6575 -0.3578
   77MOL    C8212394   0.312   4.895   6.313 -0.0687  0.3255 -0.2386
   77MOL    C8312395   0.364   4.873   6.452  0.1653  0.3580  0.3231
   77MOL    C8412396   0.502   4.926   6.476 -0.0199  0.1631 -0.5179
   77MOL    O8512397   0.567   4.991   6.397  0.0117 -0.1622  0.1261
   77MOL    H8612398   0.343   4.996   6.286  3.1664 -0.3939  0.5348
   77MOL    H8712399   0.368   4.828   6.247  0.5780 -0.5864  1.1979
   77MOL    H8812400   0.356   4.767   6.477  0.5070  0.1473 -0.4408
   77MOL    H8912401   0.301   4.923   6.526  0.7146 -2.0175  2.4673
   77MOL    C9012402   0.554   4.902   6.609  0.7104 -0.2094  0.1890
   77MOL    C9112403   0.590   5.037   6.679  0.4979 -0.8440  0.3882
   77MOL    C9212404   0.490   5.069   6.789  0.2087  0.8462 -0.3230
   77MOL    O9312405   0.375   5.094   6.758  0.2748 -0.0872 -0.6303
   77MOL    H9412406   0.647   4.848   6.591  1.9674  1.2858  2.0289
   77MOL    H9512407   0.482   4.844   6.666 -0.2379  0.9732  0.2197
   77MOL    H9612408   0.587   5.111   6.598 -0.5316 -0.8442  0.4217
   77MOL    H9712409   0.696   5.030   6.705  0.7422 -3.2528 -1.0853
   77MOL    C9812410   0.534   5.071   6.937  0.3119 -0.4692 -0.7009
   77MOL    C9912411   0.421   5.066   7.046  0.5038  0.1768  0.4120
   77MOL   C10012412   0.490   5.111   7.182  0.3608 -0.2833 -0.8628
   77MOL   O10112413   0.565   5.034   7.239  0.0751 -0.1357  0.0073
   77MOL   H10212414   0.587   5.165   6.953 -0.6405  0.0355 -0.4212
   77MOL   H10312415   0.607   4.996   6.967 -0.3626 -1.1115 -0.6483
   77MOL   H10412416   0.392   4.962   7.065 -0.6355  0.2719 -0.7544
   77MOL   H10512417   0.335   5.128   7.022 -1.5040 -2.3010  1.0481
   77MOL   C10612418   0.477   5.257   7.217  0.9111 -0.0660 -0.2342
   77MOL   C10712419   0.571   5.313   7.327 -0.0148  0.1236  0.0573
   77MOL   C10812420   0.546   5.454   7.370 -0.8436 -0.1487  0.1449
   77MOL   O10912421   0.439   5.494   7.414  0.1614 -0.0585  0.5994
   77MOL   H11012422   0.376   5.276   7.254  0.4949  0.9110 -1.8249
   77MOL   H11112423   0.477   5.309   7.121 -2.6707  1.1044  0.3434
   77MOL   H11212424   0.677   5.314   7.301  0.1685  0.0823  0.7917
   77MOL   H11312425   0.570   5.254   7.419  0.2740  1.2485  0.7813
   77MOL   C11412426   0.666   5.547   7.367 -0.0144 -0.0989  0.0687
   77MOL   C11512427   0.663   5.661   7.476  0.1862 -0.1370 -0.2602
   77MOL   C11612428   0.692   5.804   7.427 -0.4657  0.0721 -0.2649
   77MOL   O11712429   0.650   5.843   7.324 -0.0962 -0.5563  0.2516
   77MOL   H11812430   0.681   5.591   7.269  2.5928 -2.2414 -0.5459
   77MOL   H11912431   0.763   5.499   7.377  0.9947  2.0289  0.7057
   77MOL   H12012432   0.713   5.629   7.568  1.5096  0.5096 -0.7358
   77MOL   H12112433   0.560   5.684   7.501  0.8105  2.0099  0.5551
   77MOL   C12212434   0.790   5.877   7.513 -0.1389 -1.2523  0.0553
   77MOL   C12312435   0.805   6.016   7.457  0.5610 -0.2333 -0.3321
   77MOL   C12412436   0.900   6.025   7.333  0.6820  0.7731 -0.1401
   77MOL   O12512437   0.929   5.929   7.262 -0.5610  0.3501 -0.0945
   77MOL   H12612438   0.890   5.834   7.517  0.6176  0.4437 -0.1420
   77MOL   H12712439   0.761   5.882   7.618  0.6093 -1.7008  0.2884
   77MOL   H12812440   0.842   6.074   7.540  0.3841  1.0549 -1.1430
   77MOL   H12912441   0.703   6.054   7.444  0.8484  0.5643 -0.2445
   77MOL   C13012442   0.943   6.169   7.282 -0.3699  0.5046 -0.8230
   77MOL   C13112443   1.011   6.169   7.148  0.4218 -0.8297  0.4479
   77MOL   C13212444   1.036   6.306   7.096 -0.2492 -0.1842 -0.1259
   77MOL   O13312445   0.995   6.335   6.985 -0.4591 -0.3493 -0.3625
   77MOL   H13412446   1.014   6.195   7.361 -0.8460 -1.2727  0.1945
   77MOL   H13512447   0.856   6.234   7.292  0.2716  1.3830 -0.8273
   77MOL   H13612448   0.949   6.107   7.083  0.4887  0.5932 -1.0004
   77MOL   H13712449   1.105   6.113   7.150  0.2541 -1.0787  1.6579
   77MOL   C13812450   1.097   6.412   7.188 -0.0587  0.0933  0.2350
   77MOL   C13912451   1.257   6.398   7.211 -0.2388  0.1951 -0.3619
   77MOL   C14012452   1.297   6.459   7.343 -1.3450 -0.2478  0.7309
   77MOL   O14112453   1.250   6.563   7.394 -0.5161  0.6739  0.0803
   77MOL   H14212454   1.037   6.425   7.278  0.0541 -2.2828  0.6900
   77MOL   H14312455   1.079   6.512   7.147  0.6944 -0.0975 -0.5697
   77MOL   H14412456   1.314   6.449   7.134  0.3797  0.3053  0.1566
   77MOL   H14512457   1.282   6.292   7.220 -1.0428  0.0743  0.6219
   77MOL   C14612458   1.421   6.391   7.418 -0.2279 -0.2433 -0.1889
   77MOL   C14712459   1.520   6.509   7.460  0.3088  0.5017 -0.8718
   77MOL   C14812460   1.603   6.541   7.340 -0.2853  0.4565  0.1708
   77MOL   O14912461   1.647   6.449   7.271  0.0498  0.2375  0.3109
   77MOL   H15012462   1.464   6.308   7.361 -1.5966  0.2587 -2.0264
   77MOL   H15112463   1.375   6.341   7.503 -4.0174 -1.0451 -2.5953
   77MOL   H15212464   1.588   6.472   7.536  0.5138  1.8924 -0.3533
   77MOL   H15312465   1.472   6.599   7.500 -0.8217 -0.2937 -0.3884
   77MOL   C15412466   1.612   6.686   7.294  0.2695 -0.0115  0.1518
   77MOL   C15512467   1.657   6.707   7.147  0.5208  0.3356  0.2534
   77MOL   C15612468   1.552   6.681   7.044  0.9103 -0.3732  0.1182
   77MOL   O15712469   1.436   6.698   7.076  0.7163 -0.2494  0.2279
   77MOL   H15812470   1.666   6.738   7.374 -0.5394  1.4791 -0.2580
   77MOL   H15912471   1.511   6.726   7.299  0.3149  0.1090  0.1105
   77MOL   H16012472   1.741   6.640   7.129 -0.8785 -1.4292  0.1784
   77MOL   H16112473   1.699   6.807   7.130 -1.5499  1.0754 -0.6701
   77MOL   H16212474   1.576   6.674   6.938 -0.9836 -2.5693 -0.2091
   78MOL     C112475   3.640   4.821   7.341  0.1013  0.0378 -0.6747
   78MOL     C212476   3.601   4.685   7.282 -0.6131 -0.5032 -0.9377
   78MOL     C312477   3.577   4.694   7.130  0.4307  0.5087 -0.5046
   78MOL     O412478   3.663   4.733   7.054 -0.1532  0.6036 -0.3724
   78MOL     H512479   3.673   4.820   7.445  0.6895  1.7368 -0.8254
   78MOL     H612480   3.717   4.861   7.274 -0.1255  0.9661 -0.3931
   78MOL     H712481   3.508   4.653   7.329 -0.6727  2.4403  1.0806
   78MOL     H812482   3.685   4.616   7.291  0.7812  1.3001  0.3205
   78MOL     H912483   3.554   4.887   7.332 -0.1667  0.1358  2.3592
   78MOL    C1012484   3.443   4.643   7.084 -0.2643  0.2002  0.1675
   78MOL    C1112485   3.452   4.594   6.941  0.3663  0.0514 -0.3744
   78MOL    C1212486   3.478   4.441   6.934 -0.7581 -0.2485 -0.0506
   78MOL    O1312487   3.470   4.364   7.030  0.2807 -0.5462  0.5531
   78MOL    H1412488   3.372   4.725   7.089  1.0040  1.2133  1.6915
   78MOL    H1512489   3.402   4.575   7.159  1.2931 -3.1161 -1.8773
   78MOL    H1612490   3.531   4.645   6.885  0.1458 -0.7803 -1.4526
   78MOL    H1712491   3.361   4.613   6.884  0.2357 -1.2502 -0.6234
   78MOL    C1812492   3.528   4.395   6.791 -0.4836  0.8516 -0.5296
   78MOL    C1912493   3.608   4.261   6.805  0.6889  0.5094  0.6102
   78MOL    C2012494   3.532   4.138   6.756  0.4596  0.4490  0.6486
   78MOL    O2112495   3.427   4.151   6.695  0.2706 -0.3645 -0.2215
   78MOL    H2212496   3.591   4.473   6.750 -0.2352  1.2673  0.6150
   78MOL    H2312497   3.447   4.403   6.718  2.0560  1.4491 -3.3586
   78MOL    H2412498   3.639   4.245   6.909 -0.5783 -0.3454  0.8633
   78MOL    H2512499   3.699   4.283   6.748  0.7951  0.0436  0.5995
   78MOL    C2612500   3.599   3.998   6.768 -0.4690  0.0225 -0.6262
   78MOL    C2712501   3.516   3.885   6.705  0.0457 -0.1314 -0.4499
   78MOL    C2812502   3.529   3.883   6.552  0.3293  0.6579  0.3699
   78MOL    O2912503   3.635   3.924   6.496  0.0197  0.2753  0.7066
   78MOL    H3012504   3.625   3.983   6.873 -0.9858  0.3413 -0.4530
   78MOL    H3112505   3.691   4.004   6.709 -0.3594  1.8942 -0.2852
   78MOL    H3212506   3.410   3.905   6.719  0.0206 -0.1740 -0.5740
   78MOL    H3312507   3.531   3.785   6.746 -1.4296 -0.0703  0.2573
   78MOL    C3412508   3.420   3.803   6.472  0.0946 -0.1466 -0.2381
   78MOL    C3512509   3.438   3.828   6.320 -0.1325  0.1068  0.7855
   78MOL    C3612510   3.356   3.950   6.275 -0.4169  0.0013  0.0221
   78MOL    O3712511   3.275   4.010   6.346 -0.4326  0.1888  0.3559
   78MOL    H3812512   3.317   3.820   6.503 -0.9778 -0.5900 -3.3508
   78MOL    H3912513   3.451   3.700   6.489 -1.6963 -0.4861  1.0808
   78MOL    H4012514   3.406   3.751   6.250  1.4303  0.8224 -0.7587
   78MOL    H4112515   3.545   3.840   6.303  0.2972 -1.2255  2.3684
   78MOL    C4212516   3.372   3.998   6.131  0.7948  0.3191 -0.1778
   78MOL    C4312517   3.264   4.085   6.074  0.2176  0.1343  0.7620
   78MOL    C4412518   3.155   4.009   6.002 -0.5122 -0.1433 -1.0539
   78MOL    O4512519   3.078   3.932   6.063  0.3071  0.6825  0.0617
   78MOL    H4612520   3.384   3.905   6.075  1.8311 -0.4450  1.2844
   78MOL    H4712521   3.470   4.045   6.120  0.7958 -0.0967 -2.0701
   78MOL    H4812522   3.311   4.154   6.004  0.0798 -1.1408 -0.6118
   78MOL    H4912523   3.228   4.146   6.157  0.4783  0.1477  0.8667
   78MOL    C5012524   3.132   4.037   5.854 -0.3926  0.2920 -0.2554
   78MOL    C5112525   3.130   3.915   5.756 -0.5489  0.7081 -0.7773
   78MOL    C5212526   3.004   3.915   5.673  0.3053  0.5158  0.9362
   78MOL    O5312527   2.915   3.992   5.684 -0.3287 -0.2640  0.0426
   78MOL    H5412528   3.183   4.120   5.805 -2.7686  2.0366  0.1430
   78MOL    H5512529   3.030   4.076   5.851 -0.5946 -0.3216 -2.0299
   78MOL    H5612530   3.131   3.817   5.803 -2.4761  1.0410  0.0237
   78MOL    H5712531   3.214   3.916   5.687  0.1779 -0.6803  0.0615
   78MOL    C5812532   2.999   3.796   5.575  0.0365  0.5187  0.2915
   78MOL    C5912533   2.911   3.801   5.453 -0.5113  0.5289 -0.3550
   78MOL    C6012534   2.979   3.782   5.318  0.1231  0.9039  0.4830
   78MOL    O6112535   3.096   3.746   5.305  0.1525  0.3333  0.3118
   78MOL    H6212536   2.971   3.707   5.631 -0.9575  0.7083  0.0998
   78MOL    H6312537   3.103   3.777   5.548  0.4254  0.6552  1.6625
   78MOL    H6412538   2.864   3.898   5.441  2.5743  2.2562  0.9182
   78MOL    H6512539   2.827   3.731   5.458 -0.2945  0.4359  3.0008
   78MOL    C6612540   2.898   3.815   5.195 -0.1917  0.3826  0.4599
   78MOL    C6712541   2.885   3.694   5.099 -0.1025 -0.0571  0.3950
   78MOL    C6812542   2.782   3.725   4.991  0.8956  0.3353 -0.0323
   78MOL    O6912543   2.663   3.747   5.019 -0.0294  0.1728 -0.6685
   78MOL    H7012544   2.959   3.890   5.144 -1.5596  1.2726  0.0989
   78MOL    H7112545   2.800   3.852   5.227  0.7551 -0.0781  4.0280
   78MOL    H7212546   2.877   3.596   5.146  0.8369 -0.1620  0.3593
   78MOL    H7312547   2.982   3.691   5.049 -0.2700  0.0756  0.0604
   78MOL    C7412548   2.817   3.716   4.841  0.5456 -0.1451  0.0186
   78MOL    C7512549   2.836   3.853   4.783 -0.2163 -0.0571  0.0754
   78MOL    C7612550   2.728   3.892   4.684 -0.3081  0.3946  0.4958
   78MOL    O7712551   2.642   3.812   4.648  0.3799  0.3586  0.0690
   78MOL    H7812552   2.759   3.653   4.773  0.2128  0.3083 -0.1195
   78MOL    H7912553   2.914   3.667   4.832  1.1202  1.1328 -0.8404
   78MOL    H8012554   2.930   3.865   4.729 -0.0619  2.0329  0.7454
   78MOL    H8112555   2.839   3.932   4.858 -1.8349  0.4402 -0.3573
   78MOL    C8212556   2.716   4.040   4.641 -0.0210 -0.2269  0.4361
   78MOL    C8312557   2.623   4.066   4.516 -0.5136  0.0016  0.0647
   78MOL    C8412558   2.549   4.196   4.542  0.7880 -0.1200  0.6093
   78MOL    O8512559   2.590   4.281   4.625 -0.5646  0.4546 -0.5205
   78MOL    H8612560   2.817   4.070   4.612 -0.4827  0.1899 -0.7830
   78MOL    H8712561   2.687   4.083   4.736  0.4696 -2.4249  1.6146
   78MOL    H8812562   2.544   3.992   4.502 -1.7368  1.5737 -1.5680
   78MOL    H8912563   2.669   4.074   4.418 -0.5845  0.3161  0.0582
   78MOL    C9012564   2.436   4.234   4.456 -0.2097 -0.4333 -0.3753
   78MOL    C9112565   2.363   4.360   4.500  0.2809 -0.0529 -0.6466
   78MOL    C9212566   2.427   4.489   4.440  0.1790  0.1640 -0.0375
   78MOL    O9312567   2.482   4.484   4.331  0.3496  0.1864 -0.0803
   78MOL    H9412568   2.367   4.150   4.450 -2.0685  0.9949  0.4115
   78MOL    H9512569   2.461   4.235   4.350  0.6699 -0.7059 -0.1704
   78MOL    H9612570   2.365   4.388   4.606 -1.0763  1.4225 -0.9878
   78MOL    H9712571   2.257   4.345   4.479  0.2207 -1.3041  0.4347
   78MOL    C9812572   2.421   4.622   4.516 -0.6847 -0.5147 -0.0034
   78MOL    C9912573   2.485   4.743   4.441  0.3149  0.5398  0.4879
   78MOL   C10012574   2.378   4.851   4.396  0.2692  0.3258 -0.0628
   78MOL   O10112575   2.272   4.867   4.459  0.1268 -0.4915  0.0459
   78MOL   H10212576   2.471   4.607   4.612 -1.8244  0.1408  0.7040
   78MOL   H10312577   2.319   4.639   4.548  0.3670  1.9154  2.2066
   78MOL   H10412578   2.549   4.709   4.359 -1.5511 -0.6211 -0.5145
   78MOL   H10512579   2.546   4.804   4.508  0.1625 -0.1965  1.2951
   78MOL   C10612580   2.422   4.936   4.286 -0.3503  0.5030 -0.9110
   78MOL   C10712581   2.512   5.049   4.334 -0.5218 -0.3518  1.3748
   78MOL   C10812582   2.626   5.083   4.236  0.1101 -0.3986 -0.1460
   78MOL   O10912583   2.599   5.147   4.135 -0.4259 -0.2297  0.1251
   78MOL   H11012584   2.344   4.977   4.222 -2.2002 -1.7841 -0.1736
   78MOL   H11112585   2.483   4.874   4.219  0.8131 -0.9356  1.4298
   78MOL   H11212586   2.556   5.017   4.428  0.8999  1.3103  1.3143
   78MOL   H11312587   2.462   5.145   4.345 -1.3746 -0.6807  0.4636
   78MOL   C11412588   2.761   5.014   4.261  0.6149 -0.7380 -0.2599
   78MOL   C11512589   2.869   5.115   4.307  0.3536  0.1868  0.6125
   78MOL   C11612590   2.869   5.128   4.460 -0.7922  0.4689  0.1000
   78MOL   O11712591   2.762   5.126   4.524 -0.0510 -0.2354 -0.1896
   78MOL   H11812592   2.789   4.963   4.169  0.0320 -1.0231 -0.2821
   78MOL   H11912593   2.755   4.924   4.322  1.4336 -0.5562  0.1002
   78MOL   H12012594   2.845   5.214   4.268  1.3352 -0.2172 -1.0708
   78MOL   H12112595   2.966   5.098   4.260 -0.2605  1.2138 -1.0569
   78MOL   C12212596   2.997   5.151   4.537 -0.0163 -0.2227  0.4707
   78MOL   C12312597   3.029   5.296   4.574  0.4179 -0.3977  0.2626
   78MOL   C12412598   3.174   5.334   4.540  0.3812 -0.2555 -0.2695
   78MOL   O12512599   3.211   5.309   4.425 -0.1370 -0.3236 -0.1328
   78MOL   H12612600   3.079   5.121   4.472  0.3487 -0.4616  1.0338
   78MOL   H12712601   2.991   5.090   4.627  0.3102 -2.1812 -0.8059
   78MOL   H12812602   2.993   5.321   4.674  0.0529  0.2217 -0.0182
   78MOL   H12912603   2.955   5.355   4.519 -0.4119 -0.7892  0.9414
   78MOL   C13012604   3.252   5.411   4.650  0.6472  0.2528  0.2903
   78MOL   C13112605   3.402   5.389   4.635  0.1305 -0.2295 -0.4242
   78MOL   C13212606   3.492   5.432   4.755 -0.3113  0.1057  0.2846
   78MOL   O13312607   3.460   5.417   4.870 -0.1439  0.1563 -0.1426
   78MOL   H13412608   3.220   5.381   4.750 -2.1260  3.1558  0.3475
   78MOL   H13512609   3.223   5.516   4.646  0.8064  0.3001  0.3922
   78MOL   H13612610   3.431   5.412   4.533 -2.3049 -0.2567 -1.1418
   78MOL   H13712611   3.409   5.281   4.632 -1.8062 -0.3898  0.4054
   78MOL   C13812612   3.640   5.462   4.724 -0.3056 -0.7626 -0.4156
   78MOL   C13912613   3.744   5.383   4.811 -0.2984  0.3984 -0.4633
   78MOL   C14012614   3.883   5.442   4.815 -0.3997 -0.1392  0.3676
   78MOL   O14112615   3.920   5.524   4.725 -0.2416 -0.5717  0.3770
   78MOL   H14212616   3.662   5.569   4.723  0.5204 -0.9286 -2.1990
   78MOL   H14312617   3.655   5.440   4.618 -0.4914  1.3025 -0.8902
   78MOL   H14412618   3.759   5.281   4.774  1.1569  1.4415 -2.8714
   78MOL   H14512619   3.702   5.369   4.911 -1.0568  1.4860 -0.6279
   78MOL   C14612620   3.973   5.382   4.923 -0.9045  0.3095 -0.3611
   78MOL   C14712621   4.095   5.320   4.860  0.2983 -0.1947  0.5194
   78MOL   C14812622   4.076   5.172   4.834  0.4439 -0.3285 -0.2868
   78MOL   O14912623   3.967   5.122   4.796  0.1103 -0.3190  0.7416
   78MOL   H15012624   3.908   5.314   4.978 -0.3005  0.5479  0.6592
   78MOL   H15112625   3.988   5.474   4.981 -1.3303 -1.2248  2.2343
   78MOL   H15212626   4.193   5.331   4.907 -0.2494 -0.0803  1.6385
   78MOL   H15312627   4.112   5.359   4.760 -1.0236 -2.3049 -0.5845
   78MOL   C15412628   4.201   5.087   4.859  0.4697  0.0496  0.8389
   78MOL   C15512629   4.190   4.941   4.832  0.4938  0.0924 -0.1634
   78MOL   C15612630   4.305   4.883   4.747 -0.0137  0.0963  0.0187
   78MOL   O15712631   4.383   4.947   4.683 -0.3325  0.0355  0.0183
   78MOL   H15812632   4.238   5.095   4.961  1.2308  2.7535  0.3816
   78MOL   H15912633   4.276   5.131   4.793  1.8709 -3.2091  0.1500
   78MOL   H16012634   4.096   4.918   4.782  0.0062  3.3535 -0.8828
   78MOL   H16112635   4.184   4.885   4.925 -1.6710 -0.5283 -0.6412
   78MOL   H16212636   4.312   4.774   4.747 -1.4622 -0.0011 -0.1775
   79MOL     C112637   2.899   6.270   1.783 -0.2209 -0.2460 -0.0424
   79MOL     C212638   3.012   6.341   1.858 -0.3000  0.5001 -0.8146
   79MOL     C312639   3.139   6.326   1.761  0.5156  0.3427 -0.5544
   79MOL     O412640   3.127   6.252   1.665 -0.1293 -0.0027 -0.2275
   79MOL     H512641   2.879   6.328   1.693 -1.2822 -0.1753  0.2369
   79MOL     H612642   2.933   6.168   1.763  1.5119  0.5003 -1.0334
   79MOL     H712643   3.022   6.293   1.955 -2.5701  1.6588  0.0325
   79MOL     H812644   2.989   6.447   1.871 -0.7551  0.5235 -1.7969
   79MOL     H912645   2.804   6.279   1.835 -0.4748  2.0787 -0.8553
   79MOL    C1012646   3.277   6.369   1.809  0.1934 -0.6292  0.0206
   79MOL    C1112647   3.383   6.352   1.700 -0.1071 -0.4093  0.4605
   79MOL    C1212648   3.528   6.354   1.736 -0.6810  0.4360 -0.0916
   79MOL    O1312649   3.569   6.408   1.843  0.2726 -0.4728  0.8770
   79MOL    H1412650   3.312   6.328   1.903  3.0895 -1.7972 -1.5238
   79MOL    H1512651   3.263   6.477   1.815 -1.0166 -0.7311 -0.7752
   79MOL    H1612652   3.366   6.440   1.637 -0.5244 -0.7953  0.0298
   79MOL    H1712653   3.369   6.259   1.645 -2.8721 -0.0285  0.3987
   79MOL    C1812654   3.617   6.257   1.656  0.0523  0.7764  0.0674
   79MOL    C1912655   3.767   6.274   1.670  0.1753  0.5578 -0.2486
   79MOL    C2012656   3.844   6.228   1.545 -0.8316  0.5061  0.8191
   79MOL    O2112657   3.809   6.253   1.429 -0.0955  0.2355  0.6589
   79MOL    H2212658   3.582   6.266   1.554  1.2449 -1.6456 -0.5848
   79MOL    H2312659   3.591   6.154   1.681 -1.2674  1.3402  1.1495
   79MOL    H2412660   3.812   6.238   1.763 -2.4771  0.0974  0.8955
   79MOL    H2512661   3.783   6.381   1.677  1.8587  0.3362 -0.5270
   79MOL    C2612662   3.962   6.140   1.572  0.2397 -0.1971  0.3259
   79MOL    C2712663   3.938   5.996   1.517 -0.7529  0.2650 -0.9500
   79MOL    C2812664   4.024   5.960   1.398  0.1663  0.0374  0.6763
   79MOL    O2912665   4.143   5.984   1.397  0.1527 -0.1758 -0.7444
   79MOL    H3012666   3.979   6.146   1.679 -0.9930  0.8444  0.4632
   79MOL    H3112667   4.056   6.177   1.532 -0.4733 -1.9950 -3.2493
   79MOL    H3212668   3.837   5.985   1.478 -0.7823 -0.5351 -0.6729
   79MOL    H3312669   3.952   5.920   1.594  0.8418  2.1656  0.6936
   79MOL    C3412670   3.960   5.867   1.293 -0.1469 -0.4501  1.0348
   79MOL    C3512671   4.030   5.873   1.151 -0.1831 -0.1640  0.1857
   79MOL    C3612672   3.960   5.943   1.038 -1.2114 -0.2193  0.5432
   79MOL    O3712673   3.866   6.018   1.065  0.0133  0.4842  0.3693
   79MOL    H3812674   3.852   5.879   1.280  0.1842  1.8043  0.2134
   79MOL    H3912675   3.979   5.763   1.321  0.2585 -0.0964  2.0797
   79MOL    H4012676   4.018   5.773   1.111 -0.8129 -0.5683  1.3874
   79MOL    H4112677   4.131   5.915   1.161 -0.2084 -0.0268 -0.1561
   79MOL    C4212678   4.010   5.912   0.897  0.7318  0.5240  0.3471
   79MOL    C4312679   3.931   5.797   0.826  0.5707  0.1318  0.2823
   79MOL    C4412680   3.807   5.833   0.744 -0.8682  0.3435  0.1554
   79MOL    O4512681   3.797   5.945   0.694 -0.0266  0.3823  0.4835
   79MOL    H4612682   4.116   5.888   0.906 -0.1701 -3.7467  0.9321
   79MOL    H4712683   3.995   5.999   0.834 -1.1972  0.7173  1.0675
   79MOL    H4812684   3.891   5.717   0.888 -1.2031  0.5606 -0.2643
   79MOL    H4912685   3.996   5.754   0.749 -1.5999  0.4503 -1.7969
   79MOL    C5012686   3.720   5.722   0.686 -0.8951  0.4490 -0.0536
   79MOL    C5112687   3.630   5.768   0.568 -0.0996 -0.4327  0.5072
   79MOL    C5212688   3.686   5.726   0.431  0.7166 -0.3250 -0.0493
   79MOL    O5312689   3.795   5.666   0.421 -0.5350  0.1332 -0.1996
   79MOL    H5412690   3.662   5.688   0.772 -0.0632 -0.4064  0.1749
   79MOL    H5512691   3.766   5.626   0.664  0.1618  0.4877  1.9187
   79MOL    H5612692   3.615   5.876   0.570 -1.3665 -0.5953  0.2267
   79MOL    H5712693   3.533   5.718   0.568 -1.0272  1.2997 -0.9340
   79MOL    C5812694   3.609   5.776   0.306 -0.1463  0.6085  0.6260
   79MOL    C5912695   3.712   5.848   0.221 -0.2993 -0.1539 -0.8661
   79MOL    C6012696   3.639   5.956   0.143  0.6811  0.3330 -0.6388
   79MOL    O6112697   3.613   6.064   0.191 -0.6512 -0.2785 -0.3351
   79MOL    H6212698   3.537   5.847   0.347  1.6318  2.6345  0.3419
   79MOL    H6312699   3.558   5.698   0.250  1.2228  0.1605 -0.0354
   79MOL    H6412700   3.751   5.774   0.152 -1.2450  1.2223 -2.9021
   79MOL    H6512701   3.796   5.884   0.281 -1.5985  1.8505 -0.1882
   79MOL    C6612702   3.613   5.924   7.856  0.6580  0.6965  0.1180
   79MOL    C6712703   3.468   5.969   7.801 -0.2476  0.1483  0.2217
   79MOL    C6812704   3.411   5.871   7.705  0.5575  0.1908 -0.0531
   79MOL    O6912705   3.436   5.751   7.715 -1.0504  0.4867  0.0418
   79MOL    H7012706   3.616   5.820   7.825  0.1858  0.7556 -0.1365
   79MOL    H7112707   3.695   5.974   7.805 -0.2762  2.2231  0.0710
   79MOL    H7212708   3.473   6.070   7.760  1.6427  0.2736  0.7188
   79MOL    H7312709   3.395   5.968   0.023 -1.2771  3.8111 -0.5360
   79MOL    C7412710   3.322   5.904   7.591  0.9652 -1.0415  0.1304
   79MOL    C7512711   3.395   5.913   7.461  0.0380  0.0873 -0.7552
   79MOL    C7612712   3.304   5.964   7.347 -0.3394 -0.2281 -0.1131
   79MOL    O7712713   3.347   6.061   7.277  0.1512  0.5178 -0.6134
   79MOL    H7812714   3.270   5.999   7.602  2.9708  0.0289  0.6652
   79MOL    H7912715   3.234   5.840   7.586  1.7934 -2.1583 -0.7157
   79MOL    H8012716   3.430   5.814   7.433 -1.1489 -0.2271 -1.1417
   79MOL    H8112717   3.482   5.979   7.468 -0.7320  1.0526 -0.0218
   79MOL    C8212718   3.169   5.903   7.319  1.4258  0.4544 -1.2459
   79MOL    C8312719   3.099   5.958   7.196 -0.1563 -0.3734  0.9038
   79MOL    C8412720   3.006   6.079   7.222  0.3909  0.8120 -0.4697
   79MOL    O8512721   2.952   6.093   7.331 -0.4872 -0.0348  0.3651
   79MOL    H8612722   3.097   5.910   7.400 -0.3369  2.0159 -2.8904
   79MOL    H8712723   3.187   5.796   7.315 -1.4656 -0.2005  1.6020
   79MOL    H8812724   3.038   5.876   7.156  0.7028 -0.4508 -0.2553
   79MOL    H8912725   3.173   5.993   7.124 -0.6104 -0.2088  0.5170
   79MOL    C9012726   3.014   6.203   7.131 -0.6861 -0.4911  0.0281
   79MOL    C9112727   3.066   6.332   7.193 -0.8887  0.4757  0.6284
   79MOL    C9212728   3.208   6.372   7.158  0.4521 -0.6961 -0.1036
   79MOL    O9312729   3.253   6.340   7.050  0.5237 -0.1648  0.9476
   79MOL    H9412730   2.913   6.225   7.097 -1.9629 -1.8330  2.7477
   79MOL    H9512731   3.073   6.170   7.046  0.1278  3.4421 -1.0195
   79MOL    H9612732   3.051   6.332   7.301  2.4551 -1.8190  1.1508
   79MOL    H9712733   3.005   6.415   7.157 -0.8625  0.6690  1.0300
   79MOL    C9812734   3.272   6.474   7.254  0.4465  0.0060  0.1737
   79MOL    C9912735   3.286   6.422   7.398  0.5893 -0.0651 -0.0118
   79MOL   C10012736   3.425   6.447   7.451 -0.9301  0.5167 -0.3066
   79MOL   O10112737   3.441   6.508   7.553  0.2691 -0.5791  0.0049
   79MOL   H10212738   3.210   6.563   7.245  0.2337  0.0278  1.7693
   79MOL   H10312739   3.368   6.498   7.209  0.4701  0.0750  0.2609
   79MOL   H10412740   3.280   6.313   7.389  1.7100 -0.2082  0.8896
   79MOL   H10512741   3.204   6.457   7.461  1.7760  0.0801  1.4876
   79MOL   C10612742   3.540   6.382   7.367 -0.6169  0.1541 -0.0373
   79MOL   C10712743   3.674   6.393   7.434 -0.1906 -0.0792  1.4116
   79MOL   C10812744   3.693   6.287   7.543  0.2162  0.0007 -0.0939
   79MOL   O10912745   3.594   6.237   7.606 -0.1269 -0.2902 -0.6002
   79MOL   H11012746   3.546   6.426   7.268 -0.2853  0.2196  0.0123
   79MOL   H11112747   3.518   6.276   7.354 -0.3376 -0.1379  1.6845
   79MOL   H11212748   3.704   6.488   7.476 -0.1091 -0.0299  1.2445
   79MOL   H11312749   3.742   6.367   7.352 -1.3443  3.4996 -0.7989
   79MOL   C11412750   3.839   6.251   7.560 -0.1426  0.0185  0.2374
   79MOL   C11512751   3.882   6.234   7.712  0.0019 -0.2532 -0.1678
   79MOL   C11612752   3.963   6.107   7.732 -0.6626 -0.4287 -0.5558
   79MOL   O11712753   4.008   6.045   7.636 -0.0780  0.2008  0.4285
   79MOL   H11812754   3.899   6.332   7.518  0.2982  0.0579  0.9457
   79MOL   H11912755   3.864   6.157   7.511 -2.3283 -0.0577 -0.8041
   79MOL   H12012756   3.794   6.225   7.775  1.5647  0.4935  2.2046
   79MOL   H12112757   3.946   6.316   7.746 -1.0370  0.4320  0.1386
   79MOL   C12212758   4.005   6.069   0.016 -0.1718 -0.5598 -0.0836
   79MOL   C12312759   4.145   6.008   0.050  0.0988 -0.4926 -0.6132
   79MOL   C12412760   4.144   5.860   0.094  0.3480 -0.0752 -0.2799
   79MOL   O12512761   4.042   5.793   0.113 -0.1862  0.0295 -0.4597
   79MOL   H12612762   3.939   5.984   0.031 -0.9748 -0.0180 -0.4590
   79MOL   H12712763   3.975   6.147   0.086  1.0760 -0.9142  0.8526
   79MOL   H12812764   4.185   6.054   0.140  0.5630 -1.2064 -0.4582
   79MOL   H12912765   4.219   6.014   7.830  1.2838 -1.9921  0.3638
   79MOL   C13012766   4.283   5.796   0.107  0.8373  0.0142  0.0806
   79MOL   C13112767   4.274   5.652   0.049 -0.0831  0.1989 -0.1403
   79MOL   C13212768   4.321   5.662   7.766 -0.5845 -0.2319 -0.6695
   79MOL   O13312769   4.433   5.706   7.741 -0.2439  0.1538  0.4191
   79MOL   H13412770   4.312   5.799   0.212  2.2837 -1.2646 -0.2705
   79MOL   H13512771   4.355   5.857   0.053  0.7494  0.1180  0.0790
   79MOL   H13612772   4.177   5.605   0.062 -0.8523  2.1640  1.5710
   79MOL   H13712773   4.353   5.596   0.100  0.3868  0.7696 -0.2395
   79MOL   C13812774   4.219   5.608   7.664 -0.0848 -0.3385  0.1612
   79MOL   C13912775   4.138   5.721   7.596 -0.5051 -0.4660 -0.3089
   79MOL   C14012776   4.179   5.756   7.452  0.9585  0.0860  0.5696
   79MOL   O14112777   4.301   5.774   7.428  0.5887  0.6751  0.5239
   79MOL   H14212778   4.157   5.532   7.711  2.6327 -3.8419 -1.7280
   79MOL   H14312779   4.281   5.566   7.584 -0.2508  1.5946 -1.0234
   79MOL   H14412780   4.146   5.812   7.655  1.3861  0.6267 -2.2226
   79MOL   H14512781   4.038   5.681   7.580 -0.9547  0.4798  0.0707
   79MOL   C14612782   4.081   5.746   7.331 -0.8440  0.3244  0.6416
   79MOL   C14712783   4.051   5.891   7.290  0.1377  0.1169  0.2579
   79MOL   C14812784   3.907   5.929   7.318 -0.0177 -0.2815 -0.0289
   79MOL   O14912785   3.847   5.896   7.423 -0.5525  0.4415  1.1948
   79MOL   H15012786   3.988   5.696   7.359 -0.0681 -1.0905  0.7341
   79MOL   H15112787   4.120   5.698   7.242 -0.8895  1.8682 -0.2377
   79MOL   H15212788   4.067   5.901   7.183 -1.2883  0.7310  0.0862
   79MOL   H15312789   4.114   5.966   7.337  1.3595 -1.9122  1.9600
   79MOL   C15412790   3.844   6.006   7.203 -0.4362 -0.3652 -1.0247
   79MOL   C15512791   3.693   6.033   7.232  0.1677  0.1824  0.0899
   79MOL   C15612792   3.645   6.138   7.139 -1.1239 -0.8547  0.1143
   79MOL   O15712793   3.723   6.217   7.086 -0.2937  0.2026  0.2907
   79MOL   H15812794   3.855   5.955   7.108 -0.3939  1.7488 -2.1889
   79MOL   H15912795   3.906   6.096   7.197  1.0911 -1.3137  0.1330
   79MOL   H16012796   3.672   6.060   7.336 -1.6298  0.7247 -0.3999
   79MOL   H16112797   3.633   5.945   7.209 -0.8230  0.9181 -0.1576
   79MOL   H16212798   3.538   6.146   7.120 -1.2702 -0.7132  0.9756
   80MOL     C112799   1.954   4.332   0.635 -1.6644 -0.3859  0.6256
   80MOL     C212800   1.838   4.337   0.540 -0.4867  0.1732  0.4943
   80MOL     C312801   1.719   4.255   0.591  0.4288  0.2887  0.2566
   80MOL     O412802   1.706   4.229   0.711  0.7134  0.3363 -0.3663
   80MOL     H512803   1.936   4.374   0.735  0.1242  1.0955  0.3430
   80MOL     H612804   1.986   4.228   0.646  2.5479  0.7705  0.0970
   80MOL     H712805   1.854   4.304   0.437 -1.7561 -1.1946  0.7298
   80MOL     H812806   1.809   4.442   0.528 -1.6423 -0.1535  0.4223
   80MOL     H912807   2.036   4.385   0.588 -2.8270 -0.1577 -1.1995
   80MOL    C1012808   1.626   4.203   0.489  0.1466 -0.2625  0.1732
   80MOL    C1112809   1.490   4.165   0.548  0.0108  0.2305  0.6547
   80MOL    C1212810   1.411   4.078   0.439  0.6121  0.2371  0.6959
   80MOL    O1312811   1.464   4.021   0.344 -0.1474  0.0290  0.5355
   80MOL    H1412812   1.667   4.122   0.429  0.0783  0.6326 -1.0980
   80MOL    H1512813   1.623   4.273   0.406 -1.7084 -0.2902  0.1964
   80MOL    H1612814   1.431   4.248   0.585  0.8973  1.2104 -0.0903
   80MOL    H1712815   1.506   4.093   0.628  2.3575 -0.9149 -0.7867
   80MOL    C1812816   1.261   4.070   0.463  0.4376  0.4164  0.1129
   80MOL    C1912817   1.180   4.120   0.342 -0.4773  0.2410 -0.1713
   80MOL    C2012818   1.119   4.010   0.257 -0.0670 -0.0143 -0.3963
   80MOL    O2112819   1.000   3.976   0.272  0.3413  0.5024 -0.2208
   80MOL    H2212820   1.234   4.131   0.550 -2.6556  0.7150 -0.9900
   80MOL    H2312821   1.225   3.972   0.492 -0.0002  0.7539  0.7196
   80MOL    H2412822   1.234   4.185   0.273 -2.2550  2.5091  0.5196
   80MOL    H2512823   1.107   4.187   0.388  0.3588 -0.4169  2.1663
   80MOL    C2612824   1.210   3.937   0.162 -0.3860 -0.2451  0.4854
   80MOL    C2712825   1.143   3.848   0.053  0.2195 -0.3293 -0.6784
   80MOL    C2812826   1.165   3.902   7.776 -1.2916  0.0787 -1.0157
   80MOL    O2912827   1.265   3.962   7.741 -0.3780 -0.2947 -0.6157
   80MOL    H3012828   1.270   3.885   0.236 -0.7719  0.1471  1.0816
   80MOL    H3112829   1.279   4.008   0.117 -2.9908  0.5220 -2.4685
   80MOL    H3212830   1.039   3.833   0.081  0.5403 -1.6482 -0.1517
   80MOL    H3312831   1.197   3.753   0.053  1.3628  0.2963 -1.7707
   80MOL    C3412832   1.050   3.865   7.681 -0.1318 -0.1531 -0.0642
   80MOL    C3512833   1.104   3.880   7.532 -0.4245  0.7029 -0.0497
   80MOL    C3612834   1.053   3.769   7.445 -0.3695  0.4620 -0.2145
   80MOL    O3712835   1.004   3.670   7.490  0.0669 -0.4099  0.2514
   80MOL    H3812836   0.963   3.927   7.702  0.3966 -0.3080  2.6706
   80MOL    H3912837   1.010   3.764   7.693  1.2439 -0.9818 -2.0889
   80MOL    H4012838   1.212   3.868   7.536 -0.6671 -1.6948  0.5105
   80MOL    H4112839   1.081   3.978   7.490  0.6218  0.1378 -1.9909
   80MOL    C4212840   1.065   3.791   7.300  0.5466 -0.2966  0.4938
   80MOL    C4312841   1.023   3.676   7.206  0.4783 -0.5845 -0.3797
   80MOL    C4412842   1.129   3.634   7.107 -0.6473  0.7080  0.4510
   80MOL    O4512843   1.235   3.701   7.084  0.3530  0.0066  0.2341
   80MOL    H4612844   1.171   3.816   7.295  0.3894  0.7312  1.8819
   80MOL    H4712845   1.013   3.882   7.269 -0.8820 -1.3435 -0.1936
   80MOL    H4812846   0.939   3.709   7.144  1.5661  2.3620 -0.3892
   80MOL    H4912847   0.990   3.586   7.258  0.8089  0.6029  1.9271
   80MOL    C5012848   1.099   3.511   7.028  0.4268 -0.2860 -0.2901
   80MOL    C5112849   1.177   3.497   6.896  0.0811  0.4792 -0.1336
   80MOL    C5212850   1.302   3.406   6.916  0.0040 -0.6924  0.2930
   80MOL    O5312851   1.320   3.336   7.016  0.1893  0.0305 -0.3457
   80MOL    H5412852   0.996   3.523   6.996  0.8118  0.6416 -1.2216
   80MOL    H5512853   1.100   3.426   7.096 -1.8161  2.2936  3.1647
   80MOL    H5612854   1.207   3.585   6.838  0.9621 -0.1053 -0.5747
   80MOL    H5712855   1.125   3.444   6.817  2.1686  0.6224 -1.6504
   80MOL    C5812856   1.414   3.419   6.818 -0.1121 -0.3391  0.0641
   80MOL    C5912857   1.491   3.289   6.802  0.3075  0.8764 -1.0527
   80MOL    C6012858   1.641   3.300   6.764  0.1059 -0.4760 -0.1736
   80MOL    O6112859   1.715   3.390   6.818 -0.0475  0.2732  0.1433
   80MOL    H6212860   1.484   3.496   6.849  0.6156 -0.6725 -0.7132
   80MOL    H6312861   1.374   3.442   6.719 -0.3078  2.7689  0.8250
   80MOL    H6412862   1.446   3.218   6.732  1.1460 -2.4758  1.6594
   80MOL    H6512863   1.485   3.236   6.897 -0.0252  2.1928 -0.3314
   80MOL    C6612864   1.695   3.205   6.667 -0.2921 -0.4065 -0.4776
   80MOL    C6712865   1.813   3.257   6.578 -0.1297  0.3627  0.2570
   80MOL    C6812866   1.793   3.259   6.432 -0.2261 -0.4192  0.2326
   80MOL    O6912867   1.697   3.206   6.376 -0.0888 -0.1494  0.3876
   80MOL    H7012868   1.617   3.171   6.599 -0.7993 -0.4333  0.1186
   80MOL    H7112869   1.721   3.117   6.726  1.4227  1.4116  1.5811
   80MOL    H7212870   1.908   3.211   6.606  1.0858  3.1218  0.8586
   80MOL    H7312871   1.829   3.362   6.604 -1.9375  0.7217 -0.0472
   80MOL    C7412872   1.892   3.341   6.351 -0.1259 -0.5429  0.1486
   80MOL    C7512873   1.979   3.244   6.258 -0.0653  0.0200 -1.1813
   80MOL    C7612874   1.999   3.295   6.119 -0.5024 -0.1121 -0.5175
   80MOL    O7712875   1.988   3.416   6.088  0.4012  0.1770  0.1532
   80MOL    H7812876   1.960   3.402   6.411 -0.2903 -0.9781  0.7814
   80MOL    H7912877   1.833   3.409   6.289  0.8793  1.7981  1.6736
   80MOL    H8012878   1.942   3.143   6.244  0.7036 -0.3359 -0.6319
   80MOL    H8112879   2.080   3.241   6.299  0.0455  0.2940 -1.4342
   80MOL    C8212880   2.027   3.185   6.013 -0.3120 -0.2726  0.0274
   80MOL    C8312881   2.174   3.177   5.984  0.2329 -0.9022 -0.2431
   80MOL    C8412882   2.249   3.070   6.065  0.3169  0.9741  1.0348
   80MOL    O8512883   2.203   2.998   6.154  0.2390 -0.0674 -0.2840
   80MOL    H8612884   1.963   3.210   5.928 -1.4287  0.1936  0.9913
   80MOL    H8712885   1.991   3.089   6.051 -1.7083  0.1896 -0.1132
   80MOL    H8812886   2.229   3.270   5.999  1.7346 -1.7518 -0.3916
   80MOL    H8912887   2.185   3.153   5.878 -0.4719  1.1144 -0.7876
   80MOL    C9012888   2.394   3.050   6.031  0.1060 -0.1783  0.3174
   80MOL    C9112889   2.495   3.063   6.151 -0.4646  0.2410 -0.9045
   80MOL    C9212890   2.554   2.929   6.204 -0.1611 -0.6502  0.8452
   80MOL    O9312891   2.507   2.819   6.172 -0.4492 -0.1446  0.2851
   80MOL    H9412892   2.414   3.119   5.949  1.7729 -0.5328  0.3874
   80MOL    H9512893   2.405   2.952   5.983  2.7549 -0.4916  1.4423
   80MOL    H9612894   2.439   3.092   6.240  0.0901 -1.4407  0.0342
   80MOL    H9712895   2.587   3.116   6.127  1.7199 -2.8405  0.1665
   80MOL    C9812896   2.648   2.947   6.325 -0.2474 -0.3632  0.3890
   80MOL    C9912897   2.592   2.866   6.435  0.2383  0.3602 -0.4809
   80MOL   C10012898   2.619   2.929   6.568  0.2593  0.2385  0.3144
   80MOL   O10112899   2.561   3.032   6.592  0.2074  0.3647  0.4474
   80MOL   H10212900   2.647   3.052   6.356 -0.0548 -1.2856  3.7414
   80MOL   H10312901   2.749   2.906   6.322  0.7927  2.1398  0.2359
   80MOL   H10412902   2.632   2.766   6.422  0.2279  0.2803  0.0952
   80MOL   H10512903   2.483   2.865   6.434  0.2438 -1.9209 -0.3783
   80MOL   C10612904   2.698   2.849   6.674  0.1974 -0.0867  0.0227
   80MOL   C10712905   2.842   2.894   6.687  0.2265  0.1277  0.0212
   80MOL   C10812906   2.880   2.926   6.830 -0.4998 -0.5883 -0.0629
   80MOL   O10912907   2.922   2.842   6.908  0.6217  0.0738 -0.3941
   80MOL   H11012908   2.690   2.745   6.642 -0.3174  0.2445 -0.9348
   80MOL   H11112909   2.644   2.852   6.768  0.0381  1.8985 -0.1132
   80MOL   H11212910   2.860   2.982   6.626 -3.4786  1.4073  0.6815
   80MOL   H11312911   2.896   2.808   6.645  0.4443  1.1959 -1.9621
   80MOL   C11412912   2.884   3.073   6.873  0.4232  1.0365  0.3308
   80MOL   C11512913   2.744   3.138   6.870  0.3020 -0.3418 -0.8616
   80MOL   C11612914   2.702   3.208   6.997 -0.7962  0.2671 -0.1648
   80MOL   O11712915   2.781   3.225   7.088 -0.5408  0.2956  0.6153
   80MOL   H11812916   2.945   3.126   6.799  1.3491  1.5452  1.4587
   80MOL   H11912917   2.937   3.091   6.966  0.9687  1.4939 -0.0612
   80MOL   H12012918   2.678   3.056   6.843 -0.6497  0.2610 -0.3970
   80MOL   H12112919   2.730   3.212   6.791 -1.7581  1.4440  1.1118
   80MOL   C12212920   2.567   3.265   7.008 -0.1602 -0.4777  0.2183
   80MOL   C12312921   2.496   3.214   7.132  0.0829 -0.2100  0.5925
   80MOL   C12412922   2.503   3.290   7.261  0.6106 -0.4472  0.5384
   80MOL   O12512923   2.515   3.408   7.257  0.3250 -0.3633  0.1504
   80MOL   H12612924   2.511   3.248   6.916 -2.3344 -0.8926  1.5627
   80MOL   H12712925   2.582   3.373   7.007  0.9130 -0.6280 -0.1719
   80MOL   H12812926   2.514   3.108   7.151 -1.5546 -0.9485 -1.7371
   80MOL   H12912927   2.389   3.213   7.114  0.0804  0.0898  0.5968
   80MOL   C13012928   2.502   3.211   7.384 -0.8218 -0.0920 -0.5295
   80MOL   C13112929   2.527   3.288   7.513  0.2911  0.3190  0.0427
   80MOL   C13212930   2.675   3.325   7.540  0.6861 -0.0508 -0.0441
   80MOL   O13312931   2.768   3.261   7.494  0.5296  0.0357  0.1667
   80MOL   H13412932   2.586   3.141   7.385 -0.5512  0.2380  0.0713
   80MOL   H13512933   2.410   3.153   7.391  0.2350 -1.9673 -1.6003
   80MOL   H13612934   2.494   3.233   7.600 -1.0078 -0.4083 -0.8867
   80MOL   H13712935   2.469   3.379   7.495  0.3347 -0.0479 -2.1553
   80MOL   C13812936   2.704   3.447   7.624  0.7107 -0.0607 -0.0998
   80MOL   C13912937   2.738   3.577   7.548  0.0423 -0.1146 -0.2323
   80MOL   C14012938   2.614   3.666   7.537 -0.0146  0.2038 -0.3123
   80MOL   O14112939   2.499   3.630   7.562  0.4874  0.2759 -0.5504
   80MOL   H14212940   2.793   3.414   7.678  0.3985 -0.2821  0.2766
   80MOL   H14312941   2.628   3.455   7.701 -0.5560 -0.2352 -1.3119
   80MOL   H14412942   2.774   3.560   7.447 -0.1871 -3.5371  0.2089
   80MOL   H14512943   2.819   3.618   7.609  0.2047 -2.5233  1.2380
   80MOL   C14612944   2.640   3.801   7.473  0.0037 -0.6528 -0.3347
   80MOL   C14712945   2.614   3.806   7.321  0.2670  0.5035 -0.3891
   80MOL   C14812946   2.732   3.778   7.232 -1.0597 -0.4053 -0.4273
   80MOL   O14912947   2.844   3.803   7.272  0.0942  0.1520 -0.3050
   80MOL   H15012948   2.743   3.833   7.491 -0.5262  2.2369 -2.0990
   80MOL   H15112949   2.579   3.874   7.525  0.1643 -1.5067  1.0596
   80MOL   H15212950   2.580   3.905   7.291 -0.3945 -0.2105 -2.0901
   80MOL   H15312951   2.535   3.736   7.293  3.4907 -3.0397 -1.0795
   80MOL   C15412952   2.710   3.717   7.090  0.9214 -0.1935  0.1136
   80MOL   C15512953   2.837   3.655   7.029 -0.0883  0.6130 -0.1763
   80MOL   C15612954   2.826   3.621   6.879  0.0298 -0.0815  0.3666
   80MOL   O15712955   2.877   3.694   6.799  0.0294 -0.0436 -0.2087
   80MOL   H15812956   2.673   3.800   7.030 -1.0205 -0.8941  0.3043
   80MOL   H15912957   2.621   3.656   7.076  1.2787 -0.2485 -1.9541
   80MOL   H16012958   2.862   3.557   7.070 -0.6312 -0.4084 -2.1899
   80MOL   H16112959   2.927   3.708   7.058  1.1799 -1.8393  0.4522
   80MOL   H16212960   2.776   3.526   6.862  0.6120 -0.5482  1.2409
   81MOL     C112961   3.082   5.398   2.810  0.4681  0.0144  0.4243
   81MOL     C212962   3.039   5.369   2.667  0.3114  0.1191 -0.3806
   81MOL     C312963   2.946   5.245   2.663 -0.2878  0.3414 -0.1001
   81MOL     O412964   2.907   5.194   2.762 -0.2147 -0.3049 -0.4748
   81MOL     H512965   3.136   5.309   2.845 -0.0496 -1.0632 -1.4659
   81MOL     H612966   3.145   5.487   2.814 -2.4299  2.2087 -0.9058
   81MOL     H712967   3.126   5.355   2.602  0.9896 -3.7224  1.2014
   81MOL     H812968   2.987   5.453   2.622  0.2257  0.8966  1.1468
   81MOL     H912969   3.001   5.431   2.874  1.2437 -0.8763  1.8912
   81MOL    C1012970   2.907   5.183   2.522 -0.4195 -0.1582  0.4355
   81MOL    C1112971   2.809   5.065   2.525  0.2779 -0.3212 -0.4938
   81MOL    C1212972   2.882   4.940   2.572  0.2742 -0.5005  0.0046
   81MOL    O1312973   2.973   4.892   2.511  0.3330 -0.0513  0.0255
   81MOL    H1412974   2.996   5.156   2.465  0.9171  1.2260  1.8031
   81MOL    H1512975   2.870   5.262   2.456  1.8008 -1.1038 -2.0302
   81MOL    H1612976   2.775   5.039   2.425 -0.1781 -1.8134  0.0373
   81MOL    H1712977   2.728   5.087   2.595  1.7944  1.2147  0.8416
   81MOL    C1812978   2.817   4.851   2.684  0.5168 -0.6638  0.1897
   81MOL    C1912979   2.882   4.719   2.722  0.5812 -0.3602 -0.5561
   81MOL    C2012980   2.812   4.593   2.660  0.4819  0.6017  0.2959
   81MOL    O2112981   2.751   4.598   2.550  0.2764 -0.4193 -0.5390
   81MOL    H2212982   2.712   4.847   2.655  0.7798  1.3268 -1.1180
   81MOL    H2312983   2.833   4.906   2.777  1.2530 -1.6610  0.6680
   81MOL    H2412984   2.865   4.708   2.829  0.6734 -1.1898 -0.6216
   81MOL    H2512985   2.990   4.711   2.709  0.6539  0.6913 -0.6170
   81MOL    C2612986   2.834   4.454   2.719 -0.2763  0.6553  0.1938
   81MOL    C2712987   2.970   4.390   2.713 -0.0016 -0.5738 -0.2796
   81MOL    C2812988   3.041   4.372   2.850  0.7385 -0.6028  0.5166
   81MOL    O2912989   2.969   4.363   2.950 -0.0462 -0.0844  0.2391
   81MOL    H3012990   2.762   4.392   2.666 -0.8392  0.2418  1.4216
   81MOL    H3112991   2.796   4.463   2.820 -2.9839 -1.0456 -0.6392
   81MOL    H3212992   3.026   4.457   2.647 -2.1338  1.8155  0.2832
   81MOL    H3312993   2.970   4.295   2.660 -0.0935  0.8325 -2.9008
   81MOL    C3412994   3.191   4.368   2.859  0.5460  0.5646 -0.6297
   81MOL    C3512995   3.230   4.219   2.866  0.0853  0.1958  0.2313
   81MOL    C3612996   3.347   4.186   2.949  0.5001  0.1308 -0.0731
   81MOL    O3712997   3.453   4.155   2.893 -0.6770 -0.4489 -0.1774
   81MOL    H3812998   3.218   4.425   2.947 -0.2925  0.4968 -0.3238
   81MOL    H3912999   3.239   4.424   2.778  0.6576 -0.3061 -1.1772
   81MOL    H4013000   3.246   4.186   2.763  0.5882 -0.1610  0.4203
   81MOL    H4113001   3.152   4.154   2.905  1.2578  0.2158  2.6820
   81MOL    C4213002   3.326   4.201   3.098  0.1748 -0.1475 -0.1926
   81MOL    C4313003   3.453   4.148   3.174  0.0821  0.1022  0.1947
   81MOL    C4413004   3.523   4.262   3.237 -0.3168  0.6443 -0.4657
   81MOL    O4513005   3.462   4.360   3.285  0.0488 -0.2476  1.0124
   81MOL    H4613006   3.248   4.129   3.124 -1.1923  1.5863  0.5660
   81MOL    H4713007   3.288   4.302   3.114  0.3291 -0.1028 -0.1071
   81MOL    H4813008   3.515   4.072   3.126 -1.9019 -1.4379  0.0063
   81MOL    H4913009   3.415   4.083   3.252  0.4824 -2.1241 -1.4014
   81MOL    C5013010   3.671   4.245   3.252 -0.4331 -0.3215  0.1236
   81MOL    C5113011   3.740   4.379   3.290  0.5794 -0.4958  0.5572
   81MOL    C5213012   3.892   4.361   3.322  0.0096 -0.1209 -0.3935
   81MOL    O5313013   3.952   4.259   3.328  0.8283  0.0150  0.3185
   81MOL    H5413014   3.709   4.204   3.158  0.6264 -2.8675  1.6043
   81MOL    H5513015   3.696   4.176   3.333 -1.8286  0.9366  1.6667
   81MOL    H5613016   3.707   4.423   3.384 -0.2575 -0.5148  0.2778
   81MOL    H5713017   3.730   4.460   3.218  0.3910  1.0611  2.2995
   81MOL    C5813018   3.971   4.488   3.338  0.2862 -0.3455  0.0668
   81MOL    C5913019   4.124   4.479   3.321  0.4475 -0.3445  0.2846
   81MOL    C6013020   4.189   4.472   3.464  0.2372 -0.1394  0.2385
   81MOL    O6113021   4.231   4.572   3.519  0.4542  0.4956  0.1844
   81MOL    H6213022   3.951   4.530   3.437 -0.6852  0.3118 -0.3996
   81MOL    H6313023   3.929   4.558   3.266 -1.9315 -2.5951 -0.8761
   81MOL    H6413024   4.174   4.555   3.261 -0.6044  0.9391  1.0245
   81MOL    H6513025   4.144   4.392   3.257 -0.7954 -0.6716  0.3197
   81MOL    C6613026   4.195   4.333   3.519 -0.5688  0.0850 -0.3840
   81MOL    C6713027   4.287   4.305   3.638  0.0998 -0.0282 -0.0580
   81MOL    C6813028   4.217   4.263   3.766 -0.4550  0.5268  0.0359
   81MOL    O6913029   4.104   4.221   3.764 -0.1216 -0.8332 -0.9445
   81MOL    H7013030   4.243   4.280   3.438  2.9336  0.7705  1.1544
   81MOL    H7113031   4.098   4.283   3.531  0.1729 -1.3065 -0.0977
   81MOL    H7213032   4.350   4.388   3.670  1.4767 -0.8698 -0.5536
   81MOL    H7313033   4.346   4.220   3.606  1.4334  0.5810  0.7462
   81MOL    C7413034   4.305   4.241   3.887 -0.2563  0.4051 -0.7044
   81MOL    C7513035   4.235   4.281   4.015 -0.2090  0.0855 -0.3592
   81MOL    C7613036   4.274   4.422   4.066  0.5325  0.4951 -0.0056
   81MOL    O7713037   4.306   4.510   3.987 -0.3685 -0.2810 -0.2676
   81MOL    H7813038   4.398   4.297   3.880  0.4036 -0.6725 -0.6167
   81MOL    H7913039   4.330   4.135   3.882  0.2795  0.4759  0.3778
   81MOL    H8013040   4.251   4.212   4.098  0.5303  0.6685 -0.0216
   81MOL    H8113041   4.127   4.293   4.010 -0.4897 -2.2880 -0.6126
   81MOL    C8213042   4.247   4.452   4.212 -0.3010 -0.1053 -0.4550
   81MOL    C8313043   4.164   4.581   4.226  0.2334 -0.1400  0.7784
   81MOL    C8413044   4.237   4.695   4.294  0.5405  0.6086 -0.2226
   81MOL    O8513045   4.329   4.677   4.373  0.1445 -0.0688 -0.2259
   81MOL    H8613046   4.345   4.463   4.258 -2.2337  0.3742  3.8233
   81MOL    H8713047   4.211   4.358   4.252  3.0164 -1.3831 -0.3264
   81MOL    H8813048   4.068   4.567   4.277 -0.0457  0.4200  0.4114
   81MOL    H8913049   4.134   4.611   4.126  3.2453 -2.8012 -0.9808
   81MOL    C9013050   4.170   4.829   4.267 -0.4521  0.3999 -0.5266
   81MOL    C9113051   4.233   4.957   4.331 -0.3113 -0.3866 -0.6839
   81MOL    C9213052   4.143   5.023   4.443  0.2580 -0.0696  0.0804
   81MOL    O9313053   4.069   4.957   4.515 -0.6682  0.0559 -0.5874
   81MOL    H9413054   4.065   4.819   4.296 -0.4389 -0.6550 -0.8483
   81MOL    H9513055   4.166   4.836   4.158 -0.3348  0.7668 -0.5076
   81MOL    H9613056   4.239   5.025   4.247  3.0220  0.9855  0.5900
   81MOL    H9713057   4.335   4.942   4.367  0.3755  0.5704 -2.2058
   81MOL    C9813058   4.168   5.168   4.474  0.2439 -0.8334 -0.2198
   81MOL    C9913059   4.030   5.243   4.492 -0.4219  0.0360 -0.5037
   81MOL   C10013060   3.976   5.289   4.357 -0.3855 -0.8491  0.2473
   81MOL   O10113061   4.027   5.252   4.253  0.8431 -0.1219  0.5296
   81MOL   H10213062   4.229   5.207   4.393 -1.0200  1.1179 -0.2663
   81MOL   H10313063   4.226   5.191   4.563 -0.0678 -3.0709  0.6145
   81MOL   H10413064   4.043   5.339   4.543 -1.1264  0.0466 -0.3414
   81MOL   H10513065   3.951   5.182   4.535  0.5086 -0.4228  0.5804
   81MOL   C10613066   3.859   5.392   4.360  0.8141 -0.4267  0.0548
   81MOL   C10713067   3.806   5.414   4.221  0.0881  0.3240  0.3379
   81MOL   C10813068   3.656   5.443   4.223 -0.2276 -0.2709  0.3108
   81MOL   O10913069   3.600   5.495   4.313 -0.0592  0.6579  0.2084
   81MOL   H11013070   3.924   5.476   4.388 -0.6163  0.5762  0.3983
   81MOL   H11113071   3.788   5.361   4.437  1.2028  1.3203  1.1422
   81MOL   H11213072   3.818   5.324   4.161 -1.0071  0.9714 -0.8687
   81MOL   H11313073   3.861   5.495   4.173  2.4936 -2.5907 -1.9830
   81MOL   C11413074   3.576   5.389   4.106 -0.1229  0.5441 -0.0333
   81MOL   C11513075   3.437   5.333   4.142  0.3343 -0.3147 -0.1547
   81MOL   C11613076   3.402   5.215   4.047  0.4066 -0.1990  0.0449
   81MOL   O11713077   3.485   5.126   4.024 -1.0602  0.2675 -0.3243
   81MOL   H11813078   3.630   5.314   4.048 -0.8991 -0.5181  0.5988
   81MOL   H11913079   3.554   5.467   4.034 -0.6004  0.8594  0.4492
   81MOL   H12013080   3.348   5.395   4.157 -0.3834 -1.0745 -1.2489
   81MOL   H12113081   3.457   5.285   4.238 -0.0403  0.2325  0.2011
   81MOL   C12213082   3.264   5.210   3.976  0.6261  0.0002 -0.3882
   81MOL   C12313083   3.283   5.250   3.831 -0.0566  0.2226 -0.4541
   81MOL   C12413084   3.312   5.399   3.818  0.3911 -0.4304  0.2876
   81MOL   O12513085   3.271   5.477   3.902  0.0175 -0.3252  0.1356
   81MOL   H12613086   3.188   5.269   4.026 -0.3654 -0.8071 -0.9127
   81MOL   H12713087   3.231   5.106   3.978 -0.2732  0.2607 -1.2766
   81MOL   H12813088   3.195   5.226   3.771 -0.4115 -1.3194  0.6650
   81MOL   H12913089   3.375   5.210   3.789  0.2668 -0.1446  0.6000
   81MOL   C13013090   3.405   5.451   3.706 -0.4123 -0.3679  0.0976
   81MOL   C13113091   3.366   5.596   3.656  0.3733  0.0852 -0.2782
   81MOL   C13213092   3.438   5.639   3.533 -0.0136 -0.5940 -0.3384
   81MOL   O13313093   3.528   5.569   3.485 -0.0216 -0.1398  0.3081
   81MOL   H13413094   3.406   5.375   3.628 -0.4750 -0.8145  0.5336
   81MOL   H13513095   3.508   5.467   3.739 -0.7378  1.6075  0.2461
   81MOL   H13613096   3.372   5.665   3.740  0.3808  1.6711 -1.5647
   81MOL   H13713097   3.261   5.597   3.628  0.1743 -1.7919  0.3433
   81MOL   C13813098   3.413   5.778   3.476 -0.5072 -0.0591  0.2008
   81MOL   C13913099   3.535   5.870   3.501  0.0070  0.8069 -0.4566
   81MOL   C14013100   3.513   6.018   3.466  0.0803 -0.6712  0.6197
   81MOL   O14113101   3.457   6.098   3.544  0.2051 -0.1681 -0.1562
   81MOL   H14213102   3.325   5.819   3.525 -0.5098  0.1120  0.0517
   81MOL   H14313103   3.393   5.764   3.370 -0.1190 -3.2544  0.4765
   81MOL   H14413104   3.622   5.837   3.444  0.0620 -0.7257  0.5001
   81MOL   H14513105   3.559   5.858   3.606 -1.4124  0.1539 -0.1960
   81MOL   C14613106   3.568   6.062   3.326  0.2546  0.2673  0.7034
   81MOL   C14713107   3.552   6.211   3.289  0.8817  0.2160  0.4416
   81MOL   C14813108   3.643   6.296   3.371  0.3403 -0.0084 -0.6990
   81MOL   O14913109   3.764   6.272   3.384  0.2127  0.2741  0.0607
   81MOL   H15013110   3.519   5.994   3.256  0.4736 -0.5385  1.3187
   81MOL   H15113111   3.673   6.031   3.335 -0.2656 -2.4871 -1.9213
   81MOL   H15213112   3.447   6.236   3.308  0.8856  0.1905  0.4964
   81MOL   H15313113   3.577   6.227   3.184  1.3911  0.7697  0.6429
   81MOL   C15413114   3.575   6.416   3.438 -0.6108 -0.7793 -0.4579
   81MOL   C15513115   3.663   6.521   3.512  0.0645 -0.0501  0.3500
   81MOL   C15613116   3.764   6.585   3.421 -0.9610  0.1370 -0.2576
   81MOL   O15713117   3.774   6.705   3.413 -0.4983  0.3223  0.1771
   81MOL   H15813118   3.509   6.379   3.517 -1.4090  0.2893 -0.6178
   81MOL   H15913119   3.509   6.474   3.373  0.3443  0.3317 -0.4481
   81MOL   H16013120   3.702   6.473   3.603  1.7203  2.8683  1.2406
   81MOL   H16113121   3.607   6.600   3.562  0.2760 -0.2753  0.9574
   81MOL   H16213122   3.839   6.523   3.371 -0.3907  1.4728 -1.0692
   82MOL     C113123   6.208   5.605   1.624 -0.3978  0.4721  0.7853
   82MOL     C213124   6.282   5.668   1.746  0.8397  0.5905 -0.1470
   82MOL     C313125   6.256   5.597   1.877 -0.0584  0.2807 -0.3880
   82MOL     O413126   6.347   5.556   1.943  0.0741 -0.1203 -0.7117
   82MOL     H513127   6.120   5.666   1.604 -0.9065 -0.5288 -0.0907
   82MOL     H613128   6.277   5.600   1.540  2.0234 -1.6197  2.7953
   82MOL     H713129   6.256   5.774   1.750 -1.9878 -0.1130  1.4778
   82MOL     H813130   6.390   5.667   1.727  0.7522 -2.2631 -0.7925
   82MOL     H913131   6.157   5.509   1.636  0.4402 -0.1816 -0.7602
   82MOL    C1013132   6.104   5.579   1.912 -0.8229  0.3400  1.4699
   82MOL    C1113133   6.074   5.479   2.030 -0.0810 -0.2230 -0.3140
   82MOL    C1213134   6.044   5.338   1.971  0.9156 -0.8634  0.2639
   82MOL    O1313135   5.954   5.324   1.884  0.0255  0.0737  0.2590
   82MOL    H1413136   6.054   5.545   1.821  1.8430 -0.8431  0.4037
   82MOL    H1513137   6.069   5.678   1.943 -0.1335  1.0621  0.0178
   82MOL    H1613138   5.994   5.514   2.095  0.3086  0.7314 -0.3367
   82MOL    H1713139   6.159   5.476   2.098 -1.4958 -0.4262  1.4801
   82MOL    C1813140   6.133   5.229   2.026 -0.1948  0.5547 -0.2258
   82MOL    C1913141   6.062   5.095   2.020  0.4605 -0.4009  0.2536
   82MOL    C2013142   5.951   5.071   2.122 -0.7918 -0.1916 -0.4047
   82MOL    O2113143   5.949   5.121   2.231  0.1456 -0.0433 -0.2292
   82MOL    H2213144   6.163   5.249   2.129 -0.9290  2.7249 -0.3929
   82MOL    H2313145   6.222   5.236   1.964 -0.2909 -1.0756 -0.5706
   82MOL    H2413146   6.131   5.017   2.052  1.0987  0.0078 -0.1163
   82MOL    H2513147   6.034   5.070   1.918 -1.9352  0.9595  0.5499
   82MOL    C2613148   5.839   4.981   2.078 -0.6447 -0.2501  0.0977
   82MOL    C2713149   5.736   4.942   2.184  0.0251 -0.3340  0.0310
   82MOL    C2813150   5.595   4.915   2.136 -0.0391  0.3577 -0.0606
   82MOL    O2913151   5.539   4.998   2.062  0.3544 -0.2139 -0.1679
   82MOL    H3013152   5.875   4.887   2.036 -0.6101 -0.5818  0.8554
   82MOL    H3113153   5.782   5.022   1.995  1.2492  0.2265 -1.0048
   82MOL    H3213154   5.722   5.016   2.262 -0.2389 -0.5603  0.1980
   82MOL    H3313155   5.750   4.846   2.234 -2.7311 -1.1857 -0.7394
   82MOL    C3413156   5.513   4.796   2.179 -0.2085 -0.2271 -0.6799
   82MOL    C3513157   5.361   4.834   2.189 -0.3937 -0.1449  0.2149
   82MOL    C3613158   5.287   4.733   2.270 -0.1672  0.4250  0.1196
   82MOL    O3713159   5.332   4.625   2.313 -0.2805  0.1172 -0.1260
   82MOL    H3813160   5.547   4.759   2.275 -0.3782 -2.0113 -1.2736
   82MOL    H3913161   5.530   4.709   2.115 -0.1889  0.7126 -1.9861
   82MOL    H4013162   5.311   4.841   2.092 -0.6337  1.3131  0.4306
   82MOL    H4113163   5.351   4.935   2.230  0.4923  0.6329 -1.4378
   82MOL    C4213164   5.142   4.773   2.298 -0.3201 -0.0336 -1.1777
   82MOL    C4313165   5.036   4.671   2.253 -0.0578 -0.0542  0.1509
   82MOL    C4413166   5.000   4.580   2.373 -0.4657 -0.4608 -0.0415
   82MOL    O4513167   4.990   4.625   2.484 -0.0890  0.5813  0.1261
   82MOL    H4613168   5.137   4.865   2.240 -3.8808 -1.2284 -2.9134
   82MOL    H4713169   5.135   4.800   2.403 -2.0377  0.5395 -1.4241
   82MOL    H4813170   5.076   4.618   2.166 -0.0751 -1.0274  0.7250
   82MOL    H4913171   4.941   4.718   2.228 -2.2359 -4.7834 -1.1590
   82MOL    C5013172   4.985   4.427   2.352 -0.3195  0.1328 -0.3048
   82MOL    C5113173   5.123   4.368   2.347 -0.3181 -0.3827 -0.2212
   82MOL    C5213174   5.165   4.308   2.213 -0.3636  0.2410 -0.2586
   82MOL    O5313175   5.092   4.289   2.116 -0.5317  0.0830 -0.7527
   82MOL    H5413176   4.922   4.402   2.266  0.0247  0.6078 -0.6989
   82MOL    H5513177   4.920   4.386   2.429 -1.2669 -0.5002 -1.4245
   82MOL    H5613178   5.121   4.279   2.410  0.6929  0.4946  1.0761
   82MOL    H5713179   5.204   4.426   2.392 -0.4570 -0.1495 -0.2688
   82MOL    C5813180   5.318   4.302   2.210  0.6374  0.2232  0.3461
   82MOL    C5913181   5.372   4.277   2.069  0.4286 -0.3255 -0.3161
   82MOL    C6013182   5.367   4.409   1.982 -0.2706 -0.1017 -0.0247
   82MOL    O6113183   5.358   4.515   2.032  0.5120  0.1914 -0.3503
   82MOL    H6213184   5.350   4.219   2.274 -1.4770 -0.7179  0.2444
   82MOL    H6313185   5.350   4.399   2.247 -0.6654  0.5602  0.6331
   82MOL    H6413186   5.307   4.203   2.023  0.6307  0.8031 -2.4985
   82MOL    H6513187   5.466   4.221   2.076  2.6273  3.1294 -0.7705
   82MOL    C6613188   5.385   4.388   1.833 -0.1539 -0.1971 -0.5051
   82MOL    C6713189   5.347   4.511   1.741 -0.5802 -0.1216  0.0340
   82MOL    C6813190   5.474   4.592   1.730  0.2780 -0.5650  0.3075
   82MOL    O6913191   5.564   4.545   1.658 -0.3921  0.3527  0.3024
   82MOL    H7013192   5.323   4.299   1.820 -1.4294  0.8462 -1.8474
   82MOL    H7113193   5.488   4.359   1.816 -0.1039 -0.6829  0.5984
   82MOL    H7213194   5.252   4.555   1.768  0.3687  0.3644  2.6920
   82MOL    H7313195   5.334   4.475   1.638  0.3169  1.5135 -0.6630
   82MOL    C7413196   5.495   4.722   1.800 -0.3152 -0.0002 -0.2813
   82MOL    C7513197   5.494   4.844   1.704 -0.5461  0.3468 -0.1218
   82MOL    C7613198   5.607   4.950   1.736  0.8943 -0.0523 -0.3290
   82MOL    O7713199   5.717   4.909   1.777 -0.4778  0.0862  0.2307
   82MOL    H7813200   5.597   4.717   1.838 -0.2504 -2.0615 -0.6381
   82MOL    H7913201   5.436   4.738   1.890  0.0421 -1.7740  0.2983
   82MOL    H8013202   5.399   4.895   1.689 -1.7678 -2.0518 -0.8560
   82MOL    H8113203   5.524   4.806   1.606 -0.4366 -0.9216  0.3937
   82MOL    C8213204   5.583   5.099   1.701  0.5718 -0.2328 -0.1141
   82MOL    C8313205   5.572   5.200   1.820 -0.0472 -0.3211  0.2503
   82MOL    C8413206   5.434   5.228   1.874  0.0910  0.5401  0.7548
   82MOL    O8513207   5.338   5.170   1.830 -0.2285  0.2452  0.0729
   82MOL    H8613208   5.492   5.100   1.640  0.4036 -3.2449  0.0018
   82MOL    H8713209   5.663   5.126   1.632  0.4431  0.1436 -0.1170
   82MOL    H8813210   5.609   5.294   1.779 -1.2888 -0.1242 -0.4653
   82MOL    H8913211   5.647   5.166   1.891 -0.7610 -2.2433  0.1192
   82MOL    C9013212   5.436   5.336   1.984  0.6211 -0.7332 -0.4606
   82MOL    C9113213   5.307   5.350   2.074 -0.4566 -0.1810  0.2545
   82MOL    C9213214   5.224   5.469   2.043 -0.2340 -0.3533  0.1474
   82MOL    O9313215   5.271   5.571   1.999 -0.6139  0.3547 -0.2817
   82MOL    H9413216   5.458   5.438   1.955  0.3530 -0.5600 -0.0630
   82MOL    H9513217   5.516   5.300   2.048  0.7760 -0.8671 -0.7290
   82MOL    H9613218   5.343   5.346   2.177 -0.8302  0.9304  0.4356
   82MOL    H9713219   5.245   5.265   2.048 -0.6987  0.5633 -1.6826
   82MOL    C9813220   5.078   5.476   2.073 -0.5211 -0.5251 -0.1786
   82MOL    C9913221   5.031   5.621   2.092  0.0618  0.2284 -0.2710
   82MOL   C10013222   4.996   5.638   2.241  0.4841 -0.2550 -0.5731
   82MOL   O10113223   5.058   5.580   2.329  0.0342  0.0816  0.0309
   82MOL   H10213224   5.061   5.410   2.158  0.2533  0.9854  1.1733
   82MOL   H10313225   5.027   5.436   1.985 -0.2090  0.8747 -1.0009
   82MOL   H10413226   4.938   5.630   2.036 -1.0561 -1.3983  1.2368
   82MOL   H10513227   5.101   5.702   2.074  0.8731 -0.3869  0.0739
   82MOL   C10613228   4.886   5.732   2.275  0.5471  0.3579 -0.0957
   82MOL   C10713229   4.866   5.762   2.422  0.0540  0.0392 -1.3878
   82MOL   C10813230   4.753   5.683   2.483 -0.9887 -0.5592  0.2851
   82MOL   O10913231   4.635   5.721   2.492 -0.0801 -0.9436  0.4926
   82MOL   H11013232   4.795   5.707   2.221  0.0046 -0.6418  1.2563
   82MOL   H11113233   4.915   5.821   2.219 -0.9958  1.2413  0.4844
   82MOL   H11213234   4.840   5.866   2.441 -0.8139 -0.5348  0.6672
   82MOL   H11313235   4.956   5.741   2.479  1.5964  2.2884 -2.9190
   82MOL   C11413236   4.788   5.544   2.531 -0.1098  0.4044 -0.7405
   82MOL   C11513237   4.663   5.459   2.535 -0.0571  0.4058 -0.5082
   82MOL   C11613238   4.623   5.395   2.401 -0.7868  0.1655 -0.1472
   82MOL   O11713239   4.690   5.420   2.303 -0.0118  0.6658  0.5681
   82MOL   H11813240   4.818   5.556   2.635 -2.5788  1.8693 -0.1651
   82MOL   H11913241   4.866   5.491   2.476  0.7690 -1.2136  1.9580
   82MOL   H12013242   4.576   5.518   2.565  0.4195  1.7896 -1.7877
   82MOL   H12113243   4.679   5.378   2.606  0.0761  0.9064  0.0278
   82MOL   C12213244   4.506   5.307   2.408 -0.7252  0.5394 -0.4112
   82MOL   C12313245   4.508   5.190   2.305  0.2441  0.4611 -0.1844
   82MOL   C12413246   4.477   5.047   2.360 -0.1143 -0.6056 -0.1395
   82MOL   O12513247   4.422   5.040   2.470 -0.1071 -0.0630  0.3571
   82MOL   H12613248   4.407   5.351   2.418 -1.3617 -0.9768  0.0633
   82MOL   H12713249   4.517   5.272   2.511 -0.5549  0.0554 -0.5937
   82MOL   H12813250   4.592   5.181   2.235 -0.3095 -1.7978 -0.6127
   82MOL   H12913251   4.424   5.201   2.237 -0.3918 -0.7358  0.4034
   82MOL   C13013252   4.517   4.924   2.286 -0.7428 -0.3051  0.4520
   82MOL   C13113253   4.492   4.783   2.350  0.7869  0.4799 -0.0470
   82MOL   C13213254   4.595   4.677   2.320 -0.5829  0.6277 -0.2064
   82MOL   O13313255   4.695   4.690   2.256  0.0610 -0.9961  0.7701
   82MOL   H13413256   4.623   4.950   2.284 -0.2358 -2.0715  2.5495
   82MOL   H13513257   4.470   4.933   2.188 -0.9501  1.5112  0.6903
   82MOL   H13613258   4.405   4.750   2.293  0.4994  0.6962  0.2633
   82MOL   H13713259   4.469   4.780   2.456 -0.9301  0.0543 -0.4122
   82MOL   C13813260   4.569   4.538   2.389 -1.1550  0.4465 -0.7754
   82MOL   C13913261   4.618   4.428   2.294  0.6385  0.7407  0.5286
   82MOL   C14013262   4.641   4.292   2.364 -0.1215 -0.6248  0.0495
   82MOL   O14113263   4.627   4.280   2.491  0.5898 -0.2717 -0.0977
   82MOL   H14213264   4.463   4.522   2.404 -1.1765  1.8472  0.6456
   82MOL   H14313265   4.605   4.532   2.491 -2.3335 -0.4842 -0.4097
   82MOL   H14413266   4.705   4.450   2.232  0.8967 -2.0510 -0.2016
   82MOL   H14513267   4.540   4.412   2.219  1.2203 -1.8494  0.4009
   82MOL   C14613268   4.682   4.174   2.274 -0.3078  0.1128  0.5599
   82MOL   C14713269   4.701   4.042   2.351  0.1031 -0.0517 -0.1384
   82MOL   C14813270   4.852   4.014   2.378  0.7905  0.1967 -0.0752
   82MOL   O14913271   4.934   4.104   2.393  0.5602 -0.3697  0.6080
   82MOL   H15013272   4.771   4.196   2.214 -0.4471 -0.1485  0.2540
   82MOL   H15113273   4.594   4.169   2.209 -0.0317  0.5880  0.1453
   82MOL   H15213274   4.676   3.951   2.296 -0.6491  0.3117 -0.4029
   82MOL   H15313275   4.657   4.033   2.450 -1.2042 -0.0960 -0.7218
   82MOL   C15413276   4.888   3.867   2.377  0.1262  0.0635  0.5492
   82MOL   C15513277   4.851   3.806   2.513 -0.2036 -0.1531 -0.4103
   82MOL   C15613278   4.809   3.667   2.518  0.2773 -0.3957  0.3751
   82MOL   O15713279   4.789   3.613   2.406  0.0556  0.0017 -0.1435
   82MOL   H15813280   4.994   3.861   2.351 -0.0160 -0.3635  0.0515
   82MOL   H15913281   4.836   3.813   2.297  3.0741 -0.7327 -0.8987
   82MOL   H16013282   4.770   3.862   2.561 -0.4921  0.4465 -1.5642
   82MOL   H16113283   4.936   3.813   2.581 -0.3826 -3.2513  0.2065
   82MOL   H16213284   4.805   3.613   2.613 -0.3504 -1.3345 -0.1866
   83MOL     C113285   6.981   6.724   0.915  0.2131 -0.1260  0.4190
   83MOL     C213286   6.849   6.642   0.926  0.2667 -0.7398 -0.1202
   83MOL     C313287   6.817   6.594   1.066  0.2485 -0.4982  0.1184
   83MOL     O413288   6.898   6.527   1.129 -0.4379  0.4168  0.0018
   83MOL     H513289   6.997   6.793   0.998  1.6612  1.9903 -1.5617
   83MOL     H613290   7.069   6.660   0.906 -0.0038 -0.2193 -1.2109
   83MOL     H713291   6.861   6.555   0.861  1.0292 -0.2784 -0.6100
   83MOL     H813292   6.764   6.705   0.902 -0.2952 -1.2272  0.5594
   83MOL     H913293   6.980   6.781   0.822 -0.6997  0.5864  0.8577
   83MOL    C1013294   6.668   6.616   1.115  0.2570 -0.3619  0.0189
   83MOL    C1113295   6.625   6.533   1.242  0.4206  0.0929  0.0214
   83MOL    C1213296   6.542   6.411   1.211 -0.2393 -0.1643  0.1810
   83MOL    O1313297   6.540   6.366   1.098  0.0443 -0.3386  0.2649
   83MOL    H1413298   6.606   6.597   1.027 -1.4437  1.9229  0.6924
   83MOL    H1513299   6.654   6.721   1.139  1.7630 -0.5401  1.8119
   83MOL    H1613300   6.572   6.605   1.305 -0.6062 -0.8231  0.2207
   83MOL    H1713301   6.710   6.495   1.298  0.8691 -0.1255 -0.7897
   83MOL    C1813302   6.452   6.354   1.325 -0.2671  0.1411  0.8078
   83MOL    C1913303   6.413   6.203   1.313 -0.3550  0.2162 -0.4725
   83MOL    C2013304   6.480   6.118   1.420  0.6075  0.0623  0.1578
   83MOL    O2113305   6.583   6.147   1.473  0.1120 -0.7726 -0.4315
   83MOL    H2213306   6.357   6.407   1.330 -0.4204 -0.2348  2.1254
   83MOL    H2313307   6.506   6.376   1.418  2.7248 -0.8848 -0.6230
   83MOL    H2413308   6.431   6.159   1.215 -2.0591 -1.0331 -0.2428
   83MOL    H2513309   6.305   6.197   1.327 -0.3803 -1.6829 -1.3427
   83MOL    C2613310   6.419   5.981   1.457 -0.7283  0.0920 -0.4735
   83MOL    C2713311   6.486   5.873   1.363 -0.8883  0.9679 -0.3281
   83MOL    C2813312   6.389   5.779   1.295 -0.0982  0.2653  0.6436
   83MOL    O2913313   6.278   5.814   1.267  0.6663  0.4931  0.2812
   83MOL    H3013314   6.312   5.994   1.442 -0.8288 -0.5121 -0.2972
   83MOL    H3113315   6.433   5.962   1.564  0.6162 -2.4258 -1.0567
   83MOL    H3213316   6.565   5.825   1.419 -0.3156 -1.3718 -3.0488
   83MOL    H3313317   6.522   5.917   1.270  0.4440  1.0644  0.2288
   83MOL    C3413318   6.438   5.637   1.262 -0.5997 -0.5270  0.1492
   83MOL    C3513319   6.359   5.575   1.151  0.7782  0.0370  0.5455
   83MOL    C3613320   6.442   5.485   1.062 -0.4659  0.3405  0.9177
   83MOL    O3713321   6.568   5.470   1.078 -0.3685  0.0166 -0.0434
   83MOL    H3813322   6.427   5.573   1.350  0.2784 -0.7687  0.0843
   83MOL    H3913323   6.543   5.647   1.237 -0.5185 -0.4891  0.5089
   83MOL    H4013324   6.321   5.654   1.085  1.1053 -0.4810 -0.2765
   83MOL    H4113325   6.264   5.535   1.187  0.1952  1.9132  1.1522
   83MOL    C4213326   6.382   5.404   0.952 -0.2651  0.8110 -0.4641
   83MOL    C4313327   6.475   5.400   0.824  0.0554  0.4768 -0.4800
   83MOL    C4413328   6.413   5.305   0.725  0.0309  0.2230 -0.3784
   83MOL    O4513329   6.396   5.185   0.751 -0.0698  0.3403 -0.3660
   83MOL    H4613330   6.279   5.433   0.930  0.4420  2.1369 -2.1564
   83MOL    H4713331   6.372   5.299   0.981  0.6836  0.4007 -1.5763
   83MOL    H4813332   6.569   5.366   0.867 -0.3766  2.4859  2.2169
   83MOL    H4913333   6.480   5.503   0.789  0.8311  0.1475 -1.3410
   83MOL    C5013334   6.364   5.372   0.596 -1.2789  0.0294  0.3690
   83MOL    C5113335   6.281   5.276   0.504  0.3366 -0.0651 -0.0100
   83MOL    C5213336   6.238   5.331   0.370 -0.4614 -0.7836 -0.1060
   83MOL    O5313337   6.284   5.433   0.318 -0.7565  0.7731 -0.3621
   83MOL    H5413338   6.448   5.416   0.542  0.1434 -0.2256  2.3260
   83MOL    H5513339   6.307   5.459   0.627 -0.3690 -0.1984  2.7398
   83MOL    H5613340   6.190   5.250   0.559 -0.1384  1.8734  0.1515
   83MOL    H5713341   6.326   5.177   0.495 -1.0968 -0.7338 -0.0041
   83MOL    C5813342   6.127   5.258   0.299  0.2453 -0.3083 -0.4686
   83MOL    C5913343   6.080   5.325   0.163 -0.8850  0.1242  0.5255
   83MOL    C6013344   5.991   5.222   0.094 -0.6425 -0.0089 -0.2751
   83MOL    O6113345   5.922   5.142   0.156 -0.3774  0.7155  0.3548
   83MOL    H6213346   6.038   5.257   0.362 -1.6000 -1.8368 -2.9985
   83MOL    H6313347   6.153   5.154   0.279  0.7577 -0.1243 -0.7481
   83MOL    H6413348   6.167   5.343   0.099  0.6210 -2.7267  1.7085
   83MOL    H6513349   6.029   5.421   0.175  0.5004  0.8475  0.8627
   83MOL    C6613350   5.988   5.224   7.801  0.0005 -0.1858 -0.3519
   83MOL    C6713351   5.865   5.154   7.744  0.4318  0.0862  0.1094
   83MOL    C6813352   5.774   5.234   7.649 -0.5482 -0.1087  0.8062
   83MOL    O6913353   5.792   5.216   7.530 -0.7864  0.6971 -0.6385
   83MOL    H7013354   6.077   5.188   7.749 -0.0622  0.3639 -0.8485
   83MOL    H7113355   5.974   5.331   7.785 -0.2720 -0.2491 -0.5503
   83MOL    H7213356   5.801   5.119   7.825  0.6637  0.4888  0.4667
   83MOL    H7313357   5.894   5.059   7.698 -0.0929 -0.1686  0.2944
   83MOL    C7413358   5.691   5.342   7.706 -0.4152  0.1717 -0.2194
   83MOL    C7513359   5.601   5.410   7.603 -0.4252  0.2203  0.2031
   83MOL    C7613360   5.655   5.541   7.544  0.1716  0.6209  0.0399
   83MOL    O7713361   5.670   5.646   7.610  0.3910 -0.2242  0.2683
   83MOL    H7813362   5.741   5.428   7.750  0.4302 -0.1365 -0.5751
   83MOL    H7913363   5.636   5.307   7.792 -2.0184  1.0855 -0.8350
   83MOL    H8013364   5.507   5.440   7.648 -0.4037 -0.6619  0.8508
   83MOL    H8113365   5.576   5.332   7.531  3.5901 -2.8788  1.9795
   83MOL    C8213366   5.710   5.535   7.399  0.2975  0.2000 -0.6085
   83MOL    C8313367   5.707   5.673   7.324 -0.1458 -0.1623 -0.4700
   83MOL    C8413368   5.609   5.685   7.211 -0.0824  0.0044  0.3014
   83MOL    O8513369   5.642   5.665   7.097  0.0928  0.1310  0.4456
   83MOL    H8613370   5.645   5.468   7.342 -0.5902  1.9462 -1.6796
   83MOL    H8713371   5.813   5.499   7.396 -0.3940 -2.0654  1.0973
   83MOL    H8813372   5.807   5.688   7.283 -0.3305 -0.4395 -1.0269
   83MOL    H8913373   5.686   5.754   7.393 -0.1992 -0.3836 -0.2270
   83MOL    C9013374   5.477   5.740   7.257  0.1901 -1.1322 -0.0302
   83MOL    C9113375   5.449   5.882   7.196  0.8356 -0.0539  0.1341
   83MOL    C9213376   5.528   5.989   7.267  0.1799  0.4890 -0.4275
   83MOL    O9313377   5.602   5.955   7.363 -0.1028  0.1709 -0.3180
   83MOL    H9413378   5.473   5.742   7.366  2.3695 -0.7496  0.0723
   83MOL    H9513379   5.400   5.673   7.220  0.2531 -0.5320 -1.2848
   83MOL    H9613380   5.342   5.900   7.184  0.9838  1.7117  1.3016
   83MOL    H9713381   5.489   5.876   7.095  1.8442 -1.7413  0.6041
   83MOL    C9813382   5.517   6.135   7.233 -0.0544  0.4301 -0.0400
   83MOL    C9913383   5.464   6.218   7.347 -0.0701  0.1395  0.5078
   83MOL   C10013384   5.321   6.256   7.331  0.6982  0.7069 -0.3756
   83MOL   O10113385   5.252   6.221   7.233  0.2896  0.1694  0.2300
   83MOL   H10213386   5.460   6.143   7.140  0.6305  2.1575 -0.3346
   83MOL   H10313387   5.618   6.171   7.213  0.1758 -0.6199 -0.7885
   83MOL   H10413388   5.523   6.310   7.355 -1.1214  0.8550  0.1431
   83MOL   H10513389   5.482   6.176   7.445  0.9293 -0.6461 -0.0079
   83MOL   C10613390   5.261   6.335   7.449 -0.0682  0.1289 -0.1113
   83MOL   C10713391   5.150   6.431   7.405 -0.6998 -0.0679 -0.0389
   83MOL   C10813392   5.202   6.551   7.316 -0.3234 -0.5755 -0.7163
   83MOL   O10913393   5.321   6.558   7.291  0.1054 -0.0588  0.4247
   83MOL   H11013394   5.342   6.397   7.487 -0.8551  0.4534  1.0844
   83MOL   H11113395   5.232   6.276   7.536  3.7319 -2.4018 -0.4735
   83MOL   H11213396   5.106   6.467   7.498 -1.8462  1.0406 -0.9908
   83MOL   H11313397   5.080   6.371   7.347 -0.7404 -1.3770  1.3315
   83MOL   C11413398   5.102   6.653   7.260 -0.1704  0.2119  0.5781
   83MOL   C11513399   5.148   6.796   7.268 -0.6442 -0.2807 -0.0886
   83MOL   C11613400   5.059   6.879   7.363  0.9530 -0.8642 -0.0978
   83MOL   O11713401   5.044   6.840   7.481  0.3194 -0.3626 -0.3231
   83MOL   H11813402   5.000   6.645   7.296 -0.9421  2.3944 -1.0067
   83MOL   H11913403   5.075   6.622   7.159 -1.7610 -0.2552  1.1387
   83MOL   H12013404   5.151   6.832   7.165 -0.8789 -0.4677 -0.1605
   83MOL   H12113405   5.254   6.800   7.295 -1.2507  2.4610  2.1193
   83MOL   C12213406   4.992   7.000   7.307  0.1806  0.9587  0.0040
   83MOL   C12313407   4.894   7.061   7.407  0.3172  0.0434 -0.6921
   83MOL   C12413408   4.816   7.174   7.346  0.1952  0.3510  0.3296
   83MOL   O12513409   4.782   7.176   7.230 -0.5099 -0.6279 -0.4070
   83MOL   H12613410   4.950   6.964   7.213 -0.0245 -1.8082  1.1191
   83MOL   H12713411   5.070   7.071   7.277  2.4589 -1.8115 -0.8170
   83MOL   H12813412   4.944   7.108   7.492  0.5988 -0.4274 -0.6002
   83MOL   H12913413   4.824   6.985   7.440  1.1023 -0.4735 -0.1831
   83MOL   C13013414   4.751   7.274   7.448 -0.3809  0.2122  0.0993
   83MOL   C13113415   4.597   7.230   7.455  0.1817 -0.1964  0.5716
   83MOL   C13213416   4.552   7.150   7.576 -0.0044  0.6439 -0.2526
   83MOL   O13313417   4.609   7.163   7.681 -0.1508  0.0734  0.2006
   83MOL   H13413418   4.759   7.372   7.399  1.3714 -0.5508 -1.2091
   83MOL   H13513419   4.803   7.272   7.544  0.2133 -1.3062 -0.2458
   83MOL   H13613420   4.564   7.166   7.374  0.5839  0.2053  0.0885
   83MOL   H13713421   4.532   7.317   7.452  0.0937 -0.2395  1.2510
   83MOL   C13813422   4.425   7.066   7.565  0.1192 -0.3728 -0.2944
   83MOL   C13913423   4.375   6.990   7.685  0.7675 -0.7633  0.1555
   83MOL   C14013424   4.255   6.912   7.665 -0.3126  0.7425  0.4968
   83MOL   O14113425   4.203   6.887   7.554 -0.0584 -0.1609 -0.5946
   83MOL   H14213426   4.433   7.001   7.477 -1.5037  0.0807 -0.7957
   83MOL   H14313427   4.351   7.146   7.554 -0.0279 -0.4077  0.4397
   83MOL   H14413428   4.349   7.069   7.755  1.7308  1.0033 -1.4236
   83MOL   H14513429   4.459   6.933   7.725  0.7687  0.2876  1.6623
   83MOL   C14613430   4.219   6.826   7.783 -0.4862  0.0946 -0.0328
   83MOL   C14713431   4.155   6.685   7.748  0.1136 -0.7440 -0.5203
   83MOL   C14813432   4.252   6.572   7.725  0.1413  0.5190 -0.4495
   83MOL   O14913433   4.367   6.582   7.747  0.0718  0.0856 -0.3139
   83MOL   H15013434   4.146   6.880   7.843  0.4114  1.4311 -0.1429
   83MOL   H15113435   4.299   6.814   7.855 -0.4985  2.4149  0.3802
   83MOL   H15213436   4.090   6.694   7.661  0.0545 -0.7382 -0.4751
   83MOL   H15313437   4.093   6.658   7.834 -1.7153 -0.3337 -1.6792
   83MOL   C15413438   4.195   6.442   7.666  0.1753  0.1071 -0.0128
   83MOL   C15513439   4.271   6.395   7.537  0.0047  0.0102 -0.0214
   83MOL   C15613440   4.216   6.267   7.480  0.1267  0.1485  0.1413
   83MOL   O15713441   4.128   6.256   7.397  0.2526 -0.5594  0.0330
   83MOL   H15813442   4.088   6.456   7.649  0.2058  0.1134 -0.1996
   83MOL   H15913443   4.215   6.366   7.742 -1.0856  0.1128  0.3336
   83MOL   H16013444   4.371   6.361   7.565 -0.7795 -0.5506  2.2010
   83MOL   H16113445   4.289   6.480   7.471  0.7552  0.8895  1.2912
   83MOL   H16213446   4.262   6.181   7.528  1.6188 -0.1591 -1.7574
   84MOL     C113447   7.848   3.862   3.697  1.0018  0.4952  0.0075
   84MOL     C213448   7.856   3.950   3.820  0.5815  0.3146 -0.1965
   84MOL     C313449   7.832   3.878   3.953 -0.3028  0.7537 -0.3637
   84MOL     O413450   7.730   3.813   3.965 -0.2073  0.0836  0.2096
   84MOL     H513451   7.765   3.791   3.700  3.5802 -2.6582  0.0762
   84MOL     H613452   7.836   3.927   3.610 -2.0917  2.2869  1.6748
   84MOL     H713453   7.772   4.018   3.810 -0.5480 -1.2925 -1.9811
   84MOL     H813454   0.093   4.001   3.824  0.5704  0.2367  1.1351
   84MOL     H913455   0.076   3.797   3.684  0.2928 -0.7628  1.3979
   84MOL    C1013456   0.088   3.883   4.052 -0.1679 -0.0350  0.3547
   84MOL    C1113457   0.061   3.797   4.180  0.4324  0.5540  0.2909
   84MOL    C1213458   0.173   3.809   4.284 -0.2628  0.3865  0.2847
   84MOL    O1313459   0.277   3.878   4.261  0.8595  0.0080  0.2769
   84MOL    H1413460   0.113   3.986   4.077  0.1681 -0.1458  0.4750
   84MOL    H1513461   0.180   3.840   4.014 -0.5041 -0.1416 -0.3531
   84MOL    H1613462   0.045   3.692   4.155  1.3337  0.3759  0.4591
   84MOL    H1713463   7.829   3.837   4.226  0.8754  2.1724 -0.2064
   84MOL    C1813464   0.143   3.735   4.415  0.0139 -0.6093  0.0609
   84MOL    C1913465   0.083   3.827   4.526  0.0118 -0.6963 -0.1461
   84MOL    C2013466   0.160   3.830   4.665  1.1847 -0.6415  0.5663
   84MOL    O2113467   0.254   3.752   4.689  0.0282 -0.0685  0.1282
   84MOL    H2213468   0.237   3.704   4.463 -2.0816 -2.8093  2.9627
   84MOL    H2313469   0.074   3.652   4.399 -0.8352  0.0776  0.1764
   84MOL    H2413470   7.833   3.817   4.529 -0.2543  1.8740  0.1590
   84MOL    H2513471   0.086   3.929   4.487  0.2110 -0.9094 -0.6822
   84MOL    C2613472   0.113   3.922   4.771 -0.2832  0.2130 -0.2511
   84MOL    C2713473   0.176   3.890   4.909 -0.1079 -0.1403  0.7283
   84MOL    C2813474   0.182   4.007   5.001  0.1632  0.7681 -0.9433
   84MOL    O2913475   0.093   4.037   5.084  0.0740  0.1550  0.8024
   84MOL    H3013476   0.004   3.934   4.774 -0.5627 -2.2381  1.7679
   84MOL    H3113477   0.155   4.018   4.745 -0.4486  0.5080  0.5480
   84MOL    H3213478   0.276   3.848   4.906  0.0882  0.4054 -2.6176
   84MOL    H3313479   0.112   3.817   4.959 -2.1807  1.7789  0.9528
   84MOL    C3413480   0.294   4.104   4.977  0.2242 -0.7221  0.3242
   84MOL    C3513481   0.346   4.174   5.102  0.7961 -0.2294  0.5522
   84MOL    C3613482   0.397   4.079   5.212 -0.7207 -0.1102 -0.3730
   84MOL    O3713483   0.335   4.053   5.319  0.7193 -0.0677 -0.8219
   84MOL    H3813484   0.254   4.179   4.909 -1.4960 -0.6675  1.3507
   84MOL    H3913485   0.369   4.041   4.929  0.2449 -1.9886  1.9831
   84MOL    H4013486   0.276   4.249   5.140  0.6226 -0.4458  0.6592
   84MOL    H4113487   0.434   4.225   5.062 -0.4169 -0.3535 -2.4171
   84MOL    C4213488   0.533   4.021   5.183 -0.4905  0.3310  0.4388
   84MOL    C4313489   0.569   3.894   5.272  0.6145 -0.1329 -0.1976
   84MOL    C4413490   0.538   3.768   5.196 -0.6899  0.5924 -0.2707
   84MOL    O4513491   0.439   3.765   5.118  0.0442  0.1736  0.2257
   84MOL    H4613492   0.609   4.100   5.183  2.6707 -2.5879 -0.3715
   84MOL    H4713493   0.534   3.986   5.080 -0.0004  0.0146  0.5522
   84MOL    H4813494   0.500   3.883   5.355  0.3318  0.5020 -0.3449
   84MOL    H4913495   0.669   3.893   5.316  1.3618  0.4482 -1.8518
   84MOL    C5013496   0.596   3.637   5.243  0.4687 -0.0760  0.6392
   84MOL    C5113497   0.613   3.621   5.393  0.1705 -0.1506  0.0319
   84MOL    C5213498   0.632   3.478   5.436 -0.1039 -0.8276  0.1299
   84MOL    O5313499   0.625   3.386   5.354  0.3001 -0.1055 -0.4343
   84MOL    H5413500   0.695   3.633   5.198  0.0653 -3.1943 -0.0940
   84MOL    H5513501   0.520   3.562   5.218 -2.3572  2.7874  0.3362
   84MOL    H5613502   0.524   3.661   5.441  1.0489  1.3077  0.4615
   84MOL    H5713503   0.701   3.675   5.429  0.2787  0.9308 -1.7975
   84MOL    C5813504   0.681   3.457   5.570  0.1676  0.1770  0.7536
   84MOL    C5913505   0.746   3.325   5.596  0.3394  0.1657 -0.0896
   84MOL    C6013506   0.808   3.308   5.737  0.3834  0.3002  0.6133
   84MOL    O6113507   0.932   3.313   5.750  0.2589  0.1790  0.6302
   84MOL    H6213508   0.584   3.466   5.619 -0.6713  0.5479 -0.9391
   84MOL    H6313509   0.747   3.541   5.591  0.4993  0.8117 -2.5578
   84MOL    H6413510   0.826   3.314   5.523  0.7767  0.3138  0.3656
   84MOL    H6513511   0.671   3.246   5.590  0.3517  0.2059 -0.8244
   84MOL    C6613512   0.712   3.294   5.850 -0.5351  0.4933 -0.5032
   84MOL    C6713513   0.661   3.150   5.848 -0.2089  0.0274 -0.3926
   84MOL    C6813514   0.632   3.097   5.987  0.0661 -0.1535  0.3130
   84MOL    O6913515   0.666   3.153   6.093 -0.0098  0.0523  0.5545
   84MOL    H7013516   0.622   3.356   5.845 -0.7247  0.0940 -2.3033
   84MOL    H7113517   0.766   3.308   5.944  0.6724 -1.6724 -0.8347
   84MOL    H7213518   0.737   3.080   5.811 -0.1603 -0.1883  0.1138
   84MOL    H7313519   0.572   3.149   5.786 -0.9922  2.0898  0.6683
   84MOL    C7413520   0.555   2.969   5.995  0.4964  0.4073  0.1033
   84MOL    C7513521   0.504   2.936   6.140  0.0331 -0.9724  0.3219
   84MOL    C7613522   0.356   2.932   6.156 -1.3092 -0.6431 -0.3738
   84MOL    O7713523   0.310   2.993   6.244 -0.0633 -0.2401  0.0662
   84MOL    H7813524   0.617   2.884   5.965 -1.4050  0.1349 -3.2717
   84MOL    H7913525   0.474   2.978   5.923 -0.7904 -0.2642  1.4455
   84MOL    H8013526   0.542   3.007   6.214  1.2299 -1.2669  0.0008
   84MOL    H8113527   0.548   2.846   6.184  2.5924  0.0651 -0.0833
   84MOL    C8213528   0.265   2.848   6.063 -0.5485  0.0899  0.4475
   84MOL    C8313529   0.119   2.896   6.072  0.3841  0.7015  1.0687
   84MOL    C8413530   0.016   2.866   5.964  0.2263  0.1114 -0.5621
   84MOL    O8513531   0.033   2.794   5.868  0.6094 -0.1229  0.2778
   84MOL    H8613532   0.272   2.744   6.096 -1.6675 -0.1209  0.0151
   84MOL    H8713533   0.314   2.850   5.966 -1.6362 -1.0287 -0.1349
   84MOL    H8813534   0.123   3.004   6.085 -1.5731  0.8757  0.3308
   84MOL    H8913535   0.085   2.858   6.168  2.5681 -0.6777  1.3360
   84MOL    C9013536   7.753   2.956   5.969  0.5306  0.4260  0.1245
   84MOL    C9113537   7.625   2.882   5.941  0.5043  0.2325  0.1782
   84MOL    C9213538   7.527   2.875   6.055 -0.1445  0.3122  0.3686
   84MOL    O9313539   7.473   2.969   6.111  0.3033 -0.2685 -0.3596
   84MOL    H9413540   7.755   3.048   5.910  0.3081 -0.0232 -0.5934
   84MOL    H9513541   7.745   2.990   6.072 -1.9215 -1.6271  0.6601
   84MOL    H9613542   7.639   2.778   5.912  1.7061  0.2212  0.7954
   84MOL    H9713543   7.580   2.930   5.853 -2.1109 -1.0105  0.7808
   84MOL    C9813544   7.489   2.734   6.095 -0.1474 -0.2234  0.2463
   84MOL    C9913545   7.396   2.718   6.218  0.0188  0.6415  0.7543
   84MOL   C10013546   7.472   2.661   6.336 -0.4742 -0.4000  0.3422
   84MOL   O10113547   7.514   2.546   6.327  0.1695  0.3918  0.3237
   84MOL   H10213548   7.588   2.694   6.118 -0.2470 -0.6608 -0.0627
   84MOL   H10313549   7.453   2.686   6.003  2.4113 -0.5515 -0.6223
   84MOL   H10413550   7.314   2.649   6.199  0.0485  0.0831  2.5117
   84MOL   H10513551   7.343   2.810   6.244 -2.3236 -0.6782  0.7120
   84MOL   C10613552   7.463   2.737   6.468  0.6130  0.1697 -0.2757
   84MOL   C10713553   7.513   2.640   6.577 -0.6601  0.2218  0.4331
   84MOL   C10813554   7.581   2.700   6.697  0.0410  0.0752 -0.5332
   84MOL   O10913555   7.625   2.817   6.698  0.0112 -0.0969  0.1129
   84MOL   H11013556   7.356   2.751   6.482  0.3754 -1.2607 -0.6141
   84MOL   H11113557   7.517   2.832   6.463 -1.1126  1.2451  1.2086
   84MOL   H11213558   7.589   2.568   6.550 -0.5136  0.4134  0.3317
   84MOL   H11313559   7.429   2.575   6.603  0.0606 -0.8288  0.1763
   84MOL   C11413560   7.594   2.610   6.814  0.0106  0.1718 -0.3183
   84MOL   C11513561   7.627   2.683   6.950  0.5603  0.3160  0.1294
   84MOL   C11613562   7.522   2.656   7.060  0.2555  0.0850 -0.6620
   84MOL   O11713563   7.444   2.557   7.054  0.0304  0.5543  0.1606
   84MOL   H11813564   7.680   2.551   6.783  0.1867  0.7904 -1.0162
   84MOL   H11913565   7.517   2.534   6.821 -0.9713  1.2554  0.9170
   84MOL   H12013566   7.641   2.790   6.937  0.2124  0.3068 -0.3365
   84MOL   H12113567   7.715   2.635   6.994 -0.6398 -0.6720  1.5171
   84MOL   C12213568   7.515   2.748   7.183  0.1093 -0.5647  0.2546
   84MOL   C12313569   7.451   2.682   7.305 -0.1870  0.1049  0.8340
   84MOL   C12413570   7.553   2.664   7.416 -0.6089  0.0266  0.4631
   84MOL   O12513571   7.591   2.758   7.485 -0.0631  0.4483  0.5026
   84MOL   H12613572   7.461   2.840   7.158 -0.2972 -0.3748  1.7786
   84MOL   H12713573   7.617   2.780   7.205 -0.2113  2.0152 -1.6661
   84MOL   H12813574   7.399   2.589   7.281 -0.3734  0.6215 -0.7957
   84MOL   H12913575   7.376   2.752   7.344  1.0523  2.3459 -0.7299
   84MOL   C13013576   7.613   2.515   7.423  0.2563  0.3207  0.0504
   84MOL   C13113577   7.773   2.516   7.412  0.8361 -0.1313  0.1477
   84MOL   C13213578   7.825   2.437   7.292 -0.5596 -0.2965  0.1509
   84MOL   O13313579   7.800   2.470   7.174 -0.4126 -0.4347  0.0467
   84MOL   H13413580   7.568   2.454   7.344  0.4296  1.6487 -1.1095
   84MOL   H13513581   7.580   2.485   7.522 -1.8078  1.2435 -0.3400
   84MOL   H13613582   7.811   2.480   7.507 -1.3096  0.6943  1.3534
   84MOL   H13713583   7.809   2.619   7.403 -0.7580  0.4912  0.6386
   84MOL   C13813584   0.036   2.306   7.327 -0.2562 -0.3575 -0.1591
   84MOL   C13913585   0.076   2.225   7.198 -0.0444 -0.3342  1.3247
   84MOL   C14013586   7.854   2.104   7.179  0.0669 -0.0227 -0.0484
   84MOL   O14113587   7.744   2.103   7.228  0.3711 -0.1355  0.5869
   84MOL   H14213588   7.826   2.253   7.393 -1.3535  1.1004 -0.0987
   84MOL   H14313589   0.125   2.323   7.386 -0.5479 -1.7533  0.7208
   84MOL   H14413590   0.178   2.187   7.212  0.2812 -0.9170 -2.2897
   84MOL   H14513591   0.064   2.291   7.112  2.3962  1.1981  2.0767
   84MOL   C14613592   0.049   1.988   7.106 -0.3342 -0.1643  0.4837
   84MOL   C14713593   7.835   1.856   7.112 -0.2620 -0.1217  0.6526
   84MOL   C14813594   0.031   1.753   7.209 -0.2757  0.0277  0.0583
   84MOL   O14913595   0.140   1.770   7.263 -0.1153 -0.6508  0.0726
   84MOL   H15013596   0.156   1.994   7.123 -0.5437  1.4014  1.3914
   84MOL   H15113597   0.015   2.013   7.005 -1.1010 -0.8645  0.5629
   84MOL   H15213598   7.849   1.817   7.011  1.5790  2.3741 -0.1122
   84MOL   H15313599   7.728   1.876   7.123 -0.3259 -1.1128  1.8738
   84MOL   C15413600   7.796   1.638   7.253  0.2855 -0.6649 -0.0613
   84MOL   C15513601   0.017   1.530   7.325 -0.4039 -0.3930  0.5813
   84MOL   C15613602   0.018   1.553   7.476 -0.0513  0.6656 -0.3976
   84MOL   O15713603   7.768   1.593   7.521 -0.7473 -0.1758 -0.1838
   84MOL   H15813604   7.732   1.605   7.171  0.4858  0.2914 -0.6059
   84MOL   H15913605   7.722   1.682   7.319 -0.3470  0.0514 -1.2473
   84MOL   H16013606   0.121   1.526   7.292 -0.1557  0.5856  1.2187
   84MOL   H16113607   7.829   1.435   7.300 -1.8395 -0.2923  2.7730
   84MOL   H16213608   0.104   1.523   7.536  2.0828  1.4386 -3.0164
   85MOL     C113609   1.896   1.932   5.883  0.7463 -0.2644 -0.5078
   85MOL     C213610   1.823   1.798   5.900 -0.2984  0.1102 -0.6564
   85MOL     C313611   1.914   1.674   5.891  0.4046 -0.1402 -0.2814
   85MOL     O413612   2.040   1.686   5.898 -0.5576  0.3822  0.1610
   85MOL     H513613   1.985   1.943   5.944  0.2015 -0.0434  0.2450
   85MOL     H613614   1.935   1.932   5.781  2.1918  0.7789  0.0398
   85MOL     H713615   1.741   1.799   5.828  1.4234 -0.4331 -2.7026
   85MOL     H813616   1.778   1.794   5.999 -1.3682 -0.2747 -1.1533
   85MOL     H913617   1.833   2.019   5.901  1.7871  0.0890  1.4617
   85MOL    C1013618   1.833   1.544   5.900 -0.8408 -0.2875  0.2744
   85MOL    C1113619   1.925   1.422   5.898  0.0261  0.1589  0.4582
   85MOL    C1213620   1.956   1.376   6.034 -0.1508  0.3032 -0.4907
   85MOL    O1313621   1.872   1.363   6.123  0.1168  0.5360 -0.1460
   85MOL    H1413622   1.755   1.546   5.824 -1.2397  0.2989  0.6981
   85MOL    H1513623   1.778   1.555   5.993 -1.3721  2.1691 -0.3028
   85MOL    H1613624   2.021   1.448   5.853 -0.2773 -0.7920 -0.7850
   85MOL    H1713625   1.885   1.335   5.846 -0.4063 -1.0166  2.7231
   85MOL    C1813626   2.101   1.354   6.073 -0.6556 -0.4961 -0.2450
   85MOL    C1913627   2.112   1.310   6.224 -0.0730 -0.3154  0.0307
   85MOL    C2013628   2.253   1.329   6.289 -0.2576  0.1262 -0.0844
   85MOL    O2113629   2.324   1.428   6.261 -0.9934 -0.1118  0.5600
   85MOL    H2213630   2.151   1.451   6.063 -0.2435 -0.7531 -0.6797
   85MOL    H2313631   2.161   1.284   6.015  1.1423  0.6362  0.1948
   85MOL    H2413632   2.074   1.210   6.247  0.0023 -0.0479  1.3742
   85MOL    H2513633   2.047   1.375   6.284 -2.0116 -1.3783 -0.8733
   85MOL    C2613634   2.302   1.234   6.400 -0.4585 -0.5667 -0.3530
   85MOL    C2713635   2.352   1.089   6.357  0.2621 -0.2817 -0.3093
   85MOL    C2813636   2.293   0.988   6.456  0.0970 -0.5437 -0.7121
   85MOL    O2913637   2.178   0.942   6.440 -0.1186  0.2786 -0.6450
   85MOL    H3013638   2.219   1.210   6.468  0.4952  0.3260  1.1434
   85MOL    H3113639   2.387   1.273   6.456 -0.0359 -0.1867 -1.2434
   85MOL    H3213640   2.459   1.083   6.376  0.0913 -0.8572  0.4812
   85MOL    H3313641   2.328   1.061   6.254 -0.8201 -0.6964  0.0585
   85MOL    C3413642   2.389   0.951   6.570 -0.6556  0.3905 -0.1460
   85MOL    C3513643   2.327   0.849   6.672 -0.8984 -0.8157  0.1677
   85MOL    C3613644   2.362   0.707   6.644 -0.2873 -1.0268 -0.3779
   85MOL    O3713645   2.426   0.668   6.548 -0.0395 -0.3880 -0.1565
   85MOL    H3813646   2.413   1.043   6.624 -0.0898  0.3291 -0.2917
   85MOL    H3913647   2.484   0.911   6.535 -0.2058 -0.0888  1.5696
   85MOL    H4013648   2.220   0.868   6.679 -0.8919 -1.1229  1.1690
   85MOL    H4113649   2.366   0.872   6.771  0.5397  1.0028 -0.7974
   85MOL    C4213650   2.311   0.613   6.753  0.0482  0.0931 -0.0584
   85MOL    C4313651   2.236   0.497   6.686  0.2870 -0.8629  0.9475
   85MOL    C4413652   2.236   0.382   6.790  0.1338  0.1078  0.7681
   85MOL    O4513653   2.267   0.401   6.911  0.0922 -0.4335 -0.2532
   85MOL    H4613654   2.249   0.666   6.825  1.1879 -0.9298  1.7341
   85MOL    H4713655   2.392   0.568   6.812  1.4058 -0.3129 -2.1708
   85MOL    H4813656   2.284   0.474   6.590 -3.2332 -2.6013 -0.4900
   85MOL    H4913657   2.134   0.534   6.678  0.3631 -0.9458 -0.5266
   85MOL    C5013658   2.208   0.235   6.743  0.6213  0.5981  0.4952
   85MOL    C5113659   2.189   0.123   6.848 -0.2539 -0.3047  0.0632
   85MOL    C5213660   2.321   0.069   6.898  0.3093  0.1317  0.7660
   85MOL    O5313661   2.371   7.836   6.828 -0.1560 -0.1663 -0.5579
   85MOL    H5413662   2.294   0.216   6.678  0.1854  0.0493  0.0812
   85MOL    H5513663   2.128   0.242   6.669  2.6473  2.0128 -1.6528
   85MOL    H5613664   2.112   0.061   6.802  2.3109 -0.9564 -3.5678
   85MOL    H5713665   2.146   0.154   6.944 -0.8301  1.1871 -0.6706
   85MOL    C5813666   2.383   0.106   7.037 -0.2024  0.2832 -1.0441
   85MOL    C5913667   2.528   0.061   7.053  0.5158  0.0517  0.4253
   85MOL    C6013668   2.625   0.179   7.049 -0.3529 -0.0218 -0.1988
   85MOL    O6113669   2.643   0.255   7.140 -0.3741  0.1945 -0.1243
   85MOL    H6213670   2.312   0.057   7.103  0.5922  1.5445  0.7940
   85MOL    H6313671   2.377   0.213   7.056  0.9036  0.4573 -1.6771
   85MOL    H6413672   2.556   7.833   6.993  0.5764  0.7927 -0.6470
   85MOL    H6513673   2.533   0.015   7.151  0.7943 -0.7749  0.0267
   85MOL    C6613674   2.686   0.206   6.912 -0.5660  0.4515 -0.1923
   85MOL    C6713675   2.771   0.334   6.901 -0.3186  0.3354  0.0008
   85MOL    C6813676   2.715   0.441   6.811 -0.3260 -0.2572 -0.0346
   85MOL    O6913677   2.598   0.473   6.819 -0.0189  0.4351  0.4048
   85MOL    H7013678   2.606   0.234   6.843 -0.4797 -3.2232 -1.8581
   85MOL    H7113679   2.738   0.120   6.871 -0.2109 -0.5675  2.3028
   85MOL    H7213680   2.870   0.302   6.868 -1.0081  0.9659 -2.8153
   85MOL    H7313681   2.797   0.375   6.998 -0.8181  1.1766 -0.2112
   85MOL    C7413682   2.814   0.518   6.723  0.0776 -0.1706 -0.0313
   85MOL    C7513683   2.746   0.566   6.593  0.4641 -0.9020  0.4438
   85MOL    C7613684   2.838   0.614   6.479 -0.0378  0.7409  0.4317
   85MOL    O7713685   2.949   0.557   6.468  0.0576 -0.0850  0.3041
   85MOL    H7813686   2.889   0.451   6.680 -0.0283  0.1581 -0.7385
   85MOL    H7913687   2.861   0.599   6.779  2.0502 -1.4120  0.1496
   85MOL    H8013688   2.666   0.636   6.615  2.3110  2.1077 -1.9548
   85MOL    H8113689   2.690   0.479   6.558  0.4296 -1.2882  1.4546
   85MOL    C8213690   2.789   0.709   6.375  0.0661 -0.2167  0.5996
   85MOL    C8313691   2.897   0.819   6.346 -0.2904  0.3605 -0.0863
   85MOL    C8413692   2.825   0.950   6.303  0.1509  0.8249 -0.1469
   85MOL    O8513693   2.716   0.945   6.244 -0.1219 -0.5000 -0.4204
   85MOL    H8613694   2.701   0.759   6.414  0.3265 -0.2170  1.1823
   85MOL    H8713695   2.754   0.659   6.284  0.5260  1.2493 -0.4114
   85MOL    H8813696   2.949   0.794   6.253  0.3440  0.8638  0.1273
   85MOL    H8913697   2.961   0.842   6.431 -2.5820  1.5462  1.3510
   85MOL    C9013698   2.884   1.084   6.338  0.8896  0.0698  0.3578
   85MOL    C9113699   2.886   1.102   6.488  0.4919 -0.0760 -0.7896
   85MOL    C9213700   3.029   1.065   6.549  0.2119 -1.0309  0.2091
   85MOL    O9313701   3.129   1.054   6.473  0.2185  0.3208  0.3367
   85MOL    H9413702   2.827   1.165   6.291  0.2503 -0.8311 -0.4375
   85MOL    H9513703   2.981   1.096   6.289 -0.0571  1.6666 -1.2182
   85MOL    H9613704   2.814   1.035   6.535 -1.7729  1.8525 -1.4207
   85MOL    H9713705   2.860   1.198   6.530 -0.1214 -1.9606  3.3845
   85MOL    C9813706   3.045   1.054   6.702  0.1446 -0.8679 -0.1161
   85MOL    C9913707   3.175   0.981   6.752 -0.3854  0.2658 -0.0235
   85MOL   C10013708   3.151   0.834   6.744  0.1122 -0.5228  0.0030
   85MOL   O10113709   3.055   0.781   6.692 -0.3554  0.1813  0.1862
   85MOL   H10213710   2.953   1.006   6.735  0.4169 -0.7315  0.8455
   85MOL   H10313711   3.033   1.155   6.739 -0.4731 -0.0876 -2.3593
   85MOL   H10413712   3.214   1.022   6.845 -0.1789 -0.5480  0.2481
   85MOL   H10513713   3.254   1.001   6.679 -0.7216 -1.1250 -0.7781
   85MOL   C10613714   3.253   0.746   6.813  0.8150 -0.6058  0.2217
   85MOL   C10713715   3.243   0.593   6.802  0.2928 -0.8305 -1.1829
   85MOL   C10813716   3.160   0.527   6.920  0.1209  0.5353 -0.0149
   85MOL   O10913717   3.063   0.458   6.892 -0.0198 -0.6225 -0.0196
   85MOL   H11013718   3.250   0.783   6.915 -0.5758  0.4848 -0.2022
   85MOL   H11113719   3.347   0.772   6.763 -1.8925  2.2050 -3.7536
   85MOL   H11213720   3.344   0.552   6.799  0.6566  0.0520 -1.2310
   85MOL   H11313721   3.189   0.574   6.709 -1.0413  0.0413 -0.6085
   85MOL   C11413722   3.187   0.557   7.061 -0.0017 -0.4250 -0.8455
   85MOL   C11513723   3.106   0.484   7.169 -0.8245  0.4001 -0.0381
   85MOL   C11613724   2.986   0.563   7.202  0.3198  0.5213 -0.6165
   85MOL   O11713725   2.969   0.682   7.176  0.3708  0.2307  0.4196
   85MOL   H11813726   3.180   0.666   7.070 -3.1185 -0.6376  0.0569
   85MOL   H11913727   3.293   0.537   7.078  0.0358  0.4976  0.1056
   85MOL   H12013728   3.175   0.468   7.253 -1.2101 -0.4680  0.1207
   85MOL   H12113729   3.071   0.389   7.130 -3.1197  0.9931  0.4840
   85MOL   C12213730   2.879   0.489   7.279 -0.5943  0.3758  0.1594
   85MOL   C12313731   2.901   0.503   7.431  0.4598  0.4811 -0.2130
   85MOL   C12413732   2.909   0.365   7.492 -0.4745 -0.6134 -0.2132
   85MOL   O12513733   2.817   0.291   7.487  0.5353 -0.5847 -0.0790
   85MOL   H12613734   2.877   0.384   7.250 -2.6307  0.1310  1.1346
   85MOL   H12713735   2.779   0.519   7.250 -1.1722 -0.2003  1.5453
   85MOL   H12813736   2.813   0.548   7.477  1.1922  0.7537  0.9227
   85MOL   H12913737   2.989   0.562   7.457  0.6284  0.7307 -1.3268
   85MOL   C13013738   3.032   0.339   7.575  0.1082  0.1562 -0.2554
   85MOL   C13113739   3.053   0.187   7.603 -0.0098  0.7124 -0.4738
   85MOL   C13213740   3.002   0.127   7.740 -0.6595 -0.7203 -0.4284
   85MOL   O13313741   2.961   0.202   7.831  0.0460  0.2437 -0.1340
   85MOL   H13413742   3.018   0.390   7.671 -0.6397  2.2019 -1.4169
   85MOL   H13513743   3.122   0.378   7.528  0.1262 -0.6639 -0.9099
   85MOL   H13613744   3.161   0.181   7.613 -0.2038  0.4789  1.8210
   85MOL   H13713745   3.023   0.130   7.515  1.3189  1.0259 -1.1374
   85MOL   C13813746   3.008   7.835   7.748  0.7013 -0.3324 -0.4607
   85MOL   C13913747   2.899   7.778   7.835 -0.1887  0.3275 -0.0419
   85MOL   C14013748   2.775   7.734   7.758 -0.3301 -0.0600 -0.0565
   85MOL   O14113749   2.748   7.781   7.642 -0.5746  0.0229 -0.7271
   85MOL   H14213750   3.104   7.802   7.790  0.7592 -0.5229 -0.7451
   85MOL   H14313751   3.012   7.786   7.651 -1.6583  0.3347 -0.9253
   85MOL   H14413752   2.880   7.852   0.055  0.8542  1.7889 -1.1249
   85MOL   H14513753   2.946   7.693   0.024 -1.7452 -0.8523 -0.5701
   85MOL   C14613754   2.681   7.638   7.822 -0.1441 -0.9531  0.3181
   85MOL   C14713755   2.549   7.713   7.856  0.0544  0.5973 -0.6953
   85MOL   C14813756   2.523   7.720   0.145 -1.1495  0.0265 -1.0049
   85MOL   O14913757   2.617   7.757   0.222  0.4453  0.2775  0.0389
   85MOL   H15013758   2.714   7.587   0.053  0.8258 -0.5104  0.2114
   85MOL   H15113759   2.648   7.560   7.753 -0.1732  0.7229 -1.6153
   85MOL   H15213760   2.465   7.667   7.804 -0.1584  0.1447  0.0382
   85MOL   H15313761   2.537   7.815   7.820 -0.4958  0.7963  0.0588
   85MOL   C15413762   2.379   7.702   0.205  0.0918  0.4628  0.2238
   85MOL   C15513763   2.387   7.726   0.361  0.1267  0.4071  0.5687
   85MOL   C15613764   2.432   7.598   0.423  0.3926  0.9061 -0.0954
   85MOL   O15713765   2.345   7.510   0.439  0.2564 -0.3089  0.4361
   85MOL   H15813766   2.334   7.606   0.181 -0.0118  0.4019  0.6608
   85MOL   H15913767   2.331   7.786   0.155 -0.3894  0.2522  0.3248
   85MOL   H16013768   2.295   7.756   0.411 -0.6388 -1.9222  0.6411
   85MOL   H16113769   2.464   7.793   0.399  0.2451  0.4684  0.2174
   85MOL   H16213770   2.528   7.583   0.472  0.5407 -0.3920 -0.7564
   86MOL     C113771   3.706   6.559   1.277 -0.1784  0.5546  0.7875
   86MOL     C213772   3.610   6.669   1.325 -0.8016  0.7705  0.3614
   86MOL     C313773   3.499   6.624   1.425  0.4847 -0.4473 -0.1070
   86MOL     O413774   3.526   6.604   1.542  0.5492 -0.4487 -0.5785
   86MOL     H513775   3.662   6.511   1.190 -0.5266  1.3536  0.5131
   86MOL     H613776   3.798   6.606   1.244 -0.2380  0.1967  0.1084
   86MOL     H713777   3.562   6.713   1.238  0.1567 -0.0638 -0.6084
   86MOL     H813778   3.654   6.746   1.389 -1.4918  0.3688  1.3344
   86MOL     H913779   3.731   6.489   1.356  0.4786  0.0478  0.1300
   86MOL    C1013780   3.355   6.627   1.370  0.2162  0.1104  0.0790
   86MOL    C1113781   3.293   6.483   1.363  0.6962  0.1329  0.2359
   86MOL    C1213782   3.143   6.481   1.398 -0.6143 -0.2099 -0.1667
   86MOL    O1313783   3.110   6.554   1.490 -0.1970  0.9722 -0.3550
   86MOL    H1413784   3.352   6.671   1.270  0.2801 -0.0584  0.0034
   86MOL    H1513785   3.298   6.694   1.436  3.0053  2.7137 -0.0491
   86MOL    H1613786   3.341   6.409   1.428 -1.3807 -2.6733 -1.3117
   86MOL    H1713787   3.316   6.446   1.263  0.7859  0.8334 -0.0025
   86MOL    C1813788   3.050   6.372   1.341 -1.7400 -0.2877 -0.3061
   86MOL    C1913789   2.911   6.378   1.384  0.2901 -0.4806  0.7559
   86MOL    C2013790   2.807   6.399   1.275 -0.2609  0.5856  0.7385
   86MOL    O2113791   2.823   6.344   1.166 -0.5127  0.1553 -0.0473
   86MOL    H2213792   3.087   6.278   1.381 -0.2090  0.8297  0.9372
   86MOL    H2313793   3.060   6.359   1.233 -1.7946 -1.7562 -0.1546
   86MOL    H2413794   2.894   6.453   1.461 -0.7344 -0.6076  0.6619
   86MOL    H2513795   2.886   6.275   1.413  2.5969 -1.5247 -0.8189
   86MOL    C2613796   2.690   6.488   1.305  0.2384  0.5297 -0.4724
   86MOL    C2713797   2.586   6.489   1.192  0.4508 -0.1108 -0.2312
   86MOL    C2813798   2.445   6.535   1.232  0.4630  0.1905  0.2227
   86MOL    O2913799   2.405   6.535   1.348 -0.2130 -0.0083  0.2039
   86MOL    H3013800   2.726   6.587   1.332  0.1767  0.8676 -1.6244
   86MOL    H3113801   2.644   6.457   1.399 -1.5650 -1.8746 -2.0866
   86MOL    H3213802   2.579   6.390   1.147  0.1386 -0.5670  0.8101
   86MOL    H3313803   2.615   6.560   1.115  1.0817  0.2414  0.3314
   86MOL    C3413804   2.361   6.592   1.120  0.1762  0.7523 -0.6494
   86MOL    C3513805   2.319   6.731   1.157  0.0659  0.3134  1.4561
   86MOL    C3613806   2.421   6.835   1.104  0.4353 -0.1595 -0.7749
   86MOL    O3713807   2.423   6.869   0.989 -0.1346 -0.1707  0.0470
   86MOL    H3813808   2.268   6.534   1.120  0.8254 -0.3105 -0.8679
   86MOL    H3913809   2.411   6.590   1.023  1.7289  0.4630  0.1535
   86MOL    H4013810   2.299   6.732   1.264  1.2575  0.9918  1.6849
   86MOL    H4113811   2.225   6.754   1.107  1.1046  1.0092 -0.2221
   86MOL    C4213812   2.527   6.890   1.200 -0.8100  0.3370 -0.2898
   86MOL    C4313813   2.612   7.010   1.146  0.1860  0.7237  0.3970
   86MOL    C4413814   2.577   7.150   1.203  0.1089  0.0617 -0.1254
   86MOL    O4513815   2.461   7.180   1.240 -0.0905 -0.2394  0.2991
   86MOL    H4613816   2.598   6.810   1.223 -0.2927  0.4512 -1.4895
   86MOL    H4713817   2.477   6.925   1.291 -2.0447  1.6213 -1.4507
   86MOL    H4813818   2.618   7.006   1.037  1.0951 -1.0363  0.4915
   86MOL    H4913819   2.710   6.995   1.193 -0.2741 -2.6302  0.4286
   86MOL    C5013820   2.698   7.245   1.194  0.1906 -0.8478 -0.6563
   86MOL    C5113821   2.654   7.387   1.153 -0.3449 -0.5580 -0.2651
   86MOL    C5213822   2.731   7.452   1.037  0.1493  0.1060 -0.5447
   86MOL    O5313823   2.774   7.568   1.055  0.1114  0.1562 -0.0548
   86MOL    H5413824   2.777   7.210   1.129  0.1794  0.4173 -1.3650
   86MOL    H5513825   2.740   7.248   1.295 -0.9196 -0.0222 -0.2072
   86MOL    H5613826   2.658   7.451   1.241  1.6200 -1.0969  0.0560
   86MOL    H5713827   2.549   7.380   1.124 -0.1767  0.7765 -1.2607
   86MOL    C5813828   2.722   7.390   0.902  0.5828  0.5012  0.6183
   86MOL    C5913829   2.817   7.447   0.797  0.1108 -0.6910  0.4187
   86MOL    C6013830   2.753   7.502   0.666  0.0831  0.1658 -0.1947
   86MOL    O6113831   2.657   7.449   0.615 -0.5924  0.1187  0.2244
   86MOL    H6213832   2.619   7.414   0.877  1.0945  1.1411 -0.9467
   86MOL    H6313833   2.719   7.282   0.920 -2.7689  0.6832  1.5447
   86MOL    H6413834   2.900   7.378   0.782  0.4085 -0.1487 -0.4129
   86MOL    H6513835   2.872   7.535   0.829  1.7940 -0.7479 -2.2086
   86MOL    C6613836   2.822   7.626   0.614 -0.4895 -0.0715  0.5423
   86MOL    C6713837   2.795   7.643   0.468 -0.2648  0.6896 -0.8855
   86MOL    C6813838   2.905   7.724   0.402  0.2098 -0.3187 -0.7811
   86MOL    O6913839   3.006   7.669   0.359  0.3386 -0.0636 -0.1271
   86MOL    H7013840   2.930   7.621   0.626 -0.3901 -0.9843 -0.6253
   86MOL    H7113841   2.779   7.715   0.660 -1.5482  1.8341 -3.8972
   86MOL    H7213842   2.699   7.691   0.447  0.1786  1.7852 -0.3940
   86MOL    H7313843   2.797   7.543   0.422  0.4205  0.9103 -1.3427
   86MOL    C7413844   2.880   0.021   0.382  0.4362  0.0341  0.7100
   86MOL    C7513845   3.011   0.096   0.395 -0.1689 -0.7118  0.1740
   86MOL    C7613846   3.028   0.180   0.519  0.3309  0.3814 -0.1810
   86MOL    O7713847   2.929   0.248   0.556  0.3923  0.0968 -0.1544
   86MOL    H7813848   2.802   0.060   0.448  0.4670  1.4105 -0.0514
   86MOL    H7913849   2.844   0.045   0.281 -1.8196  0.4412  1.5759
   86MOL    H8013850   3.011   0.160   0.306 -2.0962 -0.5080  0.2997
   86MOL    H8113851   3.095   0.028   0.381  1.1486  1.0623 -0.6923
   86MOL    C8213852   3.156   0.178   0.606  0.0843  0.1985  0.2270
   86MOL    C8313853   3.118   0.173   0.759  0.3584  0.3241 -0.1510
   86MOL    C8413854   3.097   0.036   0.817 -0.0150 -0.4070 -0.2170
   86MOL    O8513855   3.069   7.799   0.742  0.3747 -0.3499 -0.1028
   86MOL    H8613856   3.225   0.255   0.571  0.4719  0.0043  0.5526
   86MOL    H8713857   3.214   0.089   0.580 -2.0682 -0.7882 -1.3615
   86MOL    H8813858   3.034   0.239   0.780 -0.1114 -0.0381 -0.8902
   86MOL    H8913859   3.202   0.216   0.814 -0.1295 -1.6859  2.2843
   86MOL    C9013860   3.085   0.019   0.967 -0.1393 -0.8394 -0.5653
   86MOL    C9113861   2.965   7.797   1.018 -0.4501 -0.1727 -0.2712
   86MOL    C9213862   2.882   0.016   1.120 -0.8329 -0.4678  0.0767
   86MOL    O9313863   2.838   0.125   1.093 -0.5742 -0.4428 -0.4313
   86MOL    H9413864   3.091   0.117   1.014 -1.2152 -0.1816 -1.7595
   86MOL    H9513865   3.176   7.833   1.006  0.4101 -1.4339 -2.4666
   86MOL    H9613866   3.015   7.713   1.067  1.2312  2.9083  3.6161
   86MOL    H9713867   2.897   7.759   0.942 -0.6112 -1.9953  0.7518
   86MOL    C9813868   2.866   7.812   1.261  0.2284 -0.4590 -0.4228
   86MOL    C9913869   2.751   0.007   1.353 -0.6340 -0.3480  0.6956
   86MOL   C10013870   2.797   0.067   1.488  0.2846  0.0122 -0.2782
   86MOL   O10113871   2.917   0.082   1.516  0.7420 -0.8267  0.0915
   86MOL   H10213872   2.960   7.806   1.316  0.3698  1.1022 -0.4604
   86MOL   H10313873   2.833   7.709   1.253  0.3181 -0.6110  1.0580
   86MOL   H10413874   2.686   7.785   1.387 -1.0897 -1.0164 -1.6350
   86MOL   H10513875   2.686   0.087   1.316 -1.7596 -1.1956  0.8093
   86MOL   C10613876   2.682   0.097   1.576 -0.6842 -0.3848 -0.6986
   86MOL   C10713877   2.720   0.194   1.696 -0.4240 -0.2332  0.4319
   86MOL   C10813878   2.769   0.118   1.821  0.0610  0.1285  0.3894
   86MOL   O10913879   2.695   0.040   1.879 -0.3679  0.1171 -0.1898
   86MOL   H11013880   2.627   0.007   1.602 -0.8720  0.5607  2.3512
   86MOL   H11113881   2.602   0.146   1.520  1.1941 -0.6248 -3.7206
   86MOL   H11213882   2.634   0.255   1.725 -1.2137 -1.2084  0.1638
   86MOL   H11313883   2.790   0.269   1.659 -0.8525  0.3434  0.7775
   86MOL   C11413884   2.911   0.156   1.861  0.4037  0.1941 -0.0462
   86MOL   C11513885   2.954   0.078   1.991 -0.0211  0.9584 -0.3479
   86MOL   C11613886   3.094   0.024   1.999 -0.2876 -0.2865 -0.1447
   86MOL   O11713887   3.186   0.098   2.036 -0.2660 -0.2905  0.3888
   86MOL   H11813888   2.914   0.264   1.879  0.8490  0.0570  0.7161
   86MOL   H11913889   2.987   0.139   1.785 -1.7467 -2.1668 -1.7513
   86MOL   H12013890   2.885   7.853   1.995 -1.2161  1.9705  0.6412
   86MOL   H12113891   2.939   0.134   2.083  1.1694 -0.0101  0.4491
   86MOL   C12213892   3.116   7.737   1.966 -0.1597  0.2377  0.3092
   86MOL   C12313893   3.262   7.690   1.964  0.9176  0.3346 -0.3390
   86MOL   C12413894   3.334   7.715   1.835  0.2609  1.0077 -0.3632
   86MOL   O12513895   3.272   7.787   1.759 -0.0869  0.9609  0.3988
   86MOL   H12613896   3.052   7.722   1.879 -1.7011  1.0582  1.2869
   86MOL   H12713897   3.070   7.669   2.038 -0.8032 -0.3118 -0.6226
   86MOL   H12813898   3.268   7.591   2.011  2.3870  0.4187 -0.3290
   86MOL   H12913899   3.316   7.754   2.033  2.0653 -0.5063 -0.4275
   86MOL   C13013900   3.464   7.639   1.806  0.2283 -0.5058  0.3094
   86MOL   C13113901   3.568   7.730   1.741 -0.6228  0.5476  0.1310
   86MOL   C13213902   3.687   7.765   1.826 -0.1209  0.3937  0.4186
   86MOL   O13313903   3.701   7.726   1.941 -0.2241 -0.2020  0.4181
   86MOL   H13413904   3.421   7.563   1.741 -1.3541  1.5915 -1.1811
   86MOL   H13513905   3.486   7.578   1.893  0.4082  1.1307  1.4398
   86MOL   H13613906   3.523   7.819   1.697 -1.6909  0.2736  0.6502
   86MOL   H13713907   3.608   7.667   1.662  1.2844  3.0354 -0.9463
   86MOL   C13813908   3.789   0.005   1.760 -0.7988  0.0433 -0.0315
   86MOL   C13913909   3.928   7.804   1.765  0.0613 -0.0047 -0.3843
   86MOL   C14013910   3.968   7.720   1.644  0.8898  0.4874  0.4750
   86MOL   O14113911   3.892   7.648   1.579  0.3498 -0.0590 -0.1805
   86MOL   H14213912   3.783   0.108   1.794  1.8480 -0.2137  1.2987
   86MOL   H14313913   3.767   0.004   1.653 -0.3689  0.8886 -0.1271
   86MOL   H14413914   3.940   7.745   1.856  0.3845 -0.3388 -0.6437
   86MOL   H14513915   3.999   0.026   1.782  0.3378 -0.1400 -0.8973
   86MOL   C14613916   4.112   7.745   1.598  0.3251 -0.0900 -0.3691
   86MOL   C14713917   4.150   7.676   1.461 -0.2662 -0.4130  0.5745
   86MOL   C14813918   4.233   7.770   1.368  0.3816  0.6156 -0.2005
   86MOL   O14913919   4.302   0.004   1.406 -0.2554  0.0329  0.4482
   86MOL   H15013920   4.183   7.717   1.676  1.8327 -0.0637 -1.6991
   86MOL   H15113921   4.112   7.854   1.599 -0.2143 -0.0655 -1.8506
   86MOL   H15213922   4.069   7.631   1.405  0.6245 -4.9040  2.7166
   86MOL   H15313923   4.214   7.591   1.482 -4.3917 -3.7627  0.2583
   86MOL   C15413924   4.239   7.724   1.220  0.2344  0.0985 -0.0221
   86MOL   C15513925   4.223   7.850   1.136 -0.1793 -0.3354 -0.1879
   86MOL   C15613926   4.311   7.853   1.017 -0.4213 -0.5401 -0.3499
   86MOL   O15713927   4.365   7.758   0.957  0.4821  0.5151 -0.5862
   86MOL   H15813928   4.158   7.654   1.200  1.0901 -0.9192  0.0234
   86MOL   H15913929   4.325   7.668   1.185 -1.3320 -0.4857 -3.0849
   86MOL   H16013930   4.252   0.080   1.192  2.5499  0.3399 -2.5976
   86MOL   H16113931   4.121   0.007   1.101 -0.9502  0.5792  2.3712
   86MOL   H16213932   4.329   0.091   0.971 -0.5091  0.6324  1.9954
   87MOL     C113933   7.044   2.468   3.128  0.6534  0.2345 -0.4683
   87MOL     C213934   6.999   2.487   2.985 -0.0708  0.5398 -0.2590
   87MOL     C313935   6.901   2.378   2.935  0.2955  0.5960 -0.2282
   87MOL     O413936   6.910   2.258   2.970  0.4691 -0.2379 -0.0669
   87MOL     H513937   6.963   2.450   3.198 -0.0640 -1.7939 -1.7644
   87MOL     H613938   7.111   2.382   3.130 -0.5439 -0.7406 -1.5852
   87MOL     H713939   7.069   2.517   2.907 -1.9631  0.2061 -2.1183
   87MOL     H813940   6.946   2.582   2.990  0.4929  0.9494 -1.8111
   87MOL     H913941   7.116   2.545   3.153  0.4931  0.4892 -0.7889
   87MOL    C1013942   6.781   2.419   2.851 -0.9886  0.1106  0.1140
   87MOL    C1113943   6.714   2.299   2.791  0.0219  0.4102 -0.2439
   87MOL    C1213944   6.616   2.340   2.682  0.5647  0.1057 -0.4739
   87MOL    O1313945   6.534   2.431   2.696  0.1993 -0.0611 -0.0425
   87MOL    H1413946   6.822   2.482   2.773 -1.9125  0.7526  0.1392
   87MOL    H1513947   6.702   2.468   2.908 -2.5291  0.7256 -2.4411
   87MOL    H1613948   6.656   2.246   2.867  1.0219 -0.8990 -0.3766
   87MOL    H1713949   6.782   2.224   2.751  0.3803  0.0579  1.0055
   87MOL    C1813950   6.626   2.266   2.544  0.1041  1.1545 -0.3002
   87MOL    C1913951   6.531   2.328   2.443  0.3154 -0.2639 -0.1231
   87MOL    C2013952   6.401   2.251   2.415 -0.3708 -0.1550 -0.4193
   87MOL    O2113953   6.372   2.145   2.472 -0.3572 -0.1515  0.4069
   87MOL    H2213954   6.609   2.160   2.564 -1.5193  1.4490 -0.0334
   87MOL    H2313955   6.730   2.284   2.517 -0.3765  2.5581 -1.2487
   87MOL    H2413956   6.572   2.314   2.342 -2.1598 -0.0038 -1.1961
   87MOL    H2513957   6.508   2.434   2.449 -0.8080 -0.5411  0.7108
   87MOL    C2613958   6.313   2.314   2.311 -0.5035 -0.1995  0.5741
   87MOL    C2713959   6.268   2.219   2.196 -0.5293  0.3119  0.3375
   87MOL    C2813960   6.161   2.113   2.229 -0.3184 -0.0729  0.2161
   87MOL    O2913961   6.053   2.146   2.281  0.0813 -0.3280  0.4301
   87MOL    H3013962   6.368   2.397   2.266 -0.0891  0.2659  1.9176
   87MOL    H3113963   6.229   2.359   2.363 -0.0671  2.3146 -0.8101
   87MOL    H3213964   6.352   2.156   2.168 -1.4009 -0.0883 -1.4880
   87MOL    H3313965   6.250   2.270   2.101  1.9099 -2.1431 -1.5232
   87MOL    C3413966   6.181   1.968   2.194  0.0650  0.4572 -0.3449
   87MOL    C3513967   6.133   1.870   2.305 -0.4492 -0.6720 -0.1993
   87MOL    C3613968   5.982   1.855   2.305 -0.0061 -0.4315 -0.1500
   87MOL    O3713969   5.924   1.838   2.198 -0.3020  0.5099 -0.7285
   87MOL    H3813970   6.288   1.951   2.187 -0.2715 -1.2066 -1.8130
   87MOL    H3913971   6.137   1.943   2.098 -0.9092  1.0830 -0.0754
   87MOL    H4013972   6.165   1.893   2.407  2.8695 -1.8834 -0.9197
   87MOL    H4113973   6.183   1.775   2.289  0.4569 -0.2358 -0.0028
   87MOL    C4213974   5.914   1.833   2.440 -0.2146  0.6139 -0.2023
   87MOL    C4313975   5.765   1.885   2.453  0.2750 -0.3179  0.3102
   87MOL    C4413976   5.671   1.770   2.484  0.7072 -0.0517 -0.1528
   87MOL    O4513977   5.679   1.704   2.585  0.4458  0.1139  0.0889
   87MOL    H4613978   5.969   1.888   2.515  0.3945  0.3269 -0.4350
   87MOL    H4713979   5.923   1.727   2.461 -1.4690  0.2314 -1.5195
   87MOL    H4813980   5.742   1.925   2.354  2.4815 -1.0380 -0.5166
   87MOL    H4913981   5.755   1.965   2.526 -0.3853 -0.5003  0.4250
   87MOL    C5013982   5.558   1.741   2.381 -0.1588  0.4816 -0.1142
   87MOL    C5113983   5.600   1.736   2.228 -0.3016 -0.1110 -0.7060
   87MOL    C5213984   5.629   1.604   2.164  0.7174 -1.4442 -0.1384
   87MOL    O5313985   5.597   1.506   2.234 -0.3398  0.3611  0.5461
   87MOL    H5413986   5.485   1.820   2.398 -0.0407  0.6727 -0.4867
   87MOL    H5513987   5.506   1.653   2.419  2.4801 -0.7877  0.7055
   87MOL    H5613988   5.677   1.805   2.193 -0.2584  0.1527 -0.0835
   87MOL    H5713989   5.510   1.774   2.179 -0.5194  1.3406  0.7841
   87MOL    C5813990   5.704   1.586   2.035  0.5562  0.9665 -0.2176
   87MOL    C5913991   5.817   1.486   2.040 -0.2057 -0.1463 -0.0614
   87MOL    C6013992   5.917   1.537   1.933 -0.0413  0.0283  0.5409
   87MOL    O6113993   5.895   1.531   1.815  1.2717 -0.4781  0.4574
   87MOL    H6213994   5.757   1.681   2.031  1.2072  0.5843 -0.9645
   87MOL    H6313995   5.635   1.599   1.952 -0.8125  1.1625  0.9313
   87MOL    H6413996   5.786   1.382   2.026 -3.1254  0.5889  0.5312
   87MOL    H6513997   5.868   1.485   2.136 -1.1716 -3.2787  0.4663
   87MOL    C6613998   6.048   1.595   1.981 -0.2083 -0.3686 -0.2491
   87MOL    C6713999   6.114   1.708   1.892 -0.4554  0.2210 -0.0901
   87MOL    C6814000   6.256   1.675   1.860  0.2517  0.0525  0.4556
   87MOL    O6914001   6.351   1.704   1.928  0.2508  0.2952 -0.5983
   87MOL    H7014002   6.118   1.511   1.984 -0.0337 -0.1631  2.8880
   87MOL    H7114003   6.059   1.618   2.087  0.2779 -2.0649  0.0845
   87MOL    H7214004   6.124   1.806   1.939  0.2062  1.1908 -2.1992
   87MOL    H7314005   6.053   1.728   1.804  0.6321 -0.5528 -1.0339
   87MOL    C7414006   6.280   1.601   1.730 -0.2223 -0.5975  0.1386
   87MOL    C7514007   6.384   1.661   1.641  0.6074  0.4303  0.5027
   87MOL    C7614008   6.481   1.564   1.577  0.5332  0.0847  0.2802
   87MOL    O7714009   6.567   1.513   1.645  0.0546  0.2108  0.5629
   87MOL    H7814010   6.187   1.572   1.682  0.4255 -0.6976 -1.0788
   87MOL    H7914011   6.312   1.505   1.769  0.1420 -0.3327  0.5013
   87MOL    H8014012   6.439   1.742   1.689 -0.3585  2.1921 -1.2920
   87MOL    H8114013   6.338   1.710   1.555 -4.1882 -0.9999  2.0918
   87MOL    C8214014   6.486   1.557   1.425 -0.1649  0.3371 -0.2628
   87MOL    C8314015   6.573   1.436   1.369 -0.5116  0.0541  0.4422
   87MOL    C8414016   6.485   1.311   1.344  0.3742  0.6140 -0.0582
   87MOL    O8514017   6.447   1.280   1.230  0.4804  0.1451  0.0377
   87MOL    H8614018   6.526   1.648   1.382  3.8854 -1.4482 -0.4926
   87MOL    H8714019   6.381   1.550   1.395 -0.2926 -1.5614  0.5220
   87MOL    H8814020   6.662   1.404   1.424  0.5493 -1.5519 -2.1319
   87MOL    H8914021   6.600   1.470   1.269  0.6009 -1.4781  0.1967
   87MOL    C9014022   6.454   1.223   1.458 -0.1858  0.3479  0.4992
   87MOL    C9114023   6.309   1.165   1.459  0.7118 -0.0535  0.1575
   87MOL    C9214024   6.214   1.267   1.508 -0.2678 -0.1171  0.3076
   87MOL    O9314025   6.221   1.389   1.477  0.1620 -0.0038  0.1879
   87MOL    H9414026   6.476   1.274   1.552  0.6550 -0.2477  0.6338
   87MOL    H9514027   6.516   1.134   1.446 -1.7344 -0.5725 -0.7556
   87MOL    H9614028   6.305   1.080   1.527 -0.5826 -0.2915 -0.2211
   87MOL    H9714029   6.283   1.138   1.357  0.3848 -0.1590  0.2704
   87MOL    C9814030   6.089   1.213   1.582 -0.2133 -0.5544 -0.1654
   87MOL    C9914031   6.099   1.221   1.739  0.0356 -0.0502  0.2567
   87MOL   C10014032   6.144   1.082   1.793  0.0047 -0.0953 -0.0608
   87MOL   O10114033   6.223   1.005   1.737  0.4314 -0.6217  0.2355
   87MOL   H10214034   6.071   1.114   1.539 -2.1548  0.6279 -2.2001
   87MOL   H10314035   6.000   1.272   1.559  2.0655  3.7190  1.4875
   87MOL   H10414036   5.997   1.242   1.773  0.0639  1.7379 -0.7511
   87MOL   H10514037   6.158   1.301   1.784 -1.1972  1.6411 -1.0811
   87MOL   C10614038   6.110   1.056   1.942 -0.2828 -0.1272  0.6581
   87MOL   C10714039   5.963   1.035   1.961  0.3323  0.3222 -0.5089
   87MOL   C10814040   5.893   1.109   2.073 -0.0304  0.6169  0.6821
   87MOL   O10914041   5.930   1.225   2.101  0.0302  0.5798 -0.0900
   87MOL   H11014042   6.148   1.150   1.984 -0.4518 -0.5988  1.8912
   87MOL   H11114043   6.166   0.972   1.984 -1.6503 -1.4634 -0.1669
   87MOL   H11214044   5.950   0.933   1.996  2.0403 -0.0312 -0.9015
   87MOL   H11314045   5.908   1.062   1.871 -0.1055  1.7750  0.1716
   87MOL   C11414046   5.779   1.034   2.143 -0.0505 -0.6233  0.0745
   87MOL   C11514047   5.684   1.117   2.231 -0.6720 -0.2098  0.6228
   87MOL   C11614048   5.570   1.169   2.137  0.2199 -0.8027  0.6513
   87MOL   O11714049   5.581   1.208   2.016  0.2455  0.4381  0.0774
   87MOL   H11814050   5.821   0.953   2.201  0.7073 -0.6162 -0.4515
   87MOL   H11914051   5.714   0.981   2.073  0.1895 -1.9748  0.8706
   87MOL   H12014052   5.736   1.201   2.276 -2.3351  0.5778  1.1418
   87MOL   H12114053   5.645   1.052   2.309 -0.3297 -1.6207 -0.3609
   87MOL   C12214054   5.435   1.179   2.199  0.6421  0.4215  0.1812
   87MOL   C12314055   5.362   1.040   2.187  0.6005 -0.0732 -0.7871
   87MOL   C12414056   5.341   0.970   2.326 -0.0116  0.3819  0.5548
   87MOL   O12514057   5.438   0.968   2.408  0.1473  0.3690  0.5203
   87MOL   H12614058   5.381   1.262   2.153 -0.1562 -0.4974 -0.5471
   87MOL   H12714059   5.448   1.214   2.302 -0.2091  1.6966 -0.1301
   87MOL   H12814060   5.411   0.963   2.127 -0.4442 -0.9358 -0.5632
   87MOL   H12914061   5.264   1.055   2.142  0.5342  0.6417 -0.4111
   87MOL   C13014062   5.202   0.908   2.354  0.9932 -0.2595  0.8731
   87MOL   C13114063   5.178   0.865   2.499 -0.1765 -0.0788  0.0168
   87MOL   C13214064   5.135   0.717   2.524  0.0180 -0.6039  0.1127
   87MOL   O13314065   5.133   0.638   2.430  0.3670  0.5235  0.4192
   87MOL   H13414066   5.179   0.826   2.285  2.8720  0.3054 -0.4652
   87MOL   H13514067   5.124   0.981   2.332  1.9621  1.0277  1.6870
   87MOL   H13614068   5.097   0.924   2.540 -0.3991 -0.0940 -0.3971
   87MOL   H13714069   5.264   0.886   2.563 -0.9924 -1.9681  1.7932
   87MOL   C13814070   5.104   0.678   2.672 -0.6106 -0.3701 -0.5946
   87MOL   C13914071   5.013   0.556   2.690 -0.2547  0.2755  0.5530
   87MOL   C14014072   4.910   0.573   2.805  0.6580  0.6027 -0.6454
   87MOL   O14114073   4.892   0.682   2.851 -0.1088 -0.4974 -0.1736
   87MOL   H14214074   5.066   0.771   2.714  0.9706  1.2876 -2.7166
   87MOL   H14314075   5.200   0.656   2.720 -0.3357  2.1948  0.0845
   87MOL   H14414076   5.082   0.473   2.705  0.2891  0.6808  0.2949
   87MOL   H14514077   4.959   0.541   2.597  3.0778  0.2126 -1.4660
   87MOL   C14614078   4.846   0.442   2.869 -0.4538 -0.4507  1.4364
   87MOL   C14714079   4.758   0.363   2.768  0.8994 -0.7557 -0.2762
   87MOL   C14814080   4.610   0.380   2.794  0.2474 -0.3824 -0.3253
   87MOL   O14914081   4.559   0.488   2.815  0.2386  0.1136 -0.2251
   87MOL   H15014082   4.800   0.473   2.963  1.1467  0.5985  1.9009
   87MOL   H15114083   4.925   0.369   2.884  0.7964 -0.0317 -2.5519
   87MOL   H15214084   4.777   0.261   2.801  3.1961 -0.1821  0.2590
   87MOL   H15314085   4.784   0.362   2.662 -0.7963 -1.6670 -0.7084
   87MOL   C15414086   4.522   0.253   2.780  0.3334  0.4491 -0.2001
   87MOL   C15514087   4.386   0.270   2.860 -0.7781  0.0868  0.2066
   87MOL   C15614088   4.264   0.315   2.783  0.4985 -0.1691  0.2236
   87MOL   O15714089   4.255   0.287   2.663  0.3066 -0.4124 -0.2964
   87MOL   H15814090   4.578   0.163   2.802  1.0493  1.2261  1.1759
   87MOL   H15914091   4.500   0.246   2.673 -1.4619  1.5437  0.0744
   87MOL   H16014092   4.404   0.344   2.938 -0.6396  0.5710 -0.2829
   87MOL   H16114093   4.364   0.179   2.916 -0.9071 -0.8282 -1.3063
   87MOL   H16214094   4.192   0.369   2.844  0.7615  0.5266 -0.0756
   88MOL     C114095   3.786   1.795   0.369 -0.0525 -0.8006  0.4134
   88MOL     C214096   3.827   1.876   0.243  0.1427  0.7577  0.0228
   88MOL     C314097   3.738   1.855   0.114 -0.1779 -0.3737  0.2744
   88MOL     O414098   3.635   1.782   0.126 -0.4961  0.4387  0.3083
   88MOL     H514099   3.846   1.801   0.460  0.8628 -1.1957 -0.1559
   88MOL     H614100   3.684   1.823   0.393 -0.0948 -0.3088 -0.3328
   88MOL     H714101   3.931   1.850   0.224  1.1559  2.8037  2.4652
   88MOL     H814102   3.815   1.982   0.265  0.3877  1.2384 -2.0777
   88MOL     H914103   3.783   1.688   0.351 -0.5605 -0.7304  0.0759
   88MOL    C1014104   3.786   1.920   7.843 -0.2036  0.2420  0.0422
   88MOL    C1114105   3.715   1.861   7.717  0.4581 -0.1376 -0.3094
   88MOL    C1214106   3.815   1.830   7.603  0.1219 -0.4496 -0.5978
   88MOL    O1314107   3.931   1.878   7.604  0.0450  0.2021  0.3938
   88MOL    H1414108   3.893   1.898   7.846 -0.2344  0.2375  1.1710
   88MOL    H1514109   3.791   2.028   7.846 -0.0414  0.2754 -1.1602
   88MOL    H1614110   3.645   1.927   7.666  1.9192 -0.1383 -2.3760
   88MOL    H1714111   3.668   1.765   7.736  0.7114 -0.1039  0.4864
   88MOL    C1814112   3.764   1.725   7.503 -0.2534  0.4602  0.6980
   88MOL    C1914113   3.891   1.688   7.418  0.0986  0.5579  0.5107
   88MOL    C2014114   3.853   1.621   7.287  0.1208 -0.0210  0.4568
   88MOL    O2114115   3.781   1.675   7.204 -0.6865 -0.3514  0.2819
   88MOL    H2214116   3.683   1.776   7.450  0.9114  1.2599 -0.3154
   88MOL    H2314117   3.729   1.631   7.546  0.3713 -0.2960 -0.4225
   88MOL    H2414118   3.952   1.620   7.477 -0.0423  1.4873  1.7369
   88MOL    H2514119   3.941   1.782   7.393  0.0299  0.5589  0.3756
   88MOL    C2614120   3.897   1.481   7.267 -0.1064  0.2862  0.2037
   88MOL    C2714121   3.855   1.425   7.131 -0.7826  0.1029  0.0376
   88MOL    C2814122   3.971   1.396   7.041  0.0035 -0.4299 -0.6078
   88MOL    O2914123   4.077   1.438   7.071 -0.6717  0.2219  0.0100
   88MOL    H3014124   3.867   1.418   7.351 -2.0452  0.7350 -0.1417
   88MOL    H3114125   4.006   1.475   7.267 -0.0951 -0.0389 -2.5614
   88MOL    H3214126   3.777   1.478   7.076  0.0303  1.2873 -0.0042
   88MOL    H3314127   3.806   1.328   7.143  2.1834 -1.3285  1.1571
   88MOL    C3414128   3.959   1.309   6.914  0.2727  0.3577  0.0430
   88MOL    C3514129   4.085   1.314   6.822  0.0426  0.3358  0.6690
   88MOL    C3614130   4.167   1.188   6.841 -0.3217 -0.1308  0.3744
   88MOL    O3714131   4.127   1.083   6.784  0.0928 -0.1071 -0.3241
   88MOL    H3814132   3.874   1.336   6.851 -0.3292 -1.1537  0.2026
   88MOL    H3914133   3.947   1.207   6.951  0.9337  0.9436  1.9370
   88MOL    H4014134   4.143   1.404   6.840  2.3286 -1.2002  1.1283
   88MOL    H4114135   4.041   1.314   6.722  0.9945 -0.9159  0.2351
   88MOL    C4214136   4.303   1.204   6.908 -0.8611  0.4991 -0.3065
   88MOL    C4314137   4.418   1.129   6.832 -0.3339 -0.0826  0.3318
   88MOL    C4414138   4.464   1.021   6.928 -0.6657  0.0604 -0.6029
   88MOL    O4514139   4.411   0.909   6.923  0.5270 -0.4523 -0.1096
   88MOL    H4614140   4.299   1.187   7.016  1.1772  0.3273 -0.2401
   88MOL    H4714141   4.335   1.308   6.900  0.3837  0.1951  0.5518
   88MOL    H4814142   4.508   1.184   6.802  0.5458 -2.4076 -1.4933
   88MOL    H4914143   4.387   1.075   6.743  1.6763 -0.7115 -0.0185
   88MOL    C5014144   4.581   1.047   7.018  0.0318 -0.4249  0.0846
   88MOL    C5114145   4.710   0.975   6.972  0.3886 -0.3518  0.4132
   88MOL    C5214146   4.786   0.907   7.090  0.7042  0.7659  0.0860
   88MOL    O5314147   4.753   0.935   7.209  0.5395 -0.2383  0.3091
   88MOL    H5414148   4.547   1.017   7.118 -2.5986  0.7802 -0.4089
   88MOL    H5514149   4.591   1.155   7.012  0.1316 -0.5302 -1.8050
   88MOL    H5614150   4.768   1.057   6.929 -0.0334 -1.5208 -2.5011
   88MOL    H5714151   4.690   0.892   6.905 -2.0426  1.1432 -0.8184
   88MOL    C5814152   4.915   0.833   7.060  0.0083  1.1720  0.0835
   88MOL    C5914153   5.039   0.922   7.086  0.5728 -0.1031  0.2220
   88MOL    C6014154   5.085   1.001   6.964  0.2984 -0.1829 -0.1151
   88MOL    O6114155   5.004   1.053   6.890  0.0635  0.4956  0.1831
   88MOL    H6214156   4.908   0.796   6.958 -1.7930 -0.1817  0.6707
   88MOL    H6314157   4.928   0.745   7.122 -1.4945  0.4251 -0.6268
   88MOL    H6414158   5.121   0.855   7.112  0.4762 -1.8228 -3.5877
   88MOL    H6514159   5.008   0.990   7.165  0.0414 -0.7537  0.5790
   88MOL    C6614160   5.232   0.996   6.936 -0.2181 -0.1120  0.0699
   88MOL    C6714161   5.294   1.133   6.897  0.0954  0.6087  0.3189
   88MOL    C6814162   5.409   1.183   6.980 -0.1460 -0.2965 -0.3697
   88MOL    O6914163   5.476   1.105   7.046  0.0098  0.0251 -0.3875
   88MOL    H7014164   5.241   0.933   6.848  0.4547  0.1145 -0.0289
   88MOL    H7114165   5.295   0.949   7.011 -1.8216  0.8139  2.0581
   88MOL    H7214166   5.214   1.206   6.895  1.4834  2.1643  0.2486
   88MOL    H7314167   5.347   1.140   6.803  0.9146  3.1646  0.9238
   88MOL    C7414168   5.459   1.328   6.968  0.2680  0.3546 -0.1531
   88MOL    C7514169   5.548   1.343   6.838  0.3316  0.7165 -0.1460
   88MOL    C7614170   5.697   1.321   6.866 -0.4283 -0.4063 -0.4359
   88MOL    O7714171   5.753   1.398   6.946  0.0342  0.2460  0.2434
   88MOL    H7814172   5.518   1.339   7.059 -0.6490 -2.5060  0.8326
   88MOL    H7914173   5.371   1.391   6.982 -0.1325 -0.3918  0.7576
   88MOL    H8014174   5.537   1.445   6.802  1.9096  0.5399 -1.1695
   88MOL    H8114175   5.522   1.280   6.753  0.9545 -0.0866  0.2513
   88MOL    C8214176   5.765   1.215   6.781  0.0545 -0.0694  0.4308
   88MOL    C8314177   5.920   1.218   6.793  0.5319  0.2556  0.4334
   88MOL    C8414178   5.976   1.075   6.780  0.8806 -0.9538  0.1447
   88MOL    O8514179   5.914   0.981   6.734  0.2069  0.2715 -0.4829
   88MOL    H8614180   5.724   1.211   6.680 -0.2381 -3.6575  0.6147
   88MOL    H8714181   5.734   1.125   6.833 -0.4675  0.6795  1.4267
   88MOL    H8814182   5.949   1.252   6.892 -0.6896  2.7111 -0.0068
   88MOL    H8914183   5.963   1.292   6.724  2.0192  1.4290  2.5429
   88MOL    C9014184   6.120   1.061   6.825  0.4692 -0.1584 -0.1495
   88MOL    C9114185   6.169   0.917   6.840  0.3676 -0.0815  0.7527
   88MOL    C9214186   6.313   0.916   6.898 -0.1542 -0.4310  0.5614
   88MOL    O9314187   6.356   1.012   6.956 -0.0419 -0.3050 -0.1195
   88MOL    H9414188   6.135   1.114   6.920  1.9169  1.0280 -1.0141
   88MOL    H9514189   6.185   1.110   6.753  0.5018  1.7216  1.1167
   88MOL    H9614190   6.156   0.850   6.755 -1.5550  2.4950 -1.0762
   88MOL    H9714191   6.107   0.872   6.917 -0.0357 -0.2464  0.3324
   88MOL    C9814192   6.391   0.789   6.870  0.5196 -0.5710  0.1888
   88MOL    C9914193   6.538   0.805   6.923  0.0401  0.5872  0.8312
   88MOL   C10014194   6.604   0.662   6.944 -0.1073  0.0196  0.9401
   88MOL   O10114195   6.589   0.573   6.859 -0.8294 -0.1370  0.2922
   88MOL   H10214196   6.383   0.762   6.764 -1.1081  0.1471  0.1158
   88MOL   H10314197   6.337   0.713   6.927 -0.3588 -0.0023  0.1343
   88MOL   H10414198   6.528   0.854   7.020 -1.6708  0.7454  0.5861
   88MOL   H10514199   6.596   0.868   6.855  1.0777  0.6745  1.7841
   88MOL   C10614200   6.660   0.622   7.081  0.1378  0.0505  0.2344
   88MOL   C10714201   6.555   0.541   7.169  0.5660  0.0567 -0.5642
   88MOL   C10814202   6.436   0.632   7.220 -0.3782 -0.1412  0.4504
   88MOL   O10914203   6.448   0.751   7.227  0.4586  0.2432  0.1170
   88MOL   H11014204   6.699   0.710   7.132  0.1642  0.0400  0.2326
   88MOL   H11114205   6.736   0.546   7.065 -2.3513 -2.7705  1.3207
   88MOL   H11214206   6.600   0.507   7.262  0.2670 -0.0848 -0.4717
   88MOL   H11314207   6.508   0.453   7.125  1.5498 -0.2772 -0.9549
   88MOL   C11414208   6.299   0.568   7.252  0.3053  0.0702 -0.3273
   88MOL   C11514209   6.199   0.663   7.316 -0.4100  0.0212  0.2342
   88MOL   C11614210   6.129   0.767   7.228 -0.4247  0.5002 -0.2864
   88MOL   O11714211   6.094   0.740   7.111 -0.1951 -1.0484 -0.4701
   88MOL   H11814212   6.316   0.489   7.326  0.6497 -1.2282 -1.7598
   88MOL   H11914213   6.254   0.519   7.166 -2.0977  1.0853  0.3115
   88MOL   H12014214   6.238   0.722   7.398  1.8766  0.3009 -1.0322
   88MOL   H12114215   6.121   0.603   7.363  0.6319  0.2123  2.2603
   88MOL   C12214216   6.115   0.904   7.288 -0.1675  0.0426 -0.3454
   88MOL   C12314217   6.011   0.989   7.208 -0.4390 -0.6642  0.0903
   88MOL   C12414218   5.919   1.071   7.303  0.7394  0.0262  0.0549
   88MOL   O12514219   5.921   1.063   7.427 -0.1185  0.2474 -0.2982
   88MOL   H12614220   6.207   0.962   7.285  0.4138 -0.8912 -1.0607
   88MOL   H12714221   6.078   0.883   7.388  0.0723  1.9429  0.1621
   88MOL   H12814222   5.939   0.929   7.153  1.9608 -3.1697 -0.4260
   88MOL   H12914223   6.067   1.044   7.133 -1.3696 -0.0762 -0.1723
   88MOL   C13014224   5.825   1.164   7.234 -0.1798  0.1409 -0.0498
   88MOL   C13114225   5.858   1.318   7.255 -0.2830 -0.0469 -0.2941
   88MOL   C13214226   5.980   1.368   7.179 -0.2958 -0.6261  0.7074
   88MOL   O13314227   6.034   1.295   7.099  0.1453  0.2314 -0.1614
   88MOL   H13414228   5.721   1.137   7.254  0.1716 -0.7060  0.6638
   88MOL   H13514229   5.834   1.139   7.128  2.3979 -4.2536  1.0883
   88MOL   H13614230   5.862   1.348   7.360  1.0411 -0.2337 -0.2828
   88MOL   H13714231   5.769   1.377   7.231 -0.2106 -0.1469 -0.8016
   88MOL   C13814232   6.029   1.507   7.218  0.4621  0.3872  0.3417
   88MOL   C13914233   6.074   1.585   7.089 -0.9186  0.0157 -0.1239
   88MOL   C14014234   5.976   1.702   7.066  0.2112  0.6641 -0.7584
   88MOL   O14114235   5.933   1.768   7.161 -0.0807  0.3210 -0.4500
   88MOL   H14214236   6.115   1.500   7.286  2.0363 -0.5213 -1.6692
   88MOL   H14314237   5.946   1.550   7.273 -0.6882 -2.1806  0.7012
   88MOL   H14414238   6.090   1.533   6.994 -0.0869  2.9809 -1.6629
   88MOL   H14514239   6.171   1.632   7.108 -1.8565  1.0808  2.2591
   88MOL   C14614240   5.942   1.742   6.924 -0.5013  0.2380 -0.2873
   88MOL   C14714241   5.966   1.891   6.891  0.0848  0.7145  0.0348
   88MOL   C14814242   6.016   1.903   6.748  0.7780 -0.3639 -0.4052
   88MOL   O14914243   5.987   1.821   6.658 -0.0351  0.0151 -0.3074
   88MOL   H15014244   5.834   1.729   6.910 -0.0164 -1.7142 -2.6240
   88MOL   H15114245   5.992   1.671   6.858  0.7641  2.1443 -1.4126
   88MOL   H15214246   6.040   1.921   6.965  1.1000  0.2440 -0.7725
   88MOL   H15314247   5.884   1.963   6.893  0.5629  1.2311  1.3127
   88MOL   C15414248   6.092   2.034   6.710 -0.2561  0.3091 -0.2414
   88MOL   C15514249   6.149   2.043   6.568 -0.1239  0.0362 -0.8066
   88MOL   C15614250   6.293   2.090   6.558  0.1899  0.5213 -0.2052
   88MOL   O15714251   6.353   2.148   6.652 -0.1301 -0.1432  0.4810
   88MOL   H15814252   6.170   2.032   6.786 -2.5063 -3.7779  2.1300
   88MOL   H15914253   6.020   2.116   6.717 -0.3041  0.2910 -0.5100
   88MOL   H16014254   6.093   2.120   6.516 -2.1762 -0.5673  0.4519
   88MOL   H16114255   6.146   1.941   6.529 -1.3346 -0.1573 -0.2115
   88MOL   H16214256   6.341   2.071   6.463  2.2957 -0.4447  1.0102
   89MOL     C114257   6.937   4.982   1.939 -0.0405  0.1319  0.1036
   89MOL     C214258   6.859   4.952   1.812 -0.1600 -0.4148  0.6823
   89MOL     C314259   6.945   4.973   1.688 -0.4893  0.5681  0.0419
   89MOL     O414260   7.051   5.042   1.681  0.2326 -0.3729  0.1153
   89MOL     H514261   6.866   5.022   2.012 -0.4542 -1.1101  0.3968
   89MOL     H614262   6.968   4.887   1.983 -1.0050  0.3444  1.2918
   89MOL     H714263   6.782   5.029   1.810 -0.3285 -0.6015 -1.4807
   89MOL     H814264   6.808   4.855   1.808  1.2017 -1.1500  1.0195
   89MOL     H914265   7.026   5.044   1.937  1.1181 -1.4052  2.1856
   89MOL    C1014266   6.890   4.901   1.567  0.1587  0.0693  0.3508
   89MOL    C1114267   6.938   4.977   1.437  0.0881 -0.1984 -0.1237
   89MOL    C1214268   6.904   4.913   1.306 -0.5677  0.3077 -0.0412
   89MOL    O1314269   6.844   4.806   1.301 -0.1374 -0.4904  0.1476
   89MOL    H1414270   6.782   4.889   1.571  0.0036  1.1937 -0.2074
   89MOL    H1514271   6.936   4.802   1.564 -1.6213 -0.7470 -1.3353
   89MOL    H1614272   7.047   4.984   1.433 -0.0013  1.5486  0.2036
   89MOL    H1714273   6.910   5.081   1.456 -0.2559 -0.4828  0.9602
   89MOL    C1814274   6.931   4.984   1.176  0.0354  0.2231  0.5387
   89MOL    C1914275   7.072   5.044   1.158 -0.2139  0.5294  0.3918
   89MOL    C2014276   7.077   5.174   1.237  1.0536  0.4049 -0.7604
   89MOL    O2114277   6.972   5.240   1.264  0.0792 -0.7690  0.5110
   89MOL    H2214278   6.853   5.061   1.173  2.2672  2.5278 -1.1246
   89MOL    H2314279   6.910   4.916   1.094  1.0907  0.2308  0.2620
   89MOL    H2414280   7.103   5.061   1.055  0.9830  0.7887  0.7827
   89MOL    H2514281   7.137   4.971   1.205 -1.7388  0.5577  2.6306
   89MOL    C2614282   7.211   5.230   1.290  0.0937 -0.2441  0.2315
   89MOL    C2714283   7.207   5.255   1.445 -0.1205 -0.5036 -0.8138
   89MOL    C2814284   7.339   5.214   1.520 -0.2235  0.2556  0.3824
   89MOL    O2914285   7.449   5.234   1.464  0.6251  0.4403  0.7373
   89MOL    H3014286   7.226   5.320   1.230 -0.8087 -0.2060  0.0616
   89MOL    H3114287   7.279   5.154   1.251  0.5195 -0.1732  0.8433
   89MOL    H3214288   7.123   5.205   1.495  0.4447  0.3572  1.0356
   89MOL    H3314289   7.184   5.361   1.449  0.2723 -0.4673  1.3725
   89MOL    C3414290   7.340   5.156   1.657  0.2602  0.2993 -0.0537
   89MOL    C3514291   7.475   5.150   1.738  0.3463 -0.7608  0.3769
   89MOL    C3614292   7.502   5.274   1.828  0.0123  0.0070  0.4466
   89MOL    O3714293   7.433   5.376   1.817 -0.0436 -0.1126  0.3173
   89MOL    H3814294   7.301   5.055   1.657  0.1503  0.3358 -1.0778
   89MOL    H3914295   7.261   5.204   1.715 -0.4053 -0.1993 -0.5375
   89MOL    H4014296   7.560   5.134   1.672  0.4468 -0.8750  0.5309
   89MOL    H4114297   7.459   5.066   1.806  0.1965 -0.7668  0.3335
   89MOL    C4214298   7.614   5.263   1.931 -0.2831  0.2726 -0.1637
   89MOL    C4314299   7.608   5.362   2.042  0.3762 -0.0533 -0.4599
   89MOL    C4414300   7.733   5.350   2.133  0.0463 -0.6753 -1.5009
   89MOL    O4514301   7.800   5.244   2.141 -0.1985  0.1343  0.0358
   89MOL    H4614302   7.715   5.259   1.890 -0.3676 -2.5495 -0.1889
   89MOL    H4714303   7.597   5.164   1.974  1.8735  1.3950  3.5344
   89MOL    H4814304   7.524   5.353   2.110  2.7433 -0.8322  2.4658
   89MOL    H4914305   7.600   5.461   1.997 -1.4422  0.3177  0.6679
   89MOL    C5014306   7.775   5.481   2.213 -0.1925 -0.3584  0.0890
   89MOL    C5114307   0.008   5.442   2.329  0.0541  0.1873 -0.0518
   89MOL    C5214308   0.138   5.523   2.340 -0.2673  0.2187 -0.3855
   89MOL    O5314309   0.143   5.648   2.344  0.1306  0.1878 -0.1634
   89MOL    H5414310   7.691   5.544   2.242 -0.0181  0.6029 -1.4333
   89MOL    H5514311   7.822   5.547   2.139 -2.1014  1.9257  0.8754
   89MOL    H5614312   0.021   5.336   2.348  0.3217  0.5252  1.7828
   89MOL    H5714313   7.813   5.470   2.419 -0.8447  1.4104 -0.9487
   89MOL    C5814314   0.262   5.443   2.341 -0.0521 -0.2205  0.0285
   89MOL    C5914315   0.383   5.505   2.409 -0.1045  0.4636 -0.0274
   89MOL    C6014316   0.479   5.393   2.452 -0.2665  0.6429  0.6287
   89MOL    O6114317   0.536   5.322   2.358  0.0092 -0.0250 -0.4261
   89MOL    H6214318   0.278   5.424   2.235 -1.5340  1.5029 -0.5207
   89MOL    H6314319   0.236   5.354   2.398  1.1371 -1.3932 -1.2165
   89MOL    H6414320   0.359   5.571   2.492  1.4699  0.2013  0.6703
   89MOL    H6514321   0.437   5.572   2.342  0.5933 -0.2408 -0.1768
   89MOL    C6614322   0.476   5.347   2.595 -0.0120  0.6497 -0.5199
   89MOL    C6714323   0.555   5.220   2.629  0.0370  0.0229 -0.0914
   89MOL    C6814324   0.687   5.231   2.706 -0.0042  0.3797  0.4815
   89MOL    O6914325   0.746   5.341   2.734  0.1578  0.3099  0.8026
   89MOL    H7014326   0.376   5.336   2.636  1.1233 -1.1212  1.8427
   89MOL    H7114327   0.514   5.432   2.651  0.1041  1.2024 -1.4178
   89MOL    H7214328   0.557   5.154   2.542  0.2650 -1.2502  0.8527
   89MOL    H7314329   0.503   5.154   2.699  0.8308 -0.9553 -0.4050
   89MOL    C7414330   0.739   5.099   2.763 -0.0379 -0.7364  0.3125
   89MOL    C7514331   0.885   5.072   2.729  0.0341  0.1907 -0.2383
   89MOL    C7614332   0.911   4.993   2.608 -0.0089  0.0092  0.0526
   89MOL    O7714333   0.922   4.873   2.613  0.0855  0.6173  0.0300
   89MOL    H7814334   0.682   5.017   2.719 -2.2084 -0.0798  1.8510
   89MOL    H7914335   0.711   5.077   2.866 -0.9793 -0.2416  0.1718
   89MOL    H8014336   0.933   5.019   2.812 -2.4038 -1.6705  0.0499
   89MOL    H8114337   0.938   5.165   2.710  1.9804 -1.1040 -1.3767
   89MOL    C8214338   0.910   5.067   2.469 -0.1819 -0.0081 -0.4111
   89MOL    C8314339   0.901   4.973   2.348 -0.5477  0.7827  0.1342
   89MOL    C8414340   1.017   4.989   2.250  0.6791 -1.1937  0.6751
   89MOL    O8514341   1.121   5.048   2.278 -0.2047 -0.2018 -0.3770
   89MOL    H8614342   1.004   5.122   2.473 -1.1253  1.8278 -2.2274
   89MOL    H8714343   0.829   5.140   2.465 -1.7650 -1.7268 -0.7920
   89MOL    H8814344   0.810   5.000   2.295 -2.5930 -1.6193  2.3273
   89MOL    H8914345   0.894   4.869   2.378  2.3847  0.9743  1.7004
   89MOL    C9014346   0.982   4.936   2.109  0.0882 -0.8618 -0.2143
   89MOL    C9114347   1.092   4.958   2.001  0.2854 -0.5437 -0.2668
   89MOL    C9214348   1.197   4.848   1.977  0.4362 -0.7039  0.1448
   89MOL    O9314349   1.203   4.746   2.049 -0.0851  0.2795  0.1469
   89MOL    H9414350   0.889   4.985   2.079  1.3579  1.0461 -1.0806
   89MOL    H9514351   0.958   4.829   2.104  1.2593 -1.0484 -2.0195
   89MOL    H9614352   1.143   5.051   2.029  0.2746 -0.5243 -0.3097
   89MOL    H9714353   1.040   4.975   1.906 -1.2363  1.4652  0.8904
   89MOL    C9814354   1.292   4.872   1.859  1.3777 -0.2150  1.0679
   89MOL    C9914355   1.227   4.832   1.732 -0.4382  0.6425  0.3663
   89MOL   C10014356   1.322   4.830   1.615  0.9104 -0.0658  0.1152
   89MOL   O10114357   1.436   4.858   1.625 -0.2883  0.0355 -0.6481
   89MOL   H10214358   1.387   4.819   1.872  1.0115 -1.3878 -0.8102
   89MOL   H10314359   1.327   4.975   1.853 -0.0744  0.2899  1.0768
   89MOL   H10414360   1.139   4.894   1.713 -0.1820  0.5146 -1.3716
   89MOL   H10514361   1.201   4.727   1.740  0.6715  0.0029 -3.3292
   89MOL   C10614362   1.258   4.782   1.489  0.4205  0.0591 -0.6534
   89MOL   C10714363   1.366   4.752   1.377  0.1627 -0.5119  0.3692
   89MOL   C10814364   1.297   4.774   1.241 -0.1948  0.2423  0.2589
   89MOL   O10914365   1.180   4.803   1.236  0.1326  0.1903 -0.1217
   89MOL   H11014366   1.199   4.868   1.459 -2.6115 -1.8103 -0.2378
   89MOL   H11114367   1.190   4.698   1.502 -0.1689  0.7609  0.8031
   89MOL   H11214368   1.403   4.649   1.380  0.9664 -0.2217  0.4620
   89MOL   H11314369   1.465   4.794   1.394 -0.6471  0.6895  2.3430
   89MOL   C11414370   1.371   4.740   1.115  0.2470  0.4740 -0.2454
   89MOL   C11514371   1.323   4.827   1.001  0.1449  0.3913  0.6425
   89MOL   C11614372   1.418   4.925   0.924  1.1678 -0.1728 -0.2522
   89MOL   O11714373   1.514   4.874   0.864 -0.4490 -0.0938  0.3249
   89MOL   H11814374   1.350   4.634   1.098 -0.3143  0.9229 -2.4562
   89MOL   H11914375   1.478   4.743   1.137 -0.0476 -0.2547  1.3635
   89MOL   H12014376   1.234   4.883   1.029  1.4199  1.6051  2.3669
   89MOL   H12114377   1.290   4.757   0.924  2.6855 -1.3682  1.0970
   89MOL   C12214378   1.391   5.075   0.948  0.7816  0.1918  0.1102
   89MOL   C12314379   1.526   5.146   0.969 -0.0143 -0.1132 -0.2464
   89MOL   C12414380   1.578   5.219   0.843 -0.9583 -0.7226  0.1388
   89MOL   O12514381   1.522   5.205   0.732  0.4761  0.1371  0.0622
   89MOL   H12614382   1.335   5.094   1.039  2.9650 -0.0127  1.5317
   89MOL   H12714383   1.328   5.114   0.867 -0.9911  1.2922  1.9656
   89MOL   H12814384   1.605   5.098   1.028 -0.4906  1.7817  2.0312
   89MOL   H12914385   1.504   5.230   1.035  1.2336  0.5199 -0.6164
   89MOL   C13014386   1.706   5.303   0.860 -0.5712 -0.0224  0.1897
   89MOL   C13114387   1.786   5.301   0.733  0.0681  0.5657 -0.8164
   89MOL   C13214388   1.929   5.358   0.756 -0.3699  0.1067 -0.1876
   89MOL   O13314389   1.958   5.408   0.866 -0.0064  0.2140  0.2626
   89MOL   H13414390   1.756   5.254   0.943 -2.8475 -0.3540  1.4037
   89MOL   H13514391   1.685   5.404   0.895  0.1617 -0.5213  2.1185
   89MOL   H13614392   1.752   5.347   0.641  1.0293 -3.2681 -3.2155
   89MOL   H13714393   1.792   5.196   0.705 -0.4261  0.2817  0.1118
   89MOL   C13814394   2.020   5.368   0.640  0.6125  0.1348 -0.1589
   89MOL   C13914395   2.151   5.312   0.690 -0.4131 -0.1539  1.3556
   89MOL   C14014396   2.258   5.334   0.577 -1.0234  0.5369  0.0883
   89MOL   O14114397   2.305   5.446   0.560 -0.1545  1.0206  0.1271
   89MOL   H14214398   2.034   5.473   0.613  2.1061  0.0252  0.1746
   89MOL   H14314399   1.971   5.313   0.559 -0.8098  1.3768 -0.1581
   89MOL   H14414400   2.149   5.207   0.718 -1.9072 -0.3035  0.6985
   89MOL   H14514401   2.191   5.355   0.782  0.2412 -1.6259  1.7620
   89MOL   C14614402   2.292   5.216   0.486 -0.5693 -0.0425 -0.5849
   89MOL   C14714403   2.424   5.161   0.529 -0.3800  0.8346 -0.1841
   89MOL   C14814404   2.475   5.052   0.431  0.3624 -0.1587  0.0637
   89MOL   O14914405   2.403   4.954   0.405  0.0242  0.0224  0.0222
   89MOL   H15014406   2.301   5.245   0.381 -0.7339 -0.9606 -0.8595
   89MOL   H15114407   2.219   5.135   0.483 -0.2548 -0.3481 -0.0397
   89MOL   H15214408   2.426   5.123   0.631 -0.0136 -0.7650 -0.7719
   89MOL   H15314409   2.501   5.239   0.526 -0.9452  1.3700 -1.1492
   89MOL   C15414410   2.595   5.091   0.348  0.1163 -0.3801  0.2482
   89MOL   C15514411   2.613   5.007   0.217  0.6856 -0.7751 -0.1344
   89MOL   C15614412   2.576   5.095   0.096  0.8674 -0.2983  0.0916
   89MOL   O15714413   2.489   5.182   0.093 -0.0289  0.4751 -0.8047
   89MOL   H15814414   2.682   5.075   0.412  1.3721 -1.1760 -1.5862
   89MOL   H15914415   2.570   5.194   0.321  1.0424  0.4969  2.6343
   89MOL   H16014416   2.562   4.910   0.217 -1.0733  0.0880 -2.7624
   89MOL   H16114417   2.720   4.988   0.209  0.8376 -0.1243  0.3594
   89MOL   H16214418   2.640   5.080   0.009 -0.5836 -1.1697 -0.8651
   90MOL     C114419   2.073   4.174   1.464 -0.3075  0.2971  0.3077
   90MOL     C214420   2.186   4.264   1.417  0.0553  0.1980  0.0303
   90MOL     C314421   2.134   4.405   1.406 -0.5151 -0.2028  0.2097
   90MOL     O414422   2.039   4.450   1.476 -0.5449 -0.0496  0.3154
   90MOL     H514423   2.112   4.074   1.483 -0.4431  0.1288 -0.3204
   90MOL     H614424   2.026   4.217   1.553 -0.5804  0.4589  0.0849
   90MOL     H714425   2.237   4.228   1.328 -1.1671 -4.3327  1.0597
   90MOL     H814426   2.270   4.257   1.486 -0.1063  0.8824  0.3033
   90MOL     H914427   1.994   4.162   1.391  1.5091  1.8364 -1.9770
   90MOL    C1014428   2.229   4.495   1.330 -0.3497 -0.6564  0.0510
   90MOL    C1114429   2.206   4.647   1.341 -1.0494  0.8430  0.6563
   90MOL    C1214430   2.230   4.702   1.481  0.3540  0.2921 -0.0663
   90MOL    O1314431   2.265   4.635   1.578 -0.5399  0.2190 -0.2537
   90MOL    H1414432   2.226   4.467   1.224  2.6980  1.5992 -0.6942
   90MOL    H1514433   2.330   4.476   1.365 -1.1874  0.4108  3.1940
   90MOL    H1614434   2.104   4.660   1.306 -0.4528  1.7834 -0.7859
   90MOL    H1714435   2.261   4.695   1.260  0.8592 -1.9637  0.2196
   90MOL    C1814436   2.204   4.850   1.497 -0.2378 -0.2699 -0.4895
   90MOL    C1914437   2.208   4.900   1.647 -0.6088 -0.1723 -0.1779
   90MOL    C2014438   2.336   4.962   1.692  0.0713 -0.4024 -0.1279
   90MOL    O2114439   2.437   4.946   1.622 -0.2037  0.6015 -0.7227
   90MOL    H2214440   2.113   4.885   1.449 -0.1405 -1.0763 -1.2809
   90MOL    H2314441   2.282   4.905   1.443 -0.9515  1.5963  0.3609
   90MOL    H2414442   2.173   4.816   1.708  1.6193 -0.4131  0.8279
   90MOL    H2514443   2.125   4.970   1.645 -1.1118 -0.7080  1.0533
   90MOL    C2614444   2.332   5.033   1.828 -0.2134 -0.1896  0.2076
   90MOL    C2714445   2.311   5.184   1.811  0.3745  0.9595 -0.5745
   90MOL    C2814446   2.445   5.254   1.826  0.4182  0.0018  0.3430
   90MOL    O2914447   2.555   5.198   1.830 -0.0058  0.4961 -0.1194
   90MOL    H3014448   2.430   5.009   1.871 -0.3155 -0.7757  0.1207
   90MOL    H3114449   2.261   4.973   1.886 -0.6165 -0.7993 -0.9086
   90MOL    H3214450   2.246   5.224   1.888 -1.3171 -0.4406 -1.2298
   90MOL    H3314451   2.268   5.203   1.713  0.6188  1.2536 -0.6233
   90MOL    C3414452   2.430   5.403   1.825 -0.1855  0.1823  0.5684
   90MOL    C3514453   2.561   5.474   1.847 -0.3965 -0.3029 -0.2072
   90MOL    C3614454   2.555   5.623   1.850  0.6156  0.0094 -0.2393
   90MOL    O3714455   2.442   5.674   1.865 -0.0438 -0.0215  0.1935
   90MOL    H3814456   2.348   5.437   1.888 -0.4032 -2.1696  1.6021
   90MOL    H3914457   2.397   5.423   1.723 -1.3449  0.4868  0.9956
   90MOL    H4014458   2.622   5.452   1.759  0.7537  1.3590  0.1557
   90MOL    H4114459   2.610   5.434   1.935 -0.3422  0.8394  0.2890
   90MOL    C4214460   2.683   5.708   1.843  0.6950 -0.4730  0.5530
   90MOL    C4314461   2.647   5.858   1.856  0.1140 -0.8440 -0.3852
   90MOL    C4414462   2.597   5.918   1.724  0.5434 -0.6180  0.4445
   90MOL    O4514463   2.586   5.850   1.621  0.5272  0.5628 -0.6744
   90MOL    H4614464   2.736   5.687   1.751  1.9230  0.4297  1.0361
   90MOL    H4714465   2.752   5.697   1.927  0.1153 -3.4173  0.6906
   90MOL    H4814466   2.740   5.911   1.876 -1.9424  2.1013  1.6943
   90MOL    H4914467   2.573   5.877   1.934  0.5861 -1.3531  0.1951
   90MOL    C5014468   2.548   6.069   1.719 -0.3493  0.7610  0.2206
   90MOL    C5114469   2.529   6.134   1.580 -0.4169  0.6658  0.1941
   90MOL    C5214470   2.386   6.184   1.558 -0.2002  0.1392  0.0885
   90MOL    O5314471   2.329   6.251   1.641  0.4794  0.6749 -0.1996
   90MOL    H5414472   2.638   6.111   1.764  0.1435  0.6844 -0.6790
   90MOL    H5514473   2.460   6.079   1.782 -0.3863 -0.5349  0.3940
   90MOL    H5614474   2.538   6.058   1.502 -0.6286  0.6407  0.1960
   90MOL    H5714475   2.596   6.219   1.566 -0.2488  0.4942 -0.0724
   90MOL    C5814476   2.322   6.163   1.419  0.3720  0.3329 -0.0691
   90MOL    C5914477   2.178   6.214   1.418  0.1000  0.2843  0.7338
   90MOL    C6014478   2.142   6.338   1.348 -0.1498 -0.1382  0.5057
   90MOL    O6114479   2.148   6.344   1.225  0.4651  0.2947  0.1443
   90MOL    H6214480   2.327   6.057   1.392 -0.1859  0.3876 -0.3959
   90MOL    H6314481   2.385   6.222   1.354  0.7346  0.2965  0.2456
   90MOL    H6414482   2.138   6.214   1.519  1.9460  1.6758  1.4883
   90MOL    H6514483   2.125   6.137   1.362  0.7259  0.5029 -0.1659
   90MOL    C6614484   2.100   6.458   1.436 -0.8488 -1.0307 -0.2129
   90MOL    C6714485   2.053   6.583   1.363 -0.1749  0.3013 -0.9030
   90MOL    C6814486   1.914   6.574   1.308 -0.6390  0.2957 -0.5209
   90MOL    O6914487   1.855   6.465   1.295  0.3996 -0.4828 -0.2851
   90MOL    H7014488   2.181   6.485   1.503  0.6213 -3.1201 -1.0961
   90MOL    H7114489   2.024   6.408   1.497 -0.6331  0.1713  1.0597
   90MOL    H7214490   2.115   6.597   1.274  1.1233  0.1769 -0.0449
   90MOL    H7314491   2.079   6.675   1.416 -0.4458  1.0062 -1.9725
   90MOL    C7414492   1.842   6.702   1.286  0.1467 -0.7394  0.4184
   90MOL    C7514493   1.755   6.700   1.166 -1.0959 -0.1052 -0.2223
   90MOL    C7614494   1.816   6.750   1.036  0.4313  0.5693  0.2270
   90MOL    O7714495   1.941   6.755   1.022  1.0514 -0.0802  0.6212
   90MOL    H7814496   1.906   6.790   1.297  0.9933 -1.3283  0.2415
   90MOL    H7914497   1.780   6.714   1.375 -0.4364 -1.3298  0.0951
   90MOL    H8014498   1.660   6.751   1.185 -0.2772  1.2625  0.2981
   90MOL    H8114499   1.723   6.597   1.151 -0.9225 -0.2452  0.3423
   90MOL    C8214500   1.723   6.794   0.930 -0.5965  0.4788  0.0222
   90MOL    C8314501   1.703   6.694   0.809  0.4290  0.0713 -0.7275
   90MOL    C8414502   1.552   6.661   0.766 -0.2473 -0.2446 -0.1883
   90MOL    O8514503   1.460   6.724   0.808  0.8081  0.0909 -0.2841
   90MOL    H8614504   1.762   6.887   0.890  0.2183  0.2125  0.2011
   90MOL    H8714505   1.624   6.817   0.970 -0.9302  0.0195 -0.5130
   90MOL    H8814506   1.737   6.593   0.833 -0.9500 -0.3414 -0.4358
   90MOL    H8914507   1.758   6.728   0.721 -0.4476 -0.2359 -1.4049
   90MOL    C9014508   1.525   6.543   0.671 -0.8184  1.0106 -0.3721
   90MOL    C9114509   1.388   6.548   0.604  0.2551  0.1711  0.4372
   90MOL    C9214510   1.374   6.662   0.506 -0.8523  0.0677 -0.3341
   90MOL    O9314511   1.476   6.725   0.474 -0.1147 -0.1176 -0.4362
   90MOL    H9414512   1.545   6.449   0.722  0.5518 -0.3690 -3.3007
   90MOL    H9514513   1.607   6.556   0.600  0.8429 -0.1856  1.2630
   90MOL    H9614514   1.310   6.553   0.679  0.5263 -0.2963  0.7542
   90MOL    H9714515   1.367   6.462   0.541  0.2128  0.4930  0.0088
   90MOL    C9814516   1.232   6.692   0.463  0.0850  0.0568 -0.5978
   90MOL    C9914517   1.165   6.796   0.560 -0.7940  0.1067  0.3021
   90MOL   C10014518   1.071   6.892   0.493 -0.0256  0.7208  0.4368
   90MOL   O10114519   1.020   6.877   0.378 -0.0957  0.0812  0.1749
   90MOL   H10214520   1.170   6.604   0.446 -0.1027  0.0317  0.1614
   90MOL   H10314521   1.230   6.737   0.364  1.3786  2.3167  0.3608
   90MOL   H10414522   1.236   6.850   0.623  0.4296 -1.1430  0.0311
   90MOL   H10514523   1.105   6.738   0.630 -2.0859 -0.3549 -1.1661
   90MOL   C10614524   1.039   7.016   0.568 -0.3048  0.7380 -0.6684
   90MOL   C10714525   1.023   7.139   0.472 -0.1969  0.6177  0.1954
   90MOL   C10814526   0.891   7.219   0.478  0.2799  0.7780 -0.6871
   90MOL   O10914527   0.817   7.227   0.579  0.8506  0.3236 -0.2525
   90MOL   H11014528   1.114   7.031   0.645 -0.8285 -1.8142  0.3887
   90MOL   H11114529   0.946   6.996   0.622 -0.4196  0.4897 -0.9578
   90MOL   H11214530   1.022   7.115   0.366 -1.3232  0.1921  0.2859
   90MOL   H11314531   1.101   7.215   0.472 -1.0101  1.4906 -1.4790
   90MOL   C11414532   0.863   7.297   0.344 -0.5337  0.0120 -0.8504
   90MOL   C11514533   0.752   7.396   0.360 -0.1688 -0.4205  0.3172
   90MOL   C11614534   0.617   7.346   0.292 -0.2168  0.4027  1.3661
   90MOL   O11714535   0.584   7.230   0.292  0.7804  0.7375 -0.0481
   90MOL   H11814536   0.842   7.223   0.267  0.0521  1.3059 -2.2780
   90MOL   H11914537   0.953   7.352   0.319  0.5200  0.6958  3.8972
   90MOL   H12014538   0.774   7.494   0.316  0.3324 -0.1741  1.0884
   90MOL   H12114539   0.751   7.430   0.464 -1.8688 -0.5961  0.3617
   90MOL   C12214540   0.529   7.446   0.228 -0.0300  0.2500 -0.2728
   90MOL   C12314541   0.529   7.405   0.079  0.5192 -0.5399  0.7426
   90MOL   C12414542   0.389   7.387   0.020  0.2598  0.6195 -0.5932
   90MOL   O12514543   0.297   7.468   0.054  0.2224  0.3781  0.0412
   90MOL   H12614544   0.568   7.547   0.239 -1.4204  0.5419  2.3394
   90MOL   H12714545   0.430   7.449   0.272  0.5167 -2.9066  1.3193
   90MOL   H12814546   0.587   7.314   0.062  3.1138  1.2222 -0.2397
   90MOL   H12914547   0.580   7.484   0.022 -0.8642 -1.2671 -1.5527
   90MOL   C13014548   0.365   7.264   7.788  0.4075  0.1964  0.7176
   90MOL   C13114549   0.256   7.170   7.847 -0.6435  0.2143  0.9038
   90MOL   C13214550   0.205   7.068   7.748  0.1838 -0.1867 -0.5814
   90MOL   O13314551   0.277   7.045   7.653 -0.1134  0.1722 -0.2453
   90MOL   H13414552   0.457   7.213   7.759 -0.8683 -2.9140  1.9047
   90MOL   H13514553   0.342   7.299   7.687  1.8514  0.8193  0.5988
   90MOL   H13614554   0.176   7.234   0.026 -0.2490  0.8142  0.7448
   90MOL   H13714555   0.286   7.127   0.083 -2.2049 -1.1387  0.8031
   90MOL   C13814556   0.074   6.999   7.773 -0.1549 -0.1365  0.1675
   90MOL   C13914557   0.012   6.922   7.654 -0.3655 -0.0168  0.0951
   90MOL   C14014558   7.729   6.869   7.692  0.0598 -0.3126 -0.1290
   90MOL   O14114559   7.625   6.936   7.686  0.0775  0.0121 -0.2389
   90MOL   H14214560   0.007   7.084   7.784 -0.7783 -0.4506 -1.0332
   90MOL   H14314561   0.072   6.947   0.010 -1.7301  0.1980  0.3366
   90MOL   H14414562   0.078   6.835   7.648  0.6609  0.8162 -0.8310
   90MOL   H14514563   0.015   6.968   7.555  0.3163 -0.6131 -0.1671
   90MOL   C14614564   7.714   6.722   7.736 -0.2811  0.1201  0.3052
   90MOL   C14714565   7.667   6.626   7.623  0.9177 -0.5914 -0.2231
   90MOL   C14814566   7.776   6.600   7.520 -0.0736  0.2621  0.0240
   90MOL   O14914567   0.036   6.623   7.528  0.0647 -0.1682 -0.0667
   90MOL   H15014568   7.652   6.703   7.824 -1.3753 -0.7177 -0.6420
   90MOL   H15114569   7.815   6.682   7.750 -0.7491 -1.1271  0.1400
   90MOL   H15214570   7.591   6.673   7.560  1.6771  2.3860  0.9547
   90MOL   H15314571   7.631   6.534   7.669 -0.2834 -0.8947 -1.7256
   90MOL   C15414572   7.724   6.519   7.396  0.5906  0.2497  0.4521
   90MOL   C15514573   7.823   6.428   7.336  0.4732 -0.0938 -0.3125
   90MOL   C15614574   7.785   6.280   7.378  0.1265  0.1296  0.2942
   90MOL   O15714575   7.772   6.237   7.492 -0.3254  0.0329  0.0182
   90MOL   H15814576   7.707   6.595   7.320 -1.1344 -1.6574 -1.1468
   90MOL   H15914577   7.629   6.468   7.413 -0.4495  2.1155  0.3935
   90MOL   H16014578   0.068   6.447   7.366  0.2243  0.6783  0.0763
   90MOL   H16114579   7.821   6.448   7.229  0.9911  0.7002 -0.1830
   90MOL   H16214580   7.791   6.208   7.297 -0.2965 -0.0120  0.3869
   91MOL     C114581   5.076   4.489   4.075  0.1797  0.3027 -0.1775
   91MOL     C214582   5.152   4.380   4.145 -0.5312  0.0872 -0.1939
   91MOL     C314583   5.195   4.276   4.048  0.0702 -0.1177  0.4100
   91MOL     O414584   5.214   4.292   3.931 -0.4199 -0.1143 -0.2047
   91MOL     H514585   5.045   4.564   4.148  0.6424  1.5504 -1.2619
   91MOL     H614586   5.128   4.550   4.002  2.8697 -2.3150 -0.5020
   91MOL     H714587   5.104   4.318   4.220  0.1414 -0.4477 -0.1942
   91MOL     H814588   5.240   4.430   4.187 -0.2676 -1.3677  1.0398
   91MOL     H914589   4.986   4.447   4.029 -0.3771  0.5742  0.6472
   91MOL    C1014590   5.211   4.135   4.109  0.4238 -0.1728 -0.2349
   91MOL    C1114591   5.243   4.026   4.002 -0.0704  0.5990  0.5083
   91MOL    C1214592   5.362   3.939   4.044  0.2839 -0.4233 -0.7221
   91MOL    O1314593   5.384   3.915   4.166 -0.0645  0.0355  0.2775
   91MOL    H1414594   5.110   4.123   4.146  0.4743 -0.8385 -0.3068
   91MOL    H1514595   5.277   4.144   4.195 -2.0077  0.3304  1.6240
   91MOL    H1614596   5.256   4.070   3.904 -0.9441  0.2192  0.2193
   91MOL    H1714597   5.163   3.953   3.989  0.9471 -0.5578  0.6490
   91MOL    C1814598   5.434   3.867   3.935  0.2399  0.2022  0.2586
   91MOL    C1914599   5.570   3.813   3.975 -0.2437  1.0470 -0.1424
   91MOL    C2014600   5.567   3.658   3.969 -0.1357 -0.2089  0.3752
   91MOL    O2114601   5.470   3.604   4.025 -0.4501 -0.2960  0.4172
   91MOL    H2214602   5.445   3.932   3.848 -1.5400  1.5541  1.0157
   91MOL    H2314603   5.369   3.786   3.901  0.3297  0.2238  0.0406
   91MOL    H2414604   5.599   3.833   4.078 -0.3829 -2.4943  0.6635
   91MOL    H2514605   5.653   3.856   3.919 -0.2470  1.1053 -0.1023
   91MOL    C2614606   5.668   3.572   3.899  0.1235  0.5354  0.3431
   91MOL    C2714607   5.614   3.433   3.859 -0.0869 -0.2905  0.0522
   91MOL    C2814608   5.548   3.426   3.721 -0.0008  0.6439  0.4497
   91MOL    O2914609   5.486   3.523   3.685  0.0234  0.4695  0.2533
   91MOL    H3014610   5.750   3.557   3.969 -2.0404 -0.7734  2.7089
   91MOL    H3114611   5.713   3.621   3.813  1.8282 -1.0865  0.3033
   91MOL    H3214612   5.544   3.396   3.934  0.0020 -1.4027 -0.3921
   91MOL    H3314613   5.694   3.358   3.859  0.7979  0.6130 -1.8577
   91MOL    C3414614   5.561   3.298   3.637 -0.0986 -0.2941 -0.5136
   91MOL    C3514615   5.686   3.327   3.538 -0.2204 -0.0438  0.0261
   91MOL    C3614616   5.818   3.269   3.590  0.0251  0.2422 -1.1658
   91MOL    O3714617   5.819   3.218   3.702 -0.0953 -0.1571  0.2804
   91MOL    H3814618   5.459   3.278   3.603 -0.5065 -0.2442  0.6681
   91MOL    H3914619   5.594   3.214   3.697 -2.5096  0.2494  1.6491
   91MOL    H4014620   5.706   3.434   3.535 -4.5005  0.9388  2.2428
   91MOL    H4114621   5.674   3.291   3.435 -2.0079 -0.0794  0.2381
   91MOL    C4214622   5.938   3.277   3.499  0.3347  0.1304  0.0585
   91MOL    C4314623   6.045   3.175   3.543 -0.2652 -0.9131  0.2212
   91MOL    C4414624   6.072   3.076   3.427  0.2968  0.0969  0.3264
   91MOL    O4514625   5.986   3.038   3.349  0.9000  0.3361 -0.6522
   91MOL    H4614626   5.985   3.375   3.512  1.6213 -0.5676  0.7948
   91MOL    H4714627   5.918   3.260   3.393 -0.7573 -0.0588  0.2900
   91MOL    H4814628   6.015   3.116   3.630 -0.0906  0.6500  1.3656
   91MOL    H4914629   6.134   3.227   3.576  0.2834 -1.8272  0.1930
   91MOL    C5014630   6.217   3.031   3.408 -0.1358  0.2578 -0.0322
   91MOL    C5114631   6.228   2.876   3.405  0.2064  0.6029  0.1930
   91MOL    C5214632   6.333   2.821   3.307 -0.0534 -0.0751 -0.4147
   91MOL    O5314633   6.407   2.895   3.245  0.3354  0.1182  0.4235
   91MOL    H5414634   6.287   3.069   3.482  0.5487  0.3231 -0.7041
   91MOL    H5514635   6.259   3.054   3.310  2.6467 -0.3444  0.9713
   91MOL    H5614636   6.131   2.843   3.369  0.9468 -1.4134  0.0041
   91MOL    H5714637   6.238   2.850   3.510  1.9152 -4.6739 -1.1376
   91MOL    C5814638   6.318   2.669   3.285 -0.7265 -0.2850 -0.0052
   91MOL    C5914639   6.441   2.600   3.219  0.0458  0.1141 -0.1374
   91MOL    C6014640   6.552   2.566   3.316  0.5608 -0.3032  0.6095
   91MOL    O6114641   6.565   2.614   3.427  0.1347 -0.1506 -0.2503
   91MOL    H6214642   6.228   2.640   3.232  0.0363 -2.9836  0.1123
   91MOL    H6314643   6.306   2.617   3.380  1.9643 -0.1012  0.4864
   91MOL    H6414644   6.488   2.673   3.153 -1.6096  0.7605 -0.6323
   91MOL    H6514645   6.419   2.507   3.166  0.4783  0.6493 -1.2707
   91MOL    C6614646   6.658   2.471   3.256 -0.4354  0.2867 -0.1307
   91MOL    C6714647   6.650   2.323   3.314  0.0838 -0.2640 -0.4091
   91MOL    C6814648   6.643   2.205   3.212  0.4981  0.2698 -0.3064
   91MOL    O6914649   6.596   2.229   3.102  0.1097  0.0796 -0.5131
   91MOL    H7014650   6.754   2.517   3.275 -0.4384  0.5952 -0.8598
   91MOL    H7114651   6.649   2.472   3.148  1.8465  2.0088 -0.3285
   91MOL    H7214652   6.552   2.311   3.360 -0.4576 -1.0460 -1.7506
   91MOL    H7314653   6.730   2.305   3.386 -1.8178  1.4394  2.2146
   91MOL    C7414654   6.703   2.070   3.258 -0.0484 -0.0391  0.1777
   91MOL    C7514655   6.594   1.976   3.325 -0.2657  1.0257  0.5605
   91MOL    C7614656   6.573   2.006   3.474 -1.2577  0.0370 -0.0448
   91MOL    O7714657   6.618   2.105   3.531  0.3924  0.5065  0.4677
   91MOL    H7814658   6.782   2.093   3.329  1.2328 -0.2122 -1.1695
   91MOL    H7914659   6.755   2.014   3.181 -0.0239 -1.9117  1.5019
   91MOL    H8014660   6.629   1.873   3.333 -1.6717  0.3401 -1.7813
   91MOL    H8114661   6.495   1.972   3.279  1.2796 -2.1188 -2.7538
   91MOL    C8214662   6.497   1.898   3.554  0.0406  0.8377  0.5853
   91MOL    C8314663   6.418   1.957   3.666  0.1375 -0.5724 -0.9395
   91MOL    C8414664   6.272   1.988   3.633  0.4720  0.0701 -0.3957
   91MOL    O8514665   6.228   1.987   3.515 -0.2930 -0.4016 -0.2205
   91MOL    H8614666   6.581   1.853   3.605 -0.4342  0.3295  0.9233
   91MOL    H8714667   6.443   1.827   3.491  1.4812 -0.1474  0.4505
   91MOL    H8814668   6.465   2.049   3.700 -1.7444  0.4365 -1.0270
   91MOL    H8914669   6.417   1.885   3.748  1.0338 -1.9216 -2.0977
   91MOL    C9014670   6.173   2.014   3.743  0.0878  0.5786  0.3210
   91MOL    C9114671   6.045   2.086   3.707 -0.2788  0.7171  0.3581
   91MOL    C9214672   5.929   1.988   3.715  0.6815 -0.3938 -0.3666
   91MOL    O9314673   5.904   1.925   3.819  0.4622 -0.0886 -0.4962
   91MOL    H9414674   6.222   2.074   3.819  0.9698 -0.8272  0.8817
   91MOL    H9514675   6.154   1.917   3.790 -1.2966  0.4656 -0.4415
   91MOL    H9614676   6.049   2.128   3.606 -1.2330 -0.4860 -0.2053
   91MOL    H9714677   6.038   2.166   3.781  0.2706 -0.9066  2.1931
   91MOL    C9814678   5.831   1.991   3.602 -0.1031 -0.8816 -0.6202
   91MOL    C9914679   5.747   1.864   3.590  0.4349 -0.3916 -0.2591
   91MOL   C10014680   5.599   1.893   3.590  0.1803  0.4658 -0.1760
   91MOL   O10114681   5.538   1.920   3.695  0.6030  0.2973 -0.3198
   91MOL   H10214682   5.896   1.997   3.514 -0.7782  0.4060 -1.0425
   91MOL   H10314683   5.777   2.085   3.603 -1.2834 -1.5661  0.1799
   91MOL   H10414684   5.771   1.780   3.654 -2.1551 -0.7394  0.3202
   91MOL   H10514685   5.766   1.835   3.487  0.7360 -0.9630 -0.0434
   91MOL   C10614686   5.533   1.902   3.449 -0.2039  0.3541 -0.6594
   91MOL   C10714687   5.399   1.839   3.452 -0.1218  0.2986  0.1638
   91MOL   C10814688   5.285   1.939   3.473  0.4776  0.2060  0.2215
   91MOL   O10914689   5.312   2.058   3.455 -0.3378 -0.3352 -0.2126
   91MOL   H11014690   5.600   1.855   3.377  1.1099  2.3177 -0.7675
   91MOL   H11114691   5.527   2.006   3.420 -0.5520  1.0207  1.7439
   91MOL   H11214692   5.381   1.761   3.526  2.2946 -1.2452 -0.7896
   91MOL   H11314693   5.362   1.790   3.361 -0.4053 -1.7510  1.3369
   91MOL   C11414694   5.149   1.891   3.517  0.1382 -0.7678  0.2121
   91MOL   C11514695   5.044   1.998   3.457 -0.0085 -0.4106  0.9551
   91MOL   C11614696   4.906   1.942   3.468  0.6047  0.2583 -0.0844
   91MOL   O11714697   4.890   1.821   3.480 -0.5912  0.0785  0.1711
   91MOL   H11814698   5.149   1.881   3.626 -1.7275 -1.6723  0.1557
   91MOL   H11914699   5.133   1.788   3.483 -0.6325 -0.6139  0.0984
   91MOL   H12014700   5.070   2.025   3.354  3.7578  1.8957  2.4100
   91MOL   H12114701   5.044   2.085   3.522 -0.7176  0.5156 -0.2422
   91MOL   C12214702   4.777   2.035   3.460 -0.2140  0.3726 -0.5713
   91MOL   C12314703   4.784   2.131   3.578 -0.0932  0.8582 -0.1633
   91MOL   C12414704   4.801   2.275   3.535  0.2642  0.4166  0.2624
   91MOL   O12514705   4.918   2.320   3.545 -0.4132  0.2837 -0.2123
   91MOL   H12614706   4.691   1.972   3.484  1.1445 -0.1136  3.2285
   91MOL   H12714707   4.768   2.093   3.368  0.5719 -2.9131 -2.8106
   91MOL   H12814708   4.857   2.094   3.651  1.4541  1.6419 -1.2894
   91MOL   H12914709   4.693   2.125   3.637  1.1560  0.0198  1.7349
   91MOL   C13014710   4.675   2.360   3.486 -0.2706  0.8245 -0.0671
   91MOL   C13114711   4.724   2.498   3.446  0.3327  0.5355  0.1728
   91MOL   C13214712   4.644   2.611   3.497 -0.5426 -0.3137 -0.1759
   91MOL   O13314713   4.582   2.609   3.604 -0.3663 -0.1588  0.2428
   91MOL   H13414714   4.604   2.365   3.568 -0.2863  2.5979 -0.1685
   91MOL   H13514715   4.626   2.313   3.401 -3.2175 -0.7733  2.4372
   91MOL   H13614716   4.743   2.502   3.338 -2.4513 -2.0015 -0.4760
   91MOL   H13714717   4.819   2.524   3.492  0.5281 -1.6530  1.0656
   91MOL   C13814718   4.639   2.746   3.416  0.0693  0.1922  0.7087
   91MOL   C13914719   4.760   2.823   3.467 -0.4125 -0.1698 -0.4894
   91MOL   C14014720   4.724   2.942   3.550  0.3170 -0.1195 -0.5008
   91MOL   O14114721   4.622   3.006   3.526  0.3576  0.6635  0.4868
   91MOL   H14214722   4.543   2.795   3.433  0.1730  0.0963  1.5533
   91MOL   H14314723   4.648   2.718   3.311 -1.3948 -0.6760  0.7878
   91MOL   H14414724   4.810   2.853   3.374  0.0116 -2.4510 -1.0273
   91MOL   H14514725   4.825   2.767   3.534 -1.6094 -0.9722  0.0053
   91MOL   C14614726   4.817   2.989   3.654  0.4466 -0.2399  0.0412
   91MOL   C14714727   4.818   3.141   3.676 -0.3950  0.2243  0.2497
   91MOL   C14814728   4.753   3.190   3.805  0.0477 -0.1220 -0.0817
   91MOL   O14914729   4.685   3.113   3.876 -0.5543  0.0485  0.1486
   91MOL   H15014730   4.918   2.956   3.631  1.0811  2.0726 -0.5983
   91MOL   H15114731   4.789   2.944   3.749 -0.7217 -0.3761 -0.3555
   91MOL   H15214732   4.782   3.202   3.593  0.2813  0.7251  0.3210
   91MOL   H15314733   4.923   3.164   3.691 -0.3406  0.0626  0.1076
   91MOL   C15414734   4.757   3.339   3.832 -0.5708  0.6818  0.6773
   91MOL   C15514735   4.678   3.387   3.957 -0.5595  0.0238 -0.0720
   91MOL   C15614736   4.699   3.534   3.988  0.2581  0.9852  1.1103
   91MOL   O15714737   4.720   3.603   3.888  0.1780  0.0307 -0.5084
   91MOL   H15814738   4.728   3.388   3.739 -0.3429 -0.4181  0.0099
   91MOL   H15914739   4.864   3.359   3.843 -0.2061 -0.0398 -1.2248
   91MOL   H16014740   4.703   3.323   4.041 -2.0696 -1.9868 -1.0935
   91MOL   H16114741   4.574   3.370   3.928 -0.9112  1.8391  0.0713
   91MOL   H16214742   4.696   3.570   4.090  0.7117 -0.7475  1.7591
   92MOL     C114743   0.184   1.666   5.953  0.1235  0.3735 -0.4972
   92MOL     C214744   0.060   1.651   5.866 -0.6380 -0.1139  0.0065
   92MOL     C314745   7.850   1.518   5.864 -0.0747  0.3658  0.0785
   92MOL     O414746   0.007   1.446   5.959 -0.3055  0.3505 -0.2601
   92MOL     H514747   0.145   1.663   6.055 -2.2552  1.4078 -1.3547
   92MOL     H614748   0.256   1.593   5.917 -1.7502 -1.2272 -1.0630
   92MOL     H714749   0.072   1.675   5.760  1.7322 -1.1967 -0.0024
   92MOL     H814750   7.834   1.715   5.890 -0.6147 -0.6898  1.6449
   92MOL     H914751   0.237   1.760   5.941 -0.3899  0.4943 -1.9312
   92MOL    C1014752   7.766   1.479   5.751 -0.3575  0.1937  0.0267
   92MOL    C1114753   7.704   1.336   5.759  0.5618  0.1869 -0.2710
   92MOL    C1214754   7.557   1.327   5.790 -0.2002 -0.7399 -0.5646
   92MOL    O1314755   7.481   1.412   5.752 -0.2106  0.1703 -0.2963
   92MOL    H1414756   7.828   1.478   5.661  0.7921  0.9591  0.7993
   92MOL    H1514757   7.686   1.552   5.745 -0.0487  0.3998 -1.9606
   92MOL    H1614758   7.758   1.280   5.835 -0.8959  0.2635  0.8422
   92MOL    H1714759   7.725   1.275   5.671  0.0731  0.1799 -0.3848
   92MOL    C1814760   7.497   1.200   5.846 -0.6304  0.5317  0.0954
   92MOL    C1914761   7.372   1.222   5.925  0.0275 -0.2493 -0.8681
   92MOL    C2014762   7.332   1.098   6.000  0.4211 -0.6661 -0.2258
   92MOL    O2114763   7.281   1.003   5.939 -0.1344  0.2918 -0.2541
   92MOL    H2214764   7.570   1.134   5.894 -0.4687  0.1645 -0.6576
   92MOL    H2314765   7.463   1.150   5.756  2.0373 -0.9774 -0.1466
   92MOL    H2414766   7.297   1.255   5.853  1.4019  1.8596 -1.3915
   92MOL    H2514767   7.369   1.309   5.992  0.0141  0.8800 -2.3142
   92MOL    C2614768   7.332   1.100   6.153 -0.5068 -0.6648 -0.3638
   92MOL    C2714769   7.290   0.964   6.218  0.0544 -0.8629 -0.7273
   92MOL    C2814770   7.285   0.969   6.368 -0.0922  1.0874 -0.3462
   92MOL    O2914771   7.246   1.073   6.422 -0.0050  0.0398 -0.0817
   92MOL    H3014772   7.256   1.173   6.180  1.3837  1.2196 -0.0209
   92MOL    H3114773   7.430   1.128   6.192 -0.6019  0.3561 -0.8615
   92MOL    H3214774   7.351   0.884   6.177 -1.1859 -1.3784 -1.6037
   92MOL    H3314775   7.188   0.946   6.182 -0.1785  2.2680 -1.7786
   92MOL    C3414776   7.323   0.841   6.437  0.4540 -0.0226 -0.1956
   92MOL    C3514777   7.299   0.829   6.590  0.9160 -0.0490  0.2203
   92MOL    C3614778   7.418   0.797   6.670 -0.2748  1.3495  0.3976
   92MOL    O3714779   7.519   0.753   6.612 -0.1196  0.3826  0.5593
   92MOL    H3814780   7.430   0.827   6.422  0.2093 -2.2196 -0.0725
   92MOL    H3914781   7.266   0.762   6.388 -1.5426 -0.4551  2.7308
   92MOL    H4014782   7.224   0.756   6.618 -0.1012  0.8302 -0.1629
   92MOL    H4114783   7.268   0.929   6.622 -0.3557 -1.4039  3.4399
   92MOL    C4214784   7.408   0.809   6.820  0.5601 -0.0752 -0.0430
   92MOL    C4314785   7.362   0.677   6.897  0.9825 -0.1452  0.0919
   92MOL    C4414786   7.215   0.649   6.912  0.6107  0.2725 -0.2218
   92MOL    O4514787   7.129   0.733   6.889 -0.3289 -0.0153  0.4002
   92MOL    H4614788   7.349   0.898   6.843 -0.4291 -0.3794 -1.3144
   92MOL    H4714789   7.511   0.831   6.846  0.6758 -2.2239  1.4753
   92MOL    H4814790   7.407   0.681   6.996  3.4943 -0.6663 -1.0033
   92MOL    H4914791   7.412   0.600   6.838 -1.4979 -0.3654 -1.8115
   92MOL    C5014792   7.182   0.509   6.961 -0.9307 -0.5213 -0.4694
   92MOL    C5114793   7.057   0.505   7.045 -0.9246 -0.2460 -0.4196
   92MOL    C5214794   7.085   0.546   7.191 -0.2219 -0.2540  0.2841
   92MOL    O5314795   7.183   0.502   7.255 -0.4474 -0.6200 -0.1192
   92MOL    H5414796   7.269   0.459   7.004 -0.5834  0.3226 -0.1878
   92MOL    H5514797   7.165   0.457   6.867  0.9981  0.0058 -1.1372
   92MOL    H5614798   7.024   0.401   7.039 -0.4166 -0.3373 -1.7974
   92MOL    H5714799   6.975   0.573   7.019 -0.5391  0.6541  0.6844
   92MOL    C5814800   6.981   0.641   7.249  0.2647  0.0603 -0.1211
   92MOL    C5914801   7.002   0.670   7.406 -0.3706  0.4842 -0.2446
   92MOL    C6014802   6.901   0.587   7.487  0.0390 -0.3831  0.5613
   92MOL    O6114803   6.848   0.485   7.448  0.2700 -0.0913 -0.1073
   92MOL    H6214804   6.887   0.587   7.238  0.1920 -0.0370  0.8679
   92MOL    H6314805   6.971   0.733   7.192 -3.6240 -0.3694 -0.2756
   92MOL    H6414806   7.008   0.777   7.426  0.4519  0.5654 -0.8748
   92MOL    H6514807   7.100   0.644   7.447 -0.3032 -0.5170 -1.0415
   92MOL    C6614808   6.887   0.634   7.631 -0.0704 -0.4304 -0.6803
   92MOL    C6714809   6.785   0.554   7.720 -0.6849 -0.4361  0.6713
   92MOL    C6814810   6.648   0.626   7.723 -0.1214  0.1594 -0.2221
   92MOL    O6914811   6.594   0.666   7.622  0.4405  0.7171  0.3063
   92MOL    H7014812   6.866   0.740   7.646  1.7612 -0.2194  0.5127
   92MOL    H7114813   6.986   0.622   7.674 -0.2972  1.0068  0.2767
   92MOL    H7214814   6.825   0.542   7.821  0.2976 -0.6869  0.2498
   92MOL    H7314815   6.760   0.456   7.679 -1.0289 -0.6091  1.2818
   92MOL    C7414816   6.582   0.629   0.002  0.2387  0.4345 -0.1970
   92MOL    C7514817   6.448   0.711   0.008  0.1799 -0.9073 -0.1236
   92MOL    C7614818   6.461   0.854   0.057 -0.2632 -0.1413  0.5875
   92MOL    O7714819   6.571   0.904   0.058  0.8295 -0.4681 -0.6843
   92MOL    H7814820   6.641   0.653   0.090  1.2943 -1.2554 -0.4341
   92MOL    H7914821   6.581   0.521   0.016  3.1018  0.6675  2.2926
   92MOL    H8014822   6.376   0.673   0.080  0.1404 -0.4780  0.0638
   92MOL    H8114823   6.393   0.713   7.773 -0.4449 -1.4104  0.2312
   92MOL    C8214824   6.338   0.917   0.124 -0.4107 -0.1059 -0.1584
   92MOL    C8314825   6.323   1.068   0.111 -0.0550  0.2434  0.4405
   92MOL    C8414826   6.393   1.152   0.222  0.3432  0.6676 -0.9158
   92MOL    O8514827   6.387   1.126   0.344  0.5211 -0.0037  0.4010
   92MOL    H8614828   6.347   0.896   0.230 -2.4556 -0.9954 -0.1500
   92MOL    H8714829   6.247   0.866   0.093  0.0741 -1.4287  0.5550
   92MOL    H8814830   6.222   1.107   0.099 -0.4485 -0.9358 -0.1777
   92MOL    H8914831   6.373   1.096   0.018 -0.1300  0.7116  0.5414
   92MOL    C9014832   6.474   1.275   0.176  0.2691  0.1536 -0.3874
   92MOL    C9114833   6.545   1.347   0.289 -0.1160 -0.3284  0.3754
   92MOL    C9214834   6.671   1.271   0.348  0.4612  0.9592 -0.2711
   92MOL    O9314835   6.754   1.214   0.280 -0.1063  0.4145 -0.4018
   92MOL    H9414836   6.409   1.348   0.128 -0.6046  0.6158  1.4679
   92MOL    H9514837   6.548   1.245   0.102 -0.3490  0.8643 -1.3080
   92MOL    H9614838   6.469   1.367   0.364  0.4771 -0.3782  0.9928
   92MOL    H9714839   6.581   1.443   0.250  0.3161 -0.0818  1.3768
   92MOL    C9814840   6.671   1.262   0.498  0.4756  0.3195 -0.4194
   92MOL    C9914841   6.698   1.113   0.548  0.6201 -0.3792 -0.2691
   92MOL   C10014842   6.608   1.082   0.668  0.4819 -0.1837  0.4529
   92MOL   O10114843   6.562   1.168   0.746 -0.2338  0.2803  0.1834
   92MOL   H10214844   6.578   1.300   0.541  1.1871  2.8905 -1.0772
   92MOL   H10314845   6.755   1.323   0.531  1.5334 -1.5113  0.3042
   92MOL   H10414846   6.794   1.105   0.599 -0.1543 -1.2774  1.0771
   92MOL   H10514847   6.686   1.038   0.469  1.1349 -0.1991 -0.5244
   92MOL   C10614848   6.590   0.925   0.682  0.0236  0.4089 -0.5965
   92MOL   C10714849   6.713   0.855   0.747  0.4023 -0.2028 -0.3613
   92MOL   C10814850   6.697   0.706   0.740  0.4142 -0.1113 -0.0993
   92MOL   O10914851   6.621   0.638   0.666  0.0873 -0.0377 -0.2495
   92MOL   H11014852   6.545   0.876   0.595 -0.1094 -0.5673  0.0124
   92MOL   H11114853   6.508   0.916   0.753  0.4790  1.5348  0.0869
   92MOL   H11214854   6.722   0.881   0.853  0.0381 -0.3871 -0.2815
   92MOL   H11314855   6.808   0.867   0.695 -0.5369 -1.4275 -2.4050
   92MOL   C11414856   6.799   0.631   0.827  0.0983 -0.2082  0.1894
   92MOL   C11514857   6.747   0.506   0.889 -0.5960  0.3880  0.3625
   92MOL   C11614858   6.794   0.376   0.828  0.0143 -0.3280 -0.3548
   92MOL   O11714859   6.732   0.315   0.737  0.1413 -0.6769 -1.0618
   92MOL   H11814860   6.844   0.704   0.894  1.2624 -0.0855 -0.7301
   92MOL   H11914861   6.887   0.628   0.764  0.7414  1.6337  0.9781
   92MOL   H12014862   6.639   0.511   0.904 -0.4745  0.1887  1.3624
   92MOL   H12114863   6.780   0.495   0.992  0.9398  0.1666 -0.1343
   92MOL   C12214864   6.920   0.315   0.884 -0.4233  0.6769 -0.1290
   92MOL   C12314865   6.934   0.163   0.853 -0.7842 -0.1394  0.1942
   92MOL   C12414866   7.061   0.136   0.776  0.5449  0.2242  0.2714
   92MOL   O12514867   7.165   0.191   0.812  0.1814  0.3778 -0.2324
   92MOL   H12614868   6.945   0.331   0.988  0.6276 -0.3323 -0.2217
   92MOL   H12714869   6.988   0.383   0.832  0.5766  1.3040  1.9770
   92MOL   H12814870   6.856   0.127   0.786  0.7425 -1.5414 -0.8519
   92MOL   H12914871   6.931   0.105   0.946  2.0382 -0.1725  0.3012
   92MOL   C13014872   7.068   0.039   0.662 -0.3605  0.0069 -0.2277
   92MOL   C13114873   7.181   0.062   0.561 -0.3642 -0.5854 -0.2593
   92MOL   C13214874   7.255   7.784   0.557 -0.3648  0.2891  0.3825
   92MOL   O13314875   7.196   7.678   0.547 -0.0821 -0.6404  0.2686
   92MOL   H13414876   6.972   0.045   0.611 -0.8348  0.7823  0.7355
   92MOL   H13514877   7.076   7.800   0.708  1.2025  0.9514  1.6096
   92MOL   H13614878   7.244   0.142   0.601 -0.6153  0.2186 -1.4323
   92MOL   H13714879   7.143   0.074   0.459 -1.7231  0.4519  0.3503
   92MOL   C13814880   7.403   7.796   0.546 -0.9904  0.8985  0.4504
   92MOL   C13914881   7.481   7.820   0.680  0.1814  0.4263  0.0906
   92MOL   C14014882   7.517   7.691   0.759 -0.2908  0.3027  0.0647
   92MOL   O14114883   7.593   7.608   0.709 -0.3308 -0.6681  0.3228
   92MOL   H14214884   7.443   0.018   0.485  0.0574  0.2462  0.2515
   92MOL   H14314885   7.442   7.708   0.495  1.1852  1.2223  1.5018
   92MOL   H14414886   7.433   0.029   0.750 -0.6093 -0.4742  0.4342
   92MOL   H14514887   7.574   0.013   0.654  0.2932  0.5856  0.8127
   92MOL   C14614888   7.464   7.691   0.901 -0.1077 -0.0420 -0.5968
   92MOL   C14714889   7.330   7.625   0.922  0.2512  0.7396 -0.0814
   92MOL   C14814890   7.253   7.707   1.023 -0.1078  0.2874 -0.7942
   92MOL   O14914891   7.204   7.815   0.995 -0.0535  0.5365  0.1454
   92MOL   H15014892   7.448   7.796   0.926  0.0627  0.4622 -2.4872
   92MOL   H15114893   7.540   7.660   0.973 -0.2218  1.5160  0.2299
   92MOL   H15214894   7.348   7.526   0.964 -2.5444  0.2654  0.0718
   92MOL   H15314895   7.274   7.620   0.828  0.3890  0.4007 -0.1446
   92MOL   C15414896   7.269   7.672   1.173 -0.6000 -0.0515 -0.0553
   92MOL   C15514897   7.165   7.567   1.224  0.3605 -0.0059  0.3588
   92MOL   C15614898   7.240   7.435   1.252 -0.0536  0.3756  0.3347
   92MOL   O15714899   7.320   7.381   1.175  0.4357 -0.3579 -0.3989
   92MOL   H15814900   7.252   7.771   1.216  0.7797  0.7797 -1.3902
   92MOL   H15914901   7.370   7.646   1.204 -0.2206  1.8072  0.3807
   92MOL   H16014902   7.093   7.545   1.146  1.4946  3.6695 -1.8707
   92MOL   H16114903   7.117   7.611   1.311  0.2601 -0.4411  0.5216
   92MOL   H16214904   7.234   7.399   1.355  0.9073 -1.5268 -0.2499
   93MOL     C114905   4.697   6.516   3.851  0.3835 -0.0919 -0.8049
   93MOL     C214906   4.812   6.508   3.957  0.0516  0.3907  0.0965
   93MOL     C314907   4.919   6.610   3.937 -0.3190  0.0952  0.1304
   93MOL     O414908   4.929   6.686   3.842 -0.4104 -0.3809  0.2615
   93MOL     H514909   4.665   6.619   3.833  3.7454  1.1992  0.2593
   93MOL     H614910   4.742   6.494   3.755  0.7706 -1.6893 -0.2608
   93MOL     H714911   4.865   6.413   3.961  0.7144  0.7778  0.7622
   93MOL     H814912   4.765   6.523   4.055 -0.2981 -0.0383 -0.0052
   93MOL     H914913   4.619   6.449   3.887  0.4226  0.8076  1.0613
   93MOL    C1014914   5.011   6.605   4.050  0.2409 -0.5041  0.0407
   93MOL    C1114915   5.134   6.700   4.039  0.3048  0.1588 -0.2846
   93MOL    C1214916   5.111   6.835   4.105  0.4343 -0.5558  0.0690
   93MOL    O1314917   4.991   6.873   4.126  0.1830  0.5578  0.0564
   93MOL    H1414918   5.059   6.508   4.058 -2.9352 -2.0643  0.9977
   93MOL    H1514919   4.959   6.600   4.146  0.7602  0.7480  0.3996
   93MOL    H1614920   5.164   6.717   3.936 -1.8082  0.0750 -0.9514
   93MOL    H1714921   5.213   6.650   4.094  1.2580  1.0583 -0.8306
   93MOL    C1814922   5.227   6.921   4.154 -0.2565  0.9813  0.4455
   93MOL    C1914923   5.187   7.067   4.188  0.5721  0.5489  0.2992
   93MOL    C2014924   5.263   7.132   4.298  0.0836 -0.5945  0.2599
   93MOL    O2114925   5.355   7.076   4.349  0.6341 -0.2905  0.0513
   93MOL    H2214926   5.303   6.929   4.076  0.8499  0.8417  1.4914
   93MOL    H2314927   5.271   6.854   4.228  0.1768 -1.4873 -1.9435
   93MOL    H2414928   5.079   7.068   4.203  0.6361 -0.2278  0.8265
   93MOL    H2514929   5.208   7.128   4.100 -1.3946 -0.9299 -1.2160
   93MOL    C2614930   5.227   7.275   4.348 -0.3632 -0.5359 -0.0969
   93MOL    C2714931   5.350   7.357   4.406 -0.1310  0.3423 -0.6688
   93MOL    C2814932   5.332   7.376   4.556  0.3118 -0.4409  0.4860
   93MOL    O2914933   5.254   7.462   4.604  0.0409  0.0204  0.3189
   93MOL    H3014934   5.135   7.289   4.404  0.2760  1.9013  0.3916
   93MOL    H3114935   5.203   7.319   4.250 -0.0559 -1.4095 -0.5684
   93MOL    H3214936   5.347   7.460   4.369  0.4700  0.1357 -1.3061
   93MOL    H3314937   5.447   7.329   4.366 -0.0321 -0.1147 -0.1099
   93MOL    C3414938   5.414   7.284   4.640 -0.0932  0.7360 -0.0039
   93MOL    C3514939   5.457   7.343   4.774  0.6830  0.3411 -0.0444
   93MOL    C3614940   5.609   7.370   4.781  0.0291 -0.3362 -0.0543
   93MOL    O3714941   5.655   7.465   4.718  0.2860 -0.1220 -0.6471
   93MOL    H3814942   5.491   7.240   4.576 -0.2182  0.7208 -0.1453
   93MOL    H3914943   5.344   7.203   4.660  0.6137  0.3962  1.1203
   93MOL    H4014944   5.431   7.274   4.854  0.9710  1.0053  0.6277
   93MOL    H4114945   5.400   7.435   4.787  1.6201  0.8955  0.1681
   93MOL    C4214946   5.685   7.270   4.858 -0.3139  0.2984  0.5016
   93MOL    C4314947   5.834   7.306   4.888  0.1044 -0.1517  0.4175
   93MOL    C4414948   5.865   7.381   5.005  0.4610 -0.1570 -1.0020
   93MOL    O4514949   5.780   7.449   5.070  0.1099 -0.3449  0.5113
   93MOL    H4614950   5.668   7.169   4.822  0.9772 -0.0345  0.7998
   93MOL    H4714951   5.636   7.268   4.955  0.6862  1.6977  1.0562
   93MOL    H4814952   5.881   7.359   4.805  0.1125  1.2149  1.2693
   93MOL    H4914953   5.892   7.214   4.895  0.8606  0.0125 -2.7487
   93MOL    C5014954   6.012   7.388   5.044 -0.3009  0.1844 -0.0815
   93MOL    C5114955   6.027   7.352   5.197 -0.2000  0.4854  0.1274
   93MOL    C5214956   6.070   7.209   5.205  0.0765  0.4882 -0.1687
   93MOL    O5314957   6.052   7.136   5.107  0.0180 -0.0160 -0.0500
   93MOL    H5414958   6.036   7.494   5.031  2.6373 -0.3438  0.7275
   93MOL    H5514959   6.085   7.338   4.981 -2.6491 -2.0649 -1.0995
   93MOL    H5614960   5.931   7.370   5.245 -0.9352  1.1688 -1.5660
   93MOL    H5714961   6.094   7.422   5.247 -1.4043  0.5546  1.6768
   93MOL    C5814962   6.110   7.153   5.340  0.1442  0.0013 -0.7225
   93MOL    C5914963   6.149   6.997   5.349  0.2299  0.7627  0.1941
   93MOL    C6014964   6.054   6.902   5.427 -0.0326 -0.5289  0.0048
   93MOL    O6114965   5.978   6.944   5.515 -0.5154  0.0691 -0.1892
   93MOL    H6214966   6.046   7.182   5.423 -0.1699 -2.2736 -0.1533
   93MOL    H6314967   6.200   7.215   5.353  1.2406 -1.5590 -0.7223
   93MOL    H6414968   6.244   6.989   5.402  0.2553 -1.3465 -0.0928
   93MOL    H6514969   6.165   6.961   5.247 -1.3509  1.1981 -0.2188
   93MOL    C6614970   6.043   6.756   5.388 -0.1480 -0.2522 -0.5121
   93MOL    C6714971   6.157   6.694   5.311 -0.0447  0.6341  0.1451
   93MOL    C6814972   6.182   6.550   5.349  0.3360  0.3868  0.4906
   93MOL    O6914973   6.155   6.502   5.459  0.2872  0.1681  0.3410
   93MOL    H7014974   5.951   6.738   5.332 -0.4628 -1.0281  0.2411
   93MOL    H7114975   6.009   6.700   5.475  1.5622  2.0408  1.7037
   93MOL    H7214976   6.258   6.731   5.330  0.2889  0.7583 -1.8140
   93MOL    H7314977   6.151   6.681   5.203 -1.1699  0.7067  0.1937
   93MOL    C7414978   6.256   6.458   5.249  0.3577  0.5180 -0.8036
   93MOL    C7514979   6.190   6.319   5.247  0.3934 -0.0350  1.1154
   93MOL    C7614980   6.233   6.220   5.354 -0.6088 -0.0074  0.2501
   93MOL    O7714981   6.328   6.237   5.424 -0.2696 -0.0693  0.2305
   93MOL    H7814982   6.359   6.449   5.284 -0.3701  0.1258  1.3520
   93MOL    H7914983   6.259   6.492   5.146 -0.8575  1.7677 -0.4451
   93MOL    H8014984   6.213   6.280   5.147  1.4430  0.4866  1.1408
   93MOL    H8114985   6.083   6.340   5.251  0.5528  0.8668  0.8090
   93MOL    C8214986   6.156   6.087   5.370  0.3596  0.1411  0.2614
   93MOL    C8314987   6.239   5.975   5.435  0.1124  0.6846  0.4424
   93MOL    C8414988   6.272   5.856   5.344 -0.7844  0.2828 -0.4101
   93MOL    O8514989   6.273   5.867   5.223  0.2263  0.1814 -0.1185
   93MOL    H8614990   6.102   6.075   5.276  0.2234  0.8402  0.2418
   93MOL    H8714991   6.073   6.114   5.435 -0.8621 -1.8775 -0.4513
   93MOL    H8814992   6.189   5.946   5.528  0.0798 -0.4211  0.0866
   93MOL    H8914993   6.334   6.011   5.474  2.1982 -1.0154 -2.8351
   93MOL    C9014994   6.311   5.722   5.412 -0.4526 -0.0084 -0.7350
   93MOL    C9114995   6.466   5.720   5.416  0.1267 -0.3900 -0.5236
   93MOL    C9214996   6.535   5.637   5.306 -0.0120 -0.6506 -0.3258
   93MOL    O9314997   6.486   5.548   5.239 -0.8201  0.1925  0.0191
   93MOL    H9414998   6.270   5.635   5.361 -0.5791 -1.3632  1.6104
   93MOL    H9514999   6.272   5.703   5.511  1.6529 -1.6071 -0.1755
   93MOL    H9615000   6.515   5.683   5.506 -1.2254 -1.9069 -0.3904
   93MOL    H9715001   6.502   5.823   5.421 -0.0231 -0.3028 -1.1872
   93MOL    C9815002   6.679   5.674   5.286 -0.0271  0.1152 -0.3056
   93MOL    C9915003   6.767   5.594   5.188 -0.6440 -0.5369 -0.2108
   93MOL   C10015004   6.857   5.499   5.258 -0.5795  0.7284 -0.5501
   93MOL   O10115005   6.852   5.377   5.241  0.5430 -0.3752  0.3511
   93MOL   H10215006   6.718   5.675   5.388 -1.3911 -0.3491  0.2317
   93MOL   H10315007   6.666   5.771   5.238 -0.2480  2.2374  3.8122
   93MOL   H10415008   6.832   5.664   5.135 -1.1595 -0.9712 -1.4444
   93MOL   H10515009   6.700   5.546   5.115  0.1561  1.4565 -2.3276
   93MOL   C10615010   6.958   5.559   5.361 -0.6203  0.2758  0.5215
   93MOL   C10715011   7.095   5.497   5.343  0.0342  0.1974  0.8643
   93MOL   C10815012   7.181   5.581   5.249 -0.3340  0.0296  0.7079
   93MOL   O10915013   7.129   5.643   5.156  0.0442 -0.4309  0.5630
   93MOL   H11015014   6.920   5.519   5.455 -0.1147  1.7343  1.3577
   93MOL   H11115015   6.960   5.668   5.357  0.5262  0.2106 -2.6337
   93MOL   H11215016   7.096   5.395   5.304  0.2738  0.1278  1.0526
   93MOL   H11315017   7.152   5.499   5.436  1.6414 -0.0980 -0.0977
   93MOL   C11415018   7.327   5.591   5.274 -0.3468 -0.0050 -0.0124
   93MOL   C11515019   7.410   5.689   5.187 -0.0239 -0.3728  0.1200
   93MOL   C11615020   7.473   5.620   5.063 -0.7688 -0.5259  1.3389
   93MOL   O11715021   7.429   5.513   5.025 -0.3378 -0.1133 -0.4837
   93MOL   H11815022   7.366   5.492   5.251  0.8400  0.8280 -1.7147
   93MOL   H11915023   7.349   5.604   5.380 -0.0283  0.9286 -0.1867
   93MOL   H12015024   7.484   5.727   5.258 -2.9266  3.6352  1.2258
   93MOL   H12115025   7.347   5.774   5.160  1.4405  0.6715 -0.0872
   93MOL   C12215026   7.587   5.685   4.986  0.3583  0.0556  0.1530
   93MOL   C12315027   7.662   5.607   4.878 -0.0651 -0.2932  0.6346
   93MOL   C12415028   7.638   5.667   4.743  0.4823  0.8960  0.4098
   93MOL   O12515029   7.730   5.708   4.666  0.0180 -0.1888  0.2313
   93MOL   H12615030   7.653   5.713   5.068 -0.9714 -4.8553  3.0831
   93MOL   H12715031   7.545   5.778   4.946 -0.0882 -0.7957 -1.4191
   93MOL   H12815032   7.636   5.501   4.874  0.0267 -0.3287  0.9706
   93MOL   H12915033   7.766   5.616   4.911  0.4112 -0.3054 -0.8037
   93MOL   C13015034   7.489   5.674   4.703 -0.2180  0.5535  0.5681
   93MOL   C13115035   7.475   5.672   4.549  0.0947 -0.4967  0.5711
   93MOL   C13215036   7.329   5.648   4.520  0.2743  0.1353 -0.7347
   93MOL   O13315037   7.256   5.567   4.578  0.1830  0.3345  0.7781
   93MOL   H13415038   7.444   5.763   4.748 -1.9021  0.2237 -0.4192
   93MOL   H13515039   7.428   5.592   4.740  1.3019 -0.6221  0.4945
   93MOL   H13615040   7.530   5.589   4.504 -3.3003 -2.5415  0.0676
   93MOL   H13715041   7.507   5.770   4.514 -0.3465 -0.4319  0.3506
   93MOL   C13815042   7.273   5.751   4.415  0.3528  0.8740 -0.3356
   93MOL   C13915043   7.120   5.732   4.379 -0.4440  0.3725 -0.5797
   93MOL   C14015044   7.034   5.850   4.393 -0.1554 -0.4220 -0.0062
   93MOL   O14115045   7.079   5.952   4.445 -0.5220  0.3698  0.8147
   93MOL   H14215046   7.337   5.749   4.327 -1.2319 -0.8812 -1.5146
   93MOL   H14315047   7.280   5.845   4.469 -1.6155 -0.5695  2.6323
   93MOL   H14415048   7.066   5.650   4.428 -0.5966  1.5381  1.2656
   93MOL   H14515049   7.116   5.711   4.272 -1.7920  1.5013 -0.7763
   93MOL   C14615050   6.894   5.837   4.333 -0.1747 -0.5636  0.1227
   93MOL   C14715051   6.901   5.852   4.179 -0.2850 -0.4763  0.7414
   93MOL   C14815052   6.855   5.982   4.113 -0.5596  0.8256 -1.5342
   93MOL   O14915053   6.801   6.069   4.181 -0.3924  0.6454 -0.1515
   93MOL   H15015054   6.828   5.916   4.368 -1.8646 -2.2274  0.7694
   93MOL   H15115055   6.852   5.738   4.348 -0.7455 -0.4356 -0.6019
   93MOL   H15215056   6.853   5.763   4.139 -2.5345  1.0494 -0.1055
   93MOL   H15315057   7.003   5.835   4.146 -0.2659 -0.2735  0.6896
   93MOL   C15415058   6.894   6.004   3.963 -0.3336  0.4398  0.0725
   93MOL   C15515059   6.822   6.124   3.906  0.5125  0.4270  0.0477
   93MOL   C15615060   6.906   6.252   3.901 -0.6743 -0.4450 -0.3527
   93MOL   O15715061   7.004   6.256   3.828 -0.2749 -0.1887  0.0433
   93MOL   H15815062   6.870   5.916   3.903  0.3018 -0.9806  1.8604
   93MOL   H15915063   7.003   6.008   3.967 -0.3957  1.3845  1.3635
   93MOL   H16015064   6.734   6.145   3.967  1.0008 -2.1878  1.6783
   93MOL   H16115065   6.765   6.097   3.816  0.1498 -0.5819  0.5790
   93MOL   H16215066   6.870   6.328   3.971 -0.3560 -0.0469 -0.6166
   94MOL     C115067   3.253   0.114   1.348 -0.5808  0.1221  0.0575
   94MOL     C215068   3.254   7.843   1.435  0.2166  0.2621  0.3634
   94MOL     C315069   3.302   7.721   1.356 -0.2051 -0.0379 -0.4588
   94MOL     O415070   3.265   7.703   1.239  0.3914  0.2458  0.6100
   94MOL     H515071   3.218   0.205   1.397  0.0740  0.1849  0.4164
   94MOL     H615072   3.345   0.143   1.296 -0.2253  0.5689  0.9192
   94MOL     H715073   3.153   7.835   1.476  0.1844  2.2925  0.7434
   94MOL     H815074   3.319   0.001   1.521  0.1022  0.0032  0.5004
   94MOL     H915075   3.176   0.107   1.272 -2.0893  0.4647  1.5275
   94MOL    C1015076   3.402   7.624   1.418 -0.3931 -0.0250 -0.0759
   94MOL    C1115077   3.487   7.554   1.303  0.2665 -0.2724  0.5962
   94MOL    C1215078   3.631   7.543   1.352 -0.2525  0.7360 -0.1323
   94MOL    O1315079   3.708   7.635   1.336  0.1174  0.0383  0.2669
   94MOL    H1415080   3.352   7.550   1.480  0.3289  0.1120  0.6723
   94MOL    H1515081   3.467   7.678   1.487 -0.6913  1.2891 -0.7953
   94MOL    H1615082   3.484   7.603   1.206 -1.2378 -1.7165 -0.0951
   94MOL    H1715083   3.455   7.451   1.291  2.4533 -0.7512 -1.2048
   94MOL    C1815084   3.672   7.417   1.428  0.3897  0.1588  0.3290
   94MOL    C1915085   3.802   7.356   1.378 -0.3048  0.0435 -0.1061
   94MOL    C2015086   3.770   7.253   1.267 -0.3606 -0.1287 -0.1411
   94MOL    O2115087   3.667   7.252   1.202  0.2667  0.4666 -0.2443
   94MOL    H2215088   3.592   7.344   1.429  0.3917  0.1599  0.9262
   94MOL    H2315089   3.684   7.460   1.528  0.7945  1.8808 -0.4440
   94MOL    H2415090   3.850   7.301   1.459 -1.4606  0.7287  1.0548
   94MOL    H2515091   3.868   7.436   1.344 -2.2233  1.0704 -1.5192
   94MOL    C2615092   3.877   7.151   1.240  0.4231  0.7060 -0.8336
   94MOL    C2715093   3.864   7.090   1.098 -0.0441  0.1449  0.2727
   94MOL    C2815094   3.770   6.969   1.091  0.2942 -0.4139 -0.2094
   94MOL    O2915095   3.736   6.911   1.196  0.1910 -0.0555 -0.1703
   94MOL    H3015096   3.861   7.064   1.303 -2.5662  1.3191 -0.6675
   94MOL    H3115097   3.974   7.200   1.249 -0.1086  1.5090  0.5782
   94MOL    H3215098   3.965   7.057   1.074 -0.1885 -0.3869  0.3968
   94MOL    H3315099   3.841   7.175   1.033 -0.3385  1.2329  1.7565
   94MOL    C3415100   3.750   6.908   0.954  0.3140  0.5823  0.3414
   94MOL    C3515101   3.675   6.774   0.953  0.6596 -0.2365  0.0235
   94MOL    C3615102   3.524   6.788   0.921 -0.6667  1.0051  0.5852
   94MOL    O3715103   3.468   6.895   0.892 -0.4140 -0.0443 -0.5492
   94MOL    H3815104   3.850   6.900   0.912  1.0014 -3.0330  2.4284
   94MOL    H3915105   3.696   6.984   0.899 -0.7295 -0.0400  0.4986
   94MOL    H4015106   3.680   6.734   1.054 -1.4982 -0.3767  0.0964
   94MOL    H4115107   3.711   6.700   0.883  0.0930 -1.0106  0.5470
   94MOL    C4215108   3.435   6.660   0.932  0.2931 -0.0167  0.0202
   94MOL    C4315109   3.380   6.603   0.805  0.9564 -0.6536  0.1861
   94MOL    C4415110   3.476   6.588   0.685 -0.5500  1.1724  0.2262
   94MOL    O4515111   3.588   6.537   0.702 -0.6190  0.5822 -0.0684
   94MOL    H4615112   3.358   6.688   1.004 -1.1544 -3.5966 -0.0203
   94MOL    H4715113   3.504   6.586   0.969 -1.8913 -0.8781  2.4992
   94MOL    H4815114   3.284   6.646   0.775 -0.1488 -2.5937  0.8231
   94MOL    H4915115   3.360   6.501   0.839  2.2126 -0.8554  0.3265
   94MOL    C5015116   3.427   6.628   0.547 -0.4147  0.2483 -0.4316
   94MOL    C5115117   3.530   6.723   0.468  0.5653  1.5539 -0.2244
   94MOL    C5215118   3.492   6.867   0.471 -0.2830 -0.3591  0.1744
   94MOL    O5315119   3.377   6.906   0.464 -0.3824  0.3082 -0.9095
   94MOL    H5415120   3.333   6.680   0.564  0.2012  1.4287 -0.5425
   94MOL    H5515121   3.413   6.537   0.490  1.1040 -0.2217 -0.0941
   94MOL    H5615122   3.547   6.697   0.363  2.0058 -1.8598  0.7898
   94MOL    H5715123   3.631   6.712   0.505  0.2585 -0.1050  0.1448
   94MOL    C5815124   3.604   6.965   0.490 -0.8167 -0.1831 -0.0931
   94MOL    C5915125   3.570   7.111   0.543 -0.2320  0.0722 -1.2735
   94MOL    C6015126   3.639   7.143   0.675 -0.4128  0.0869  1.3945
   94MOL    O6115127   3.737   7.084   0.718  0.3336  0.3491 -0.8264
   94MOL    H6215128   3.664   6.977   0.399 -0.2767 -4.4965 -0.4242
   94MOL    H6315129   3.666   6.910   0.561 -0.1356 -0.2909 -0.7588
   94MOL    H6415130   3.465   7.133   0.560 -0.2229 -1.1458  0.4966
   94MOL    H6515131   3.610   7.191   0.481  1.3188  0.3472  0.0232
   94MOL    C6615132   3.597   7.276   0.739  0.0194  0.2835 -0.1450
   94MOL    C6715133   3.684   7.325   0.860  0.3158 -0.0585 -0.7966
   94MOL    C6815134   3.737   7.469   0.850  0.8311 -0.0480 -0.0933
   94MOL    O6915135   3.685   7.546   0.769 -0.4945 -0.0697  0.0417
   94MOL    H7015136   3.499   7.270   0.786  0.3702 -2.0940  0.3471
   94MOL    H7115137   3.593   7.352   0.661  0.8260 -0.9460 -1.4048
   94MOL    H7215138   3.765   7.252   0.866 -0.2265 -0.6437 -0.5010
   94MOL    H7315139   3.627   7.304   0.951 -0.5243 -0.2304 -1.3510
   94MOL    C7415140   3.859   7.501   0.929  0.2109 -0.2440 -0.5482
   94MOL    C7515141   3.881   7.651   0.962  0.3386  1.5232 -1.1341
   94MOL    C7615142   3.982   7.708   0.867  0.4200  0.2196  0.2771
   94MOL    O7715143   4.086   7.649   0.842 -0.3875 -0.1605  0.7295
   94MOL    H7815144   3.939   7.444   0.882  0.9081  0.4840 -0.2598
   94MOL    H7915145   3.829   7.471   1.029 -3.1325  2.5869 -0.5977
   94MOL    H8015146   3.921   7.661   1.063 -0.5862 -0.1167 -0.5842
   94MOL    H8115147   3.792   7.714   0.969 -1.4842 -1.2154  1.7323
   94MOL    C8215148   3.939   7.826   0.777 -0.0361  0.3889 -0.4592
   94MOL    C8315149   4.061   0.022   0.691 -0.2555 -0.4759 -0.0569
   94MOL    C8415150   4.083   0.173   0.715  0.3201  0.3779  0.1591
   94MOL    O8515151   4.140   0.217   0.814  0.9170  0.5156 -0.2086
   94MOL    H8615152   3.892   0.045   0.837 -0.5310 -0.6201  0.4803
   94MOL    H8715153   3.874   7.781   0.701 -2.9450  1.2620  1.4253
   94MOL    H8815154   4.037   0.002   0.587  4.4541 -0.1687 -1.3091
   94MOL    H8915155   4.150   7.824   0.721 -0.5898 -0.2602  1.3926
   94MOL    C9015156   4.009   0.269   0.618  0.1491  0.1181 -0.2682
   94MOL    C9115157   4.061   0.413   0.619 -0.6441 -0.0024 -0.1086
   94MOL    C9215158   3.956   0.516   0.571 -0.1382  0.1818  0.9271
   94MOL    O9315159   3.893   0.497   0.462  0.1481 -0.2672  0.2966
   94MOL    H9415160   3.908   0.261   0.657  0.4121 -2.0565  0.0703
   94MOL    H9515161   4.017   0.232   0.516 -3.7710 -0.2181 -0.5346
   94MOL    H9615162   4.147   0.426   0.554 -1.0831 -0.8503 -0.8836
   94MOL    H9715163   4.094   0.446   0.717  1.9005  1.0739 -1.2984
   94MOL    C9815164   3.907   0.621   0.668  0.0059 -0.3095  0.1180
   94MOL    C9915165   3.806   0.727   0.609 -0.1162 -0.1861  0.2661
   94MOL   C10015166   3.794   0.844   0.698 -0.3736  0.2734  0.6228
   94MOL   O10115167   3.845   0.841   0.811 -0.0600 -0.0744  0.0731
   94MOL   H10215168   4.000   0.673   0.690 -0.1943  0.0634  0.0830
   94MOL   H10315169   3.863   0.576   0.757 -1.1270 -1.5203 -1.0197
   94MOL   H10415170   3.709   0.678   0.610  0.4315 -1.3221 -0.8241
   94MOL   H10515171   3.827   0.750   0.504 -0.6061 -0.8607  0.0176
   94MOL   C10615172   3.716   0.961   0.647 -0.3420 -0.6324  0.9022
   94MOL   C10715173   3.772   1.095   0.708 -0.0190 -0.0962  0.2601
   94MOL   C10815174   3.767   1.209   0.600  0.2491  0.1863 -0.6099
   94MOL   O10915175   3.671   1.213   0.523 -0.3129  0.6315  0.0776
   94MOL   H11015176   3.611   0.950   0.674 -0.0499 -1.2625  1.8260
   94MOL   H11115177   3.729   0.963   0.539 -0.5347  0.2709  0.8923
   94MOL   H11215178   3.878   1.078   0.729 -0.1557 -0.0753  1.0082
   94MOL   H11315179   3.726   1.126   0.802 -1.6730 -0.9101 -0.2712
   94MOL   C11415180   3.875   1.320   0.616 -0.0959  0.1876 -0.1292
   94MOL   C11515181   3.901   1.377   0.478  0.6588  0.1824 -0.1370
   94MOL   C11615182   4.012   1.485   0.484  0.4506 -0.4066  0.4574
   94MOL   O11715183   4.056   1.521   0.592 -0.0483 -0.9860  0.3340
   94MOL   H11815184   3.964   1.293   0.672 -1.2865 -0.5445  1.4488
   94MOL   H11915185   3.819   1.394   0.674 -0.6319 -1.7385  1.8526
   94MOL   H12015186   3.807   1.416   0.439  0.7354 -1.4050 -1.9865
   94MOL   H12115187   3.922   1.297   0.407  0.3103  0.4706 -0.5722
   94MOL   C12215188   4.061   1.538   0.353 -0.5424  0.7231 -0.7295
   94MOL   C12315189   4.210   1.570   0.346 -0.0674  0.3154  0.2848
   94MOL   C12415190   4.247   1.701   0.278  0.1451 -0.5618 -0.0158
   94MOL   O12515191   4.183   1.767   0.196  0.4886  0.3172  0.7969
   94MOL   H12615192   4.008   1.632   0.342  0.4210  1.2583 -0.8774
   94MOL   H12715193   4.027   1.475   0.271  0.8524 -0.4268 -0.4498
   94MOL   H12815194   4.262   1.489   0.295 -3.1688 -0.4397 -1.7762
   94MOL   H12915195   4.246   1.583   0.449 -1.1439  0.7465  0.6107
   94MOL   C13015196   4.383   1.758   0.316  0.5599 -0.3649  0.2521
   94MOL   C13115197   4.455   1.839   0.211  0.8431  0.2542  0.1097
   94MOL   C13215198   4.498   1.972   0.272 -0.0613 -0.5175 -0.2637
   94MOL   O13315199   4.468   1.998   0.387  0.2534 -0.5568 -0.2377
   94MOL   H13415200   4.449   1.672   0.329  0.1375 -0.3398  2.8954
   94MOL   H13515201   4.366   1.799   0.416 -1.9302 -0.2278 -0.2011
   94MOL   H13615202   4.400   1.858   0.119  1.4449  1.7604  0.0566
   94MOL   H13715203   4.549   1.789   0.187  1.7028  0.8966  2.0582
   94MOL   C13815204   4.580   2.064   0.185  0.4506  0.3399 -0.3449
   94MOL   C13915205   4.672   2.165   0.255  0.2740  0.4175  0.3934
   94MOL   C14015206   4.615   2.306   0.260 -0.3122 -0.0361 -0.2479
   94MOL   O14115207   4.602   2.363   0.154 -0.1035 -0.0359 -0.0672
   94MOL   H14215208   4.515   2.108   0.110 -0.6421 -0.9130 -0.1688
   94MOL   H14315209   4.638   1.998   0.121 -0.1046 -1.4667  0.9612
   94MOL   H14415210   4.762   2.179   0.194 -0.1386  1.1691 -0.0522
   94MOL   H14515211   4.702   2.124   0.351  0.9446 -0.4074 -0.1579
   94MOL   C14615212   4.577   2.355   0.397  0.0668  0.2485  1.2926
   94MOL   C14715213   4.443   2.420   0.397 -0.4590 -0.9351  0.3894
   94MOL   C14815214   4.317   2.341   0.436 -0.2713 -0.2869  0.5535
   94MOL   O14915215   4.281   2.340   0.553  0.4323  0.2460 -0.5689
   94MOL   H15015216   4.659   2.421   0.428  1.3708 -0.6157 -0.2506
   94MOL   H15115217   4.594   2.273   0.467  1.4616 -0.9261 -0.3891
   94MOL   H15215218   4.419   2.457   0.297  0.9322  1.0733  0.7772
   94MOL   H15315219   4.461   2.509   0.457  0.0301 -0.5776 -0.2691
   94MOL   C15415220   4.248   2.257   0.331 -0.5414  0.3897 -0.0611
   94MOL   C15515221   4.110   2.321   0.284 -0.0639  0.0925 -0.7621
   94MOL   C15615222   4.002   2.216   0.246 -0.2275  0.2135 -0.3270
   94MOL   O15715223   4.012   2.109   0.304 -0.1961  0.4254 -0.2855
   94MOL   H15815224   4.234   2.151   0.353  1.2207  0.0257 -0.6174
   94MOL   H15915225   4.313   2.261   0.243 -2.5255  1.3702 -1.5363
   94MOL   H16015226   4.120   2.391   0.201  0.0752  0.1264 -0.7153
   94MOL   H16115227   4.069   2.380   0.367  3.1646 -0.0247  0.9883
   94MOL   H16215228   3.928   2.250   0.174 -0.1689  2.1466  0.4898
   95MOL     C115229   0.991   3.277   6.113 -0.5946  0.5744  0.2319
   95MOL     C215230   1.044   3.129   6.078  0.1565 -0.3073  0.0504
   95MOL     C315231   1.147   3.132   5.967 -0.0611 -0.1739  0.3107
   95MOL     O415232   1.247   3.203   5.976  0.1816 -0.7823 -0.5545
   95MOL     H515233   1.078   3.327   6.156 -1.0006  0.6557  0.9639
   95MOL     H615234   0.964   3.349   6.036  1.2754  0.6651 -0.3593
   95MOL     H715235   0.962   3.061   6.052 -0.0815 -0.4869  1.2591
   95MOL     H815236   1.096   3.091   6.165  0.8182  1.2522  0.3482
   95MOL     H915237   0.907   3.277   6.182 -1.5679  2.8999 -0.9112
   95MOL    C1015238   1.134   3.035   5.849  0.0837 -0.1925 -0.5906
   95MOL    C1115239   1.207   3.086   5.724 -0.3042 -0.0369  0.1121
   95MOL    C1215240   1.351   3.038   5.699 -0.3844  0.4184  0.2893
   95MOL    O1315241   1.394   2.931   5.744 -0.9777 -0.5576 -0.1845
   95MOL    H1415242   1.030   3.030   5.815 -0.4811  2.3908  0.6581
   95MOL    H1515243   1.164   2.934   5.876 -0.9004 -1.1054 -2.7827
   95MOL    H1615244   1.205   3.194   5.733  0.9317 -0.0882  1.1498
   95MOL    H1715245   1.150   3.060   5.635 -0.0092 -0.5115  0.0612
   95MOL    C1815246   1.440   3.126   5.614 -0.2611  0.7252  0.0970
   95MOL    C1915247   1.463   3.061   5.475 -0.7428  0.1351 -0.2200
   95MOL    C2015248   1.461   3.164   5.364  0.1658 -0.2353  0.5223
   95MOL    O2115249   1.350   3.220   5.344  0.0848 -0.1798 -0.2969
   95MOL    H2215250   1.531   3.113   5.672  0.3431 -0.4873 -1.0982
   95MOL    H2315251   1.404   3.229   5.617  1.0647  1.1759  1.1036
   95MOL    H2415252   1.386   2.984   5.464 -0.2615 -0.7351  2.2376
   95MOL    H2515253   1.556   3.005   5.468 -0.5200  0.6589 -1.6851
   95MOL    C2615254   1.585   3.200   5.300  0.1189  0.3153 -0.0663
   95MOL    C2715255   1.603   3.353   5.315  0.2282 -0.3395  0.0600
   95MOL    C2815256   1.743   3.396   5.282 -0.6516  0.1113  0.6082
   95MOL    O2915257   1.816   3.330   5.212 -0.0594 -0.5063  0.0008
   95MOL    H3015258   1.584   3.177   5.193 -0.8331  0.8538 -0.1727
   95MOL    H3115259   1.668   3.146   5.346  0.4112 -0.9225 -1.9847
   95MOL    H3215260   1.581   3.392   5.414 -1.4057  0.2109 -0.5066
   95MOL    H3315261   1.538   3.414   5.252  2.0004  1.9664  0.3820
   95MOL    C3415262   1.782   3.523   5.345  0.5128  0.2160 -0.1296
   95MOL    C3515263   1.914   3.575   5.295  0.0786  0.0036 -0.2139
   95MOL    C3615264   1.894   3.693   5.202  0.1213 -0.1876 -0.0096
   95MOL    O3715265   1.822   3.683   5.105 -0.3446  0.2793 -0.0604
   95MOL    H3815266   1.793   3.497   5.451  0.1057 -1.4345 -0.4831
   95MOL    H3915267   1.698   3.591   5.334  1.5004  1.1229 -2.4086
   95MOL    H4015268   1.983   3.507   5.246  1.0567  1.5266 -0.9717
   95MOL    H4115269   1.961   3.614   5.386  1.5412 -0.3992 -0.7898
   95MOL    C4215270   1.954   3.831   5.252 -0.2445 -0.1848 -0.2906
   95MOL    C4315271   1.915   3.953   5.169  0.1014  0.3031 -0.7713
   95MOL    C4415272   1.949   4.084   5.241 -0.7111  1.0562 -0.5023
   95MOL    O4515273   1.916   4.100   5.360 -0.0710 -0.4906  0.4238
   95MOL    H4615274   2.063   3.829   5.263 -0.1165 -2.3019 -1.7602
   95MOL    H4715275   1.929   3.834   5.358  1.9550 -1.4155  0.2964
   95MOL    H4815276   1.807   3.957   5.158  0.2097  0.1791 -1.9913
   95MOL    H4915277   1.956   3.949   5.068 -0.4539  0.6981 -1.0158
   95MOL    C5015278   1.986   4.202   5.151 -0.0045 -0.1816 -0.0547
   95MOL    C5115279   2.069   4.306   5.219  0.5865 -0.0916  0.5147
   95MOL    C5215280   1.993   4.426   5.263  0.0626 -0.4849 -0.0889
   95MOL    O5315281   1.881   4.449   5.218  0.2287 -0.0559  0.6340
   95MOL    H5415282   1.888   4.235   5.119 -0.1312  0.4921  0.9929
   95MOL    H5515283   2.040   4.152   5.071  0.1212 -0.5392  0.2520
   95MOL    H5615284   2.142   4.345   5.149 -1.8211 -0.3703 -2.2257
   95MOL    H5715285   2.125   4.275   5.307  0.2760 -0.7030  0.5024
   95MOL    C5815286   2.071   4.531   5.339 -0.1546  0.3811 -0.6782
   95MOL    C5915287   2.055   4.670   5.276  0.6153  0.0635  0.7139
   95MOL    C6015288   1.960   4.761   5.359  0.3558  0.0852 -0.3186
   95MOL    O6115289   1.909   4.722   5.461 -0.5337  0.0010  0.2078
   95MOL    H6215290   2.174   4.500   5.322 -0.4722 -0.7557 -0.5902
   95MOL    H6315291   2.063   4.521   5.447 -1.2773  0.6166 -0.7269
   95MOL    H6415292   2.011   4.660   5.176 -0.0642 -0.4806  1.0612
   95MOL    H6515293   2.151   4.720   5.266 -0.5863  2.4947  0.8632
   95MOL    C6615294   1.920   4.896   5.304 -0.0435 -0.2038 -0.7842
   95MOL    C6715295   1.983   5.017   5.372  0.2323 -0.4542  0.7377
   95MOL    C6815296   2.108   5.062   5.292 -0.4462  0.3167  0.4369
   95MOL    O6915297   2.105   5.081   5.167  0.3232 -0.4865 -0.1056
   95MOL    H7015298   1.811   4.900   5.303 -0.0612 -0.6913 -0.8407
   95MOL    H7115299   1.956   4.895   5.202  3.6005  1.7586  0.3865
   95MOL    H7215300   2.010   5.005   5.477 -2.3880 -0.5888  1.4323
   95MOL    H7315301   1.915   5.102   5.368 -0.5888 -1.1391  0.2097
   95MOL    C7415302   2.241   5.073   5.371 -0.1416  0.2809  0.3946
   95MOL    C7515303   2.359   5.126   5.289 -0.1351 -0.0823  0.0598
   95MOL    C7615304   2.431   5.016   5.215 -0.5967  0.5407  0.9503
   95MOL    O7715305   2.465   4.913   5.267  0.5039 -0.5846 -0.1493
   95MOL    H7815306   2.263   4.974   5.413  2.9114  1.3087  1.2889
   95MOL    H7915307   2.226   5.139   5.456  0.3254 -0.4792  1.0731
   95MOL    H8015308   2.424   5.189   5.350  1.6294 -1.4753 -0.3174
   95MOL    H8115309   2.314   5.192   5.216 -2.9647 -0.6067  1.2743
   95MOL    C8215310   2.468   5.049   5.071 -0.1755  0.0091  0.1755
   95MOL    C8315311   2.613   4.987   5.035 -0.8773 -0.5276 -0.8360
   95MOL    C8415312   2.732   5.079   5.075  0.5808 -0.2196 -0.1967
   95MOL    O8515313   2.702   5.169   5.157  0.2040 -0.4558 -0.3441
   95MOL    H8615314   2.456   5.154   5.045  3.2060  0.1285 -1.1650
   95MOL    H8715315   2.398   4.995   5.007 -0.8970  2.3793 -1.1352
   95MOL    H8815316   2.623   4.984   4.927 -0.6935  0.3956 -0.8487
   95MOL    H8915317   2.632   4.890   5.082 -0.8557 -0.4027 -0.5846
   95MOL    C9015318   2.861   5.060   5.006 -0.6067  0.7636  0.6807
   95MOL    C9115319   2.977   5.091   5.092 -0.4356 -0.3157 -0.2915
   95MOL    C9215320   3.107   5.037   5.035 -0.7044 -0.7534 -0.2753
   95MOL    O9315321   3.111   4.984   4.921 -0.3074  0.6307  0.5907
   95MOL    H9415322   2.880   5.138   4.932 -0.8042 -0.7974 -1.0513
   95MOL    H9515323   2.859   4.971   4.944 -2.3954  0.0948  1.6709
   95MOL    H9615324   2.950   5.060   5.193 -2.0123  0.5145 -0.4404
   95MOL    H9715325   2.998   5.197   5.105 -0.9523 -0.1519 -0.7472
   95MOL    C9815326   3.243   5.044   5.123  0.7355 -0.0135 -0.0667
   95MOL    C9915327   3.367   5.097   5.052 -0.0543 -0.0865 -0.4686
   95MOL   C10015328   3.470   4.981   5.037 -0.5092 -0.0907 -0.1982
   95MOL   O10115329   3.439   4.865   5.020  0.5215 -0.0761 -0.4451
   95MOL   H10215330   3.235   4.942   5.161 -3.1423 -0.0259 -0.6628
   95MOL   H10315331   3.220   5.114   5.204 -1.5484 -1.3164  0.4457
   95MOL   H10415332   3.405   5.169   5.123 -0.7966  0.6860 -0.8466
   95MOL   H10515333   3.348   5.167   4.970 -2.1512  0.0269  0.0760
   95MOL   C10615334   3.619   5.018   5.043 -0.0460 -0.1937  0.1469
   95MOL   C10715335   3.713   4.913   4.988 -0.1980  0.5692 -0.6049
   95MOL   C10815336   3.805   4.847   5.103 -1.0094 -0.3961 -0.1294
   95MOL   O10915337   3.763   4.842   5.221  0.6142  0.1396 -0.4655
   95MOL   H11015338   3.646   5.044   5.145  1.2768  1.2013 -0.5276
   95MOL   H11115339   3.640   5.107   4.982  0.7301 -0.7356 -0.3868
   95MOL   H11215340   3.791   4.963   4.931  0.5989  0.4153  0.3241
   95MOL   H11315341   3.675   4.835   4.923 -3.0984  1.4498 -0.0875
   95MOL   C11415342   3.946   4.796   5.067  0.1190 -0.0327 -0.5290
   95MOL   C11515343   3.994   4.673   5.152 -0.1071 -0.4635  0.3608
   95MOL   C11615344   4.077   4.580   5.065  0.0633  0.0132 -0.0796
   95MOL   O11715345   4.115   4.601   4.951  0.3971  0.2404  0.5688
   95MOL   H11815346   4.019   4.877   5.077  0.7152 -0.8852  2.6489
   95MOL   H11915347   3.929   4.763   4.964  0.8546  0.9810 -0.9887
   95MOL   H12015348   3.907   4.617   5.188  0.2353  0.2342  2.3167
   95MOL   H12115349   4.052   4.698   5.240  0.8049 -2.9301  0.5138
   95MOL   C12215350   4.131   4.451   5.146 -0.4096 -0.2004  0.4386
   95MOL   C12315351   4.037   4.334   5.132  0.8626 -0.2783  0.4384
   95MOL   C12415352   3.980   4.266   5.258 -0.4163  0.4117  0.1274
   95MOL   O12515353   4.045   4.282   5.362 -0.1479 -0.2629  0.7328
   95MOL   H12615354   4.157   4.482   5.247 -2.4575  0.9689  0.6335
   95MOL   H12715355   4.227   4.434   5.096 -0.1917  1.0270  0.4161
   95MOL   H12815356   4.088   4.252   5.082 -0.3811 -0.3923 -0.6707
   95MOL   H12915357   3.952   4.368   5.073  2.0442  1.3169 -0.3875
   95MOL   C13015358   3.859   4.168   5.253 -0.6828  0.0689 -0.4860
   95MOL   C13115359   3.814   4.120   5.400 -0.1222 -0.3097 -0.0957
   95MOL   C13215360   3.912   4.024   5.467  0.3515  0.1623  0.1537
   95MOL   O13315361   3.999   3.970   5.397 -0.5643 -0.2143  0.0911
   95MOL   H13415362   3.875   4.083   5.187 -0.4698 -0.0053 -0.3378
   95MOL   H13515363   3.777   4.221   5.204  0.4359  2.5287  0.2358
   95MOL   H13615364   3.712   4.083   5.395  0.2641 -1.1743 -3.5222
   95MOL   H13715365   3.814   4.198   5.476  1.0645 -0.8955  0.5257
   95MOL   C13815366   3.880   3.992   5.615 -0.0832  0.6656  0.3636
   95MOL   C13915367   3.994   3.916   5.680  0.3428  0.4319  0.9476
   95MOL   C14015368   4.083   4.018   5.753 -0.0840  0.3936 -0.4054
   95MOL   O14115369   4.110   4.126   5.712  0.5369 -0.7556 -0.3370
   95MOL   H14215370   3.792   3.930   5.633  0.8009 -0.5319  0.6684
   95MOL   H14315371   3.866   4.089   5.662 -1.0637 -0.3118  2.1381
   95MOL   H14415372   4.054   3.861   5.608 -0.2591  1.4041 -0.3130
   95MOL   H14515373   3.954   3.834   5.739  0.0288 -0.2674 -0.2235
   95MOL   C14615374   4.148   3.972   5.878 -0.0112 -0.1771  0.2175
   95MOL   C14715375   4.277   3.889   5.845  0.4967  0.0461 -0.7059
   95MOL   C14815376   4.257   3.741   5.872  0.1370 -0.3405 -0.0187
   95MOL   O14915377   4.151   3.684   5.901  0.1074 -0.1785  0.3579
   95MOL   H15015378   4.074   3.909   5.927 -0.7554  1.1106  0.7590
   95MOL   H15115379   4.169   4.054   5.947  2.0801 -1.2567  0.9180
   95MOL   H15215380   4.368   3.908   5.903  0.4102 -0.5434 -0.3761
   95MOL   H15315381   4.297   3.900   5.738 -1.5773  0.5927 -1.0644
   95MOL   C15415382   4.392   3.664   5.866  0.4784  0.0002  0.0197
   95MOL   C15515383   4.419   3.576   5.987 -0.4407 -0.3753  0.1492
   95MOL   C15615384   4.407   3.421   5.970  0.6766 -0.1706 -0.4264
   95MOL   O15715385   4.452   3.358   5.875  0.6487 -0.2943  0.1350
   95MOL   H15815386   4.473   3.735   5.850  1.3154 -0.8816  0.3569
   95MOL   H15915387   4.385   3.598   5.780  1.0043  0.6236 -0.5010
   95MOL   H16015388   4.353   3.583   6.074 -0.3440 -0.6234  0.2447
   95MOL   H16115389   4.519   3.607   6.016 -0.0065  0.4022 -2.1471
   95MOL   H16215390   4.355   3.368   6.050  1.0300  0.7123  0.3988
   96MOL     C115391   2.539   6.431   4.305  0.7258 -0.2443  0.0414
   96MOL     C215392   2.523   6.279   4.332  0.0704  0.0559 -0.0150
   96MOL     C315393   2.514   6.191   4.206  0.6047  0.2208 -0.6411
   96MOL     O415394   2.541   6.236   4.095  0.2039  0.3163  0.0983
   96MOL     H515395   2.611   6.443   4.225 -1.3603 -0.8475 -1.9745
   96MOL     H615396   2.450   6.490   4.280  0.7992 -0.5321 -0.9180
   96MOL     H715397   2.443   6.267   4.404  0.5681 -0.3655  0.4735
   96MOL     H815398   2.605   6.236   4.390 -0.0248 -2.0699 -1.3824
   96MOL     H915399   2.568   6.478   4.399 -3.5716 -1.1861  1.9797
   96MOL    C1015400   2.491   6.043   4.228  0.0225  0.3353 -0.4667
   96MOL    C1115401   2.460   5.954   4.105  0.4837  0.5255 -0.3808
   96MOL    C1215402   2.569   5.859   4.061  0.3465 -0.0157 -0.0314
   96MOL    O1315403   2.674   5.855   4.124  0.0376  0.1373  0.4417
   96MOL    H1415404   2.400   6.035   4.289 -0.8035 -1.0810 -1.8516
   96MOL    H1515405   2.566   5.997   4.293 -0.0094  0.5026 -0.3114
   96MOL    H1615406   2.417   6.006   4.019 -0.0437  2.6163  1.1186
   96MOL    H1715407   2.385   5.885   4.143  0.0704  1.3814  0.3567
   96MOL    C1815408   2.553   5.773   3.936  0.2234  0.1083  0.0760
   96MOL    C1915409   2.505   5.631   3.976  0.0339 -0.3120 -0.3782
   96MOL    C2015410   2.514   5.516   3.876  0.2424 -0.1857 -0.0446
   96MOL    O2115411   2.521   5.543   3.755 -0.3831  0.0412  0.1090
   96MOL    H2215412   2.640   5.771   3.870 -0.7031 -1.1336 -1.1176
   96MOL    H2315413   2.485   5.824   3.868 -0.9934 -1.4727  0.0986
   96MOL    H2415414   2.400   5.637   4.004 -0.1945  0.3078 -1.3662
   96MOL    H2515415   2.569   5.604   4.060 -0.6407 -1.8794 -0.3509
   96MOL    C2615416   2.504   5.374   3.933 -0.2923 -0.1315 -0.8927
   96MOL    C2715417   2.451   5.272   3.834 -0.3976  0.2076  0.1525
   96MOL    C2815418   2.296   5.269   3.832  0.1046 -0.1264  0.4371
   96MOL    O2915419   2.233   5.373   3.828 -0.4056  0.1098 -0.2685
   96MOL    H3015420   2.446   5.387   4.023  1.3788 -0.3944  0.2452
   96MOL    H3115421   2.598   5.350   3.982 -1.1726  1.8453  1.8599
   96MOL    H3215422   2.480   5.169   3.856 -2.2881 -0.9640 -2.5571
   96MOL    H3315423   2.480   5.275   3.729  0.8709 -0.3237  0.4751
   96MOL    C3415424   2.222   5.140   3.823 -0.0062  0.2453  0.1842
   96MOL    C3515425   2.128   5.114   3.942  0.1037  0.0284 -0.0832
   96MOL    C3615426   2.086   4.971   3.961 -0.2360  0.1353  0.3917
   96MOL    O3715427   2.108   4.883   3.870 -0.8200 -0.0101 -0.4670
   96MOL    H3815428   2.295   5.061   3.803  1.0078  0.9281  1.1604
   96MOL    H3915429   2.171   5.138   3.726  2.1154 -0.6905 -0.9364
   96MOL    H4015430   2.034   5.170   3.932  0.6772  1.1874  0.8241
   96MOL    H4115431   2.182   5.146   4.031  1.8851 -2.0304 -0.3860
   96MOL    C4215432   2.006   4.937   4.077 -0.4241  0.4588  0.1163
   96MOL    C4315433   2.080   4.856   4.178 -0.3677 -0.5822  0.4363
   96MOL    C4415434   2.010   4.725   4.207  0.2532  0.6922  0.1523
   96MOL    O4515435   1.888   4.711   4.198 -0.0522  0.2673  0.2019
   96MOL    H4615436   1.910   4.895   4.048 -0.9215  0.6788  1.4031
   96MOL    H4715437   1.982   5.033   4.122 -0.5750  0.5333 -0.1243
   96MOL    H4815438   2.088   4.917   4.268  1.8744 -0.9488  0.5057
   96MOL    H4915439   2.177   4.838   4.131 -0.6115  1.9276 -1.1270
   96MOL    C5015440   2.092   4.610   4.276  0.1892 -0.0362  0.1840
   96MOL    C5115441   2.025   4.472   4.254  0.1117  0.2927 -0.2840
   96MOL    C5215442   1.934   4.424   4.366  0.4541 -0.9835 -0.8483
   96MOL    O5315443   1.951   4.452   4.482 -0.0694  0.5480 -0.3543
   96MOL    H5415444   2.099   4.635   4.382  1.9322  0.3900 -0.0038
   96MOL    H5515445   2.196   4.611   4.242  0.3900  0.5797  0.7954
   96MOL    H5615446   2.110   4.408   4.274  0.1871  0.7592  0.8746
   96MOL    H5715447   1.980   4.454   4.156 -0.6979 -1.1879  0.3510
   96MOL    C5815448   1.822   4.328   4.327 -0.0629  0.3586  0.0399
   96MOL    C5915449   1.761   4.255   4.444  0.1196  0.1974  0.1008
   96MOL    C6015450   1.614   4.218   4.414  0.6512  0.0004 -0.2444
   96MOL    O6115451   1.555   4.279   4.324  0.5476  0.4128  0.1299
   96MOL    H6215452   1.869   4.252   4.263  1.9747  2.1172 -0.6065
   96MOL    H6315453   1.752   4.393   4.275  0.5286 -0.4138 -1.7801
   96MOL    H6415454   1.754   4.321   4.531 -0.9051  2.7996 -1.8674
   96MOL    H6515455   1.813   4.162   4.466 -2.1581 -1.1182  0.1233
   96MOL    C6615456   1.556   4.113   4.509  0.0202 -0.1042  0.9552
   96MOL    C6715457   1.400   4.101   4.496  0.2516 -0.1977  0.0468
   96MOL    C6815458   1.349   3.978   4.425  0.0916 -0.5032 -0.0448
   96MOL    O6915459   1.410   3.930   4.327 -0.3567 -0.0402 -0.0488
   96MOL    H7015460   1.583   4.127   4.614  1.7333 -1.2866  0.6873
   96MOL    H7115461   1.598   4.018   4.477  0.8798  0.3651  0.6669
   96MOL    H7215462   1.353   4.189   4.451 -0.3770 -0.6017 -0.0955
   96MOL    H7315463   1.370   4.097   4.601 -0.0389 -1.2502 -0.0753
   96MOL    C7415464   1.210   3.924   4.470 -0.7124 -0.1764 -0.5748
   96MOL    C7515465   1.170   3.787   4.408  0.5844  0.3510 -0.2340
   96MOL    C7615466   1.083   3.701   4.502  0.2098  0.8683  0.5234
   96MOL    O7715467   1.069   3.727   4.617  0.0250  0.1216 -1.0644
   96MOL    H7815468   1.125   3.987   4.443 -1.2374  0.1496  1.7189
   96MOL    H7915469   1.207   3.914   4.579 -2.0501 -0.7514 -0.6498
   96MOL    H8015470   1.251   3.726   4.368 -1.1810 -0.9713 -1.9037
   96MOL    H8115471   1.102   3.809   4.326 -1.0505 -0.7988  0.8010
   96MOL    C8215472   1.021   3.577   4.443  0.0336 -0.1142  0.7256
   96MOL    C8315473   1.016   3.456   4.542 -0.1899 -0.0450  0.1061
   96MOL    C8415474   0.877   3.385   4.542  0.4569 -0.3841  0.2721
   96MOL    O8515475   0.796   3.403   4.449  0.7684 -0.3221 -0.3841
   96MOL    H8615476   1.066   3.548   4.349  0.0898 -0.6588  0.9174
   96MOL    H8715477   0.920   3.614   4.423  0.2780  1.3483  2.0608
   96MOL    H8815478   1.025   3.479   4.648 -2.3293 -0.8461  0.4780
   96MOL    H8915479   1.093   3.383   4.519 -0.1328 -0.3099  1.1369
   96MOL    C9015480   0.840   3.312   4.674 -0.4440  0.1657 -0.4349
   96MOL    C9115481   0.693   3.314   4.714  0.2382 -1.4245  0.4692
   96MOL    C9215482   0.623   3.187   4.712  0.2142  0.5838 -0.0299
   96MOL    O9315483   0.677   3.077   4.721  0.0961 -0.2349  0.4021
   96MOL    H9415484   0.911   3.335   4.753  0.9131 -1.5073 -1.1280
   96MOL    H9515485   0.864   3.207   4.657 -0.0854  0.1398  0.2322
   96MOL    H9615486   0.633   3.385   4.657 -0.3979 -1.9833  0.4390
   96MOL    H9715487   0.689   3.345   4.819 -1.7432 -1.2942  0.3782
   96MOL    C9815488   0.470   3.186   4.713  0.9736  0.3163 -0.0420
   96MOL    C9915489   0.412   3.066   4.795  0.1985  0.5899  0.3319
   96MOL   C10015490   0.404   2.944   4.701 -1.2311  0.4439  0.3115
   96MOL   O10115491   0.353   2.949   4.587  0.3522 -0.2658 -0.3792
   96MOL   H10215492   0.451   3.182   4.606  0.8913 -1.4651  0.0119
   96MOL   H10315493   0.429   3.281   4.746  0.0036 -0.9563  2.5408
   96MOL   H10415494   0.308   3.080   4.827 -0.3253 -1.6616 -0.2755
   96MOL   H10515495   0.476   3.043   4.879  1.0957  0.8628 -0.2736
   96MOL   C10615496   0.474   2.818   4.754 -0.0958  0.4622  0.6258
   96MOL   C10715497   0.391   2.767   4.864 -0.6491 -0.4785 -0.5150
   96MOL   C10815498   0.407   2.618   4.879  1.2731 -0.1933  0.5822
   96MOL   O10915499   0.500   2.563   4.817  0.0647  0.4012 -0.7136
   96MOL   H11015500   0.573   2.844   4.793  0.2287 -0.1282  0.2025
   96MOL   H11115501   0.485   2.752   4.669 -2.1260  1.1561 -0.2230
   96MOL   H11215502   0.283   2.782   4.863 -0.8896 -2.2191 -1.3898
   96MOL   H11315503   0.432   2.807   4.957 -0.7076  0.6287 -0.9569
   96MOL   C11415504   0.309   2.529   4.958 -0.1487 -0.8305 -0.4135
   96MOL   C11515505   0.265   2.395   4.898 -0.0658 -0.0352  0.1102
   96MOL   C11615506   0.136   2.390   4.825  0.5738 -1.1286 -0.1448
   96MOL   O11715507   0.108   2.488   4.753 -0.1956  0.3364 -0.3507
   96MOL   H11815508   0.216   2.582   4.978 -0.1045 -1.1524  0.6403
   96MOL   H11915509   0.348   2.511   5.058  0.3391  0.7577 -0.3022
   96MOL   H12015510   0.273   2.329   4.984  0.4192 -1.4172 -0.9716
   96MOL   H12115511   0.347   2.363   4.834 -2.5163  0.0242 -3.1618
   96MOL   C12215512   0.051   2.267   4.839  0.1716 -0.4821 -0.2365
   96MOL   C12315513   0.020   2.198   4.705 -0.4961 -0.1640  0.2745
   96MOL   C12415514   0.111   2.082   4.686 -0.7470  0.2466  0.5463
   96MOL   O12515515   0.225   2.091   4.738  0.4268 -0.3407 -0.3092
   96MOL   H12615516   7.818   2.298   4.889  1.4299 -0.7764  2.3568
   96MOL   H12715517   0.089   2.191   4.908  0.5333  0.0484  0.1516
   96MOL   H12815518   0.034   2.273   4.627 -0.5244 -0.6793 -0.2358
   96MOL   H12915519   7.778   2.156   4.698 -0.2376 -0.9615  1.2616
   96MOL   C13015520   0.084   1.986   4.571 -0.5185 -0.2404  0.2470
   96MOL   C13115521   0.198   1.895   4.518 -0.4437 -0.3066 -0.3838
   96MOL   C13215522   0.163   1.849   4.372 -0.6970  0.1869  0.3888
   96MOL   O13315523   0.097   1.743   4.359 -0.5993  0.6948  0.3671
   96MOL   H13415524   0.050   2.052   4.491  1.1554 -0.4875 -0.6762
   96MOL   H13515525   7.850   1.937   4.601 -1.2328  1.7055  1.3133
   96MOL   H13615526   0.214   1.815   4.591  1.6905 -0.1704 -0.6497
   96MOL   H13715527   0.289   1.955   4.514 -0.5162 -0.0485  1.3735
   96MOL   C13815528   0.221   1.928   4.257  0.6186  0.8559  0.2470
   96MOL   C13915529   0.250   1.837   4.138  0.7439  0.0358  0.3221
   96MOL   C14015530   0.397   1.854   4.098  0.5567 -0.3084  0.1573
   96MOL   O14115531   0.481   1.861   4.185 -0.0405 -0.0801  0.6051
   96MOL   H14215532   0.310   1.977   4.298 -0.7406  1.4791  2.5706
   96MOL   H14315533   0.141   1.999   4.238 -1.2408 -1.3753 -0.4606
   96MOL   H14415534   0.185   1.879   4.060  1.5233  1.9371  0.6732
   96MOL   H14515535   0.218   1.735   4.161 -0.3695 -0.1326 -1.8329
   96MOL   C14615536   0.436   1.892   3.953  0.4669 -0.2610 -0.1965
   96MOL   C14715537   0.590   1.910   3.925 -0.0540  0.2734 -0.0376
   96MOL   C14815538   0.637   2.049   3.924  0.5832 -0.0853  0.0142
   96MOL   O14915539   0.711   2.081   3.829  0.1822 -0.0535 -0.3173
   96MOL   H15015540   0.394   1.989   3.930  0.4916  0.0290  0.9738
   96MOL   H15115541   0.388   1.817   3.890  1.1885 -0.0087 -1.0569
   96MOL   H15215542   0.614   1.854   3.835 -0.1841  0.7067 -0.3426
   96MOL   H15315543   0.648   1.865   4.007 -0.4303  0.2829  0.2334
   96MOL   C15415544   0.607   2.143   4.045  0.9486 -0.7152  0.4197
   96MOL   C15515545   0.618   2.296   4.002  0.2132  0.1621 -0.8323
   96MOL   C15615546   0.518   2.350   3.897  0.2652 -0.3503 -0.6702
   96MOL   O15715547   0.420   2.281   3.862 -0.2407 -0.5186 -0.2256
   96MOL   H15815548   0.684   2.130   4.121  1.3086 -0.4796  0.1023
   96MOL   H15915549   0.507   2.121   4.082  0.5617 -1.4696 -1.0151
   96MOL   H16015550   0.714   2.332   3.963  0.5550  0.8776  0.6167
   96MOL   H16115551   0.604   2.357   4.092 -1.4186 -1.6192  0.1272
   96MOL   H16215552   0.532   2.455   3.872 -2.4783  0.2984  0.3588
   97MOL     C115553   1.333   6.948   4.037  0.8242 -1.4421 -0.0796
   97MOL     C215554   1.297   6.838   4.138  0.5579 -0.1732  0.6030
   97MOL     C315555   1.259   6.704   4.062  0.2259 -0.0100  0.2699
   97MOL     O415556   1.297   6.679   3.947  0.2897  0.3506  0.0038
   97MOL     H515557   1.259   6.960   3.958 -0.2717  0.4735  1.2049
   97MOL     H615558   1.346   7.036   4.099 -1.2997 -0.5808 -0.8212
   97MOL     H715559   1.214   6.876   4.197 -0.7615  1.6332 -2.2945
   97MOL     H815560   1.382   6.808   4.199  1.0235 -0.6379 -0.2624
   97MOL     H915561   1.428   6.936   3.984  1.8551  0.4507  1.2721
   97MOL    C1015562   1.178   6.598   4.147  0.0157 -0.1402  0.8417
   97MOL    C1115563   1.115   6.483   4.064  0.2014 -0.1571 -0.6836
   97MOL    C1215564   1.007   6.527   3.968 -0.0599 -0.4622 -0.0297
   97MOL    O1315565   0.964   6.645   3.964  0.6589  0.3465 -0.0161
   97MOL    H1415566   1.106   6.629   4.222 -3.0708 -0.8779 -1.6838
   97MOL    H1515567   1.250   6.537   4.202  0.6361  0.0484  0.2502
   97MOL    H1615568   1.085   6.398   4.125  3.8007 -1.5702 -0.7592
   97MOL    H1715569   1.191   6.449   3.994  0.7405  0.2253 -0.2848
   97MOL    C1815570   0.947   6.418   3.883  0.9700  0.0571 -0.3861
   97MOL    C1915571   0.795   6.430   3.870  0.2177  0.4410 -0.0656
   97MOL    C2015572   0.750   6.415   3.725  0.2631 -0.5043 -0.3278
   97MOL    O2115573   0.822   6.359   3.643  0.0209  0.2261  0.4055
   97MOL    H2215574   0.974   6.319   3.920  1.7937 -0.2221 -1.6902
   97MOL    H2315575   1.004   6.427   3.790 -0.0055 -2.0253 -1.2188
   97MOL    H2415576   0.747   6.520   3.906 -0.3239  1.2382 -2.6733
   97MOL    H2515577   0.762   6.339   3.920  0.0621  0.7719  0.4308
   97MOL    C2615578   0.611   6.472   3.678 -0.6875  0.5064  0.0856
   97MOL    C2715579   0.596   6.476   3.523  0.2876  0.4079  1.3292
   97MOL    C2815580   0.465   6.557   3.501 -0.2748 -0.5661  0.0598
   97MOL    O2915581   0.359   6.496   3.505 -0.3310  0.3549  0.4869
   97MOL    H3015582   0.603   6.573   3.717  0.1521  0.6914 -0.2114
   97MOL    H3115583   0.532   6.425   3.738  1.2439 -1.9828  0.7856
   97MOL    H3215584   0.583   6.381   3.472 -0.2242  3.0853 -3.8435
   97MOL    H3315585   0.683   6.525   3.480 -1.1360  2.3319  0.5895
   97MOL    C3415586   0.478   6.713   3.482 -0.2335 -0.8341  0.3601
   97MOL    C3515587   0.352   6.782   3.527  0.4036 -0.3346 -0.0558
   97MOL    C3615588   0.256   6.822   3.413  0.0616 -0.0480 -0.7399
   97MOL    O3715589   0.275   6.802   3.291 -0.2112 -0.8581 -0.2313
   97MOL    H3815590   0.495   6.752   3.382  0.6781 -0.1893  0.7681
   97MOL    H3915591   0.565   6.749   3.536  2.3018 -1.6786 -2.9751
   97MOL    H4015592   0.377   6.874   3.580 -1.4309 -0.2078  0.6516
   97MOL    H4115593   0.304   6.723   3.606 -0.6698  0.1972 -0.3056
   97MOL    C4215594   0.128   6.902   3.453  0.0339  0.7062 -0.3276
   97MOL    C4315595   0.103   7.021   3.352 -0.3940 -0.0808 -0.1077
   97MOL    C4415596   0.150   7.155   3.415  0.5781  0.1190 -0.4957
   97MOL    O4515597   0.232   7.156   3.505 -0.8262  0.4959  0.6367
   97MOL    H4615598   0.123   6.934   3.557 -2.5838 -2.2196  0.5173
   97MOL    H4715599   0.042   6.836   3.443  1.8610 -1.8577  0.3581
   97MOL    H4815600   7.854   7.018   3.342 -0.7853  2.9086  2.4983
   97MOL    H4915601   0.142   7.006   3.251  0.1528  0.5963 -0.0099
   97MOL    C5015602   0.091   7.287   3.361 -0.2646 -0.9445  0.8253
   97MOL    C5115603   0.196   7.408   3.365  0.4446 -0.1253 -0.2876
   97MOL    C5215604   0.142   7.523   3.289  0.6937  0.0299  0.1870
   97MOL    O5315605   0.039   7.523   3.219 -0.5625  0.4811  0.5621
   97MOL    H5415606   0.007   7.320   3.422  0.1565  0.3459  0.7181
   97MOL    H5515607   0.060   7.259   3.260  1.5638 -0.0793  0.0003
   97MOL    H5615608   0.296   7.378   3.333  0.8384 -0.5120  1.2646
   97MOL    H5715609   0.213   7.429   3.470  0.5851  0.0961 -0.3536
   97MOL    C5815610   0.221   7.656   3.308 -0.3681  0.8045  0.3457
   97MOL    C5915611   0.164   7.779   3.239 -0.2514 -0.4765  0.3215
   97MOL    C6015612   0.253   7.813   3.115  0.0597  0.1359 -0.9815
   97MOL    O6115613   0.373   7.789   3.109  0.3127 -0.7283 -0.1222
   97MOL    H6215614   0.327   7.640   3.284 -0.5784  0.8978 -0.6650
   97MOL    H6315615   0.223   7.685   3.413 -2.7205 -0.8703  0.8928
   97MOL    H6415616   0.161   0.005   3.308 -2.9287  0.7036 -1.1738
   97MOL    H6515617   0.063   7.766   3.198 -0.2562 -0.3700  0.2997
   97MOL    C6615618   0.183   0.013   2.995 -0.6527 -0.1808 -0.3726
   97MOL    C6715619   0.279   0.050   2.879  0.0624 -1.0397 -0.5307
   97MOL    C6815620   0.321   0.204   2.872 -0.2644  1.1579 -0.2664
   97MOL    O6915621   0.306   0.275   2.969 -0.0598 -0.0587  0.3308
   97MOL    H7015622   0.123   0.098   3.025 -1.5199 -1.4453  1.5574
   97MOL    H7115623   0.103   7.807   2.960 -0.1475  0.1803 -2.3013
   97MOL    H7215624   0.233   0.027   2.783  0.2697  1.2127 -1.2059
   97MOL    H7315625   0.366   7.843   2.881 -0.3554 -1.5609  1.7765
   97MOL    C7415626   0.386   0.248   2.748 -0.3310 -0.3183  0.1772
   97MOL    C7515627   0.514   0.342   2.779 -0.2026  0.0040 -0.0586
   97MOL    C7615628   0.543   0.444   2.669  0.0747 -0.1533  0.5142
   97MOL    O7715629   0.514   0.420   2.554  0.2742  0.5316  0.1103
   97MOL    H7815630   0.305   0.295   2.691  0.9061 -0.3569 -1.6846
   97MOL    H7915631   0.409   0.172   2.673  0.7794  0.0964  0.0849
   97MOL    H8015632   0.607   0.289   2.800 -0.0800 -0.4577 -1.6868
   97MOL    H8115633   0.501   0.404   2.868 -1.3498 -1.1987  0.6503
   97MOL    C8215634   0.613   0.578   2.710  0.1047  0.4713  0.1006
   97MOL    C8315635   0.584   0.694   2.615  0.0122 -0.3613 -0.3110
   97MOL    C8415636   0.667   0.689   2.491 -1.1579 -0.7546  0.3824
   97MOL    O8515637   0.782   0.639   2.489  0.5337 -0.5209  0.0996
   97MOL    H8615638   0.719   0.555   2.713 -0.0807 -0.2357  1.6272
   97MOL    H8715639   0.589   0.612   2.811  1.0854 -1.9654  1.1831
   97MOL    H8815640   0.602   0.790   2.663 -0.5483 -0.7851  0.7607
   97MOL    H8915641   0.484   0.693   2.573 -0.2857 -0.1259  0.3944
   97MOL    C9015642   0.604   0.752   2.366 -0.3313 -0.4722 -0.0231
   97MOL    C9115643   0.632   0.662   2.246  0.8743  0.2065  0.2132
   97MOL    C9215644   0.770   0.673   2.179 -0.9855  0.1820 -0.0186
   97MOL    O9315645   0.828   0.776   2.182 -0.2793  0.2064  0.4361
   97MOL    H9415646   0.627   0.858   2.361 -0.5398 -0.3899  0.6461
   97MOL    H9515647   0.495   0.753   2.379 -0.2144  0.5085  1.0090
   97MOL    H9615648   0.560   0.686   2.168 -0.0516 -1.0223  0.6656
   97MOL    H9715649   0.606   0.563   2.284 -0.9333  0.0235 -1.4419
   97MOL    C9815650   0.819   0.561   2.087 -0.1123  0.3106  0.2087
   97MOL    C9915651   0.971   0.563   2.072 -0.1121 -0.7386  0.2486
   97MOL   C10015652   1.025   0.457   1.975  0.4931  0.7342 -0.1212
   97MOL   O10115653   0.949   0.374   1.931  0.3231  0.3093  0.0756
   97MOL   H10215654   0.769   0.571   1.991  0.3903  1.9896  0.1161
   97MOL   H10315655   0.791   0.464   2.130  1.2616  0.2574  1.0296
   97MOL   H10415656   1.012   0.557   2.173  0.6348  0.9870  0.0614
   97MOL   H10515657   1.007   0.660   2.041  1.0393 -0.8003  1.3763
   97MOL   C10615658   1.170   0.457   1.945  0.3907  0.5110 -0.4963
   97MOL   C10715659   1.196   0.376   1.820 -0.0473 -1.0413 -0.5582
   97MOL   C10815660   1.336   0.384   1.764 -0.6467 -0.3758  0.2852
   97MOL   O10915661   1.440   0.326   1.812 -0.7675 -0.4619  0.5580
   97MOL   H11015662   1.225   0.425   2.033  0.8796  0.6569 -0.7440
   97MOL   H11115663   1.200   0.561   1.928  3.3425 -0.1138  0.5584
   97MOL   H11215664   1.125   0.402   1.741 -4.0188 -0.5423  3.0328
   97MOL   H11315665   1.177   0.270   1.836 -0.0542 -1.0927 -0.8991
   97MOL   C11415666   1.343   0.472   1.637 -0.1572  0.6162 -0.5440
   97MOL   C11515667   1.489   0.521   1.609  0.6976  0.0592 -0.1460
   97MOL   C11615668   1.512   0.665   1.657  0.4285  0.6928 -0.2294
   97MOL   O11715669   1.445   0.717   1.749 -0.5227 -0.0327 -0.0338
   97MOL   H11815670   1.272   0.554   1.652 -0.1797  0.5589 -0.3371
   97MOL   H11915671   1.315   0.417   1.547  1.5180 -2.2253  0.6224
   97MOL   H12015672   1.502   0.510   1.501 -2.9203 -1.3431 -0.4990
   97MOL   H12115673   1.560   0.448   1.649  0.8416  0.9005  1.1632
   97MOL   C12215674   1.620   0.741   1.586  0.0819 -0.0830 -0.0355
   97MOL   C12315675   1.572   0.892   1.588 -0.3642  0.0217 -0.0964
   97MOL   C12415676   1.649   0.963   1.697  0.9476 -0.4937 -0.6939
   97MOL   O12515677   1.773   0.958   1.703 -0.6612  0.1082 -0.2594
   97MOL   H12615678   1.634   0.695   1.488 -2.1195 -0.7892 -0.0415
   97MOL   H12715679   1.710   0.726   1.645 -0.7222 -1.7786  0.7943
   97MOL   H12815680   1.464   0.897   1.597 -0.8297 -3.1043 -2.7963
   97MOL   H12915681   1.599   0.926   1.488  0.4078 -0.5951 -0.1032
   97MOL   C13015682   1.564   1.048   1.787  0.4093  0.8784 -0.1598
   97MOL   C13115683   1.639   1.127   1.894 -0.3678 -0.0904  0.4303
   97MOL   C13215684   1.560   1.167   2.018  0.0365  0.4986  0.5473
   97MOL   O13315685   1.446   1.207   2.005  0.2806 -0.4001  0.6247
   97MOL   H13415686   1.480   0.989   1.824  1.4154 -1.3475 -1.3696
   97MOL   H13515687   1.525   1.124   1.719  0.5434  0.6816 -0.4568
   97MOL   H13615688   1.697   1.204   1.842 -0.7863  1.0146  1.5595
   97MOL   H13715689   1.713   1.059   1.936  1.1340  0.3072 -1.5282
   97MOL   C13815690   1.626   1.158   2.154  0.3182 -0.4840 -0.0706
   97MOL   C13915691   1.530   1.114   2.265  0.3963 -0.2311  0.4385
   97MOL   C14015692   1.584   1.095   2.403  0.1570 -0.0937 -0.3251
   97MOL   O14115693   1.690   1.153   2.426 -0.3875 -0.3188 -0.8053
   97MOL   H14215694   1.656   1.260   2.176 -1.1255  0.2959 -1.6389
   97MOL   H14315695   1.706   1.084   2.153 -1.4940 -2.5409  1.5453
   97MOL   H14415696   1.475   1.029   2.225  0.0213  0.2011  0.0288
   97MOL   H14515697   1.456   1.194   2.270  2.7051  1.9213  1.0640
   97MOL   C14615698   1.502   1.014   2.510 -0.1176 -0.4169 -0.1165
   97MOL   C14715699   1.587   1.007   2.638 -0.4145 -0.1913 -0.3507
   97MOL   C14815700   1.605   0.869   2.694  0.6460  0.1899 -0.0759
   97MOL   O14915701   1.715   0.844   2.750  0.4530  0.3352 -0.1318
   97MOL   H15015702   1.472   0.919   2.465  0.3982 -0.4974 -0.3010
   97MOL   H15115703   1.412   1.070   2.536 -0.4610 -1.3652  0.7627
   97MOL   H15215704   1.529   1.065   2.710  2.3254  1.3384  0.6743
   97MOL   H15315705   1.677   1.067   2.646 -1.2624  0.8244  2.0127
   97MOL   C15415706   1.488   0.773   2.701  0.0671 -0.2633 -0.4797
   97MOL   C15515707   1.498   0.676   2.813 -0.0060  0.1867 -0.3510
   97MOL   C15615708   1.375   0.663   2.901  0.6268  0.1266  0.0920
   97MOL   O15715709   1.267   0.630   2.854  0.5949  0.4858 -0.4789
   97MOL   H15815710   1.474   0.719   2.607 -1.5418  0.5417 -0.7152
   97MOL   H15915711   1.391   0.823   2.697  0.1235 -0.1485 -0.3945
   97MOL   H16015712   1.586   0.703   2.872  1.4612  0.4191 -2.5774
   97MOL   H16115713   1.509   0.573   2.779 -0.2416 -0.4584  1.4396
   97MOL   H16215714   1.397   0.668   3.008  0.5391 -1.2004  0.1854
   98MOL     C115715   3.029   7.356   2.981  0.2800  0.2998 -0.0109
   98MOL     C215716   3.076   7.489   3.036 -0.0581  0.2401  0.0304
   98MOL     C315717   3.069   7.600   2.934  1.0764  0.5124  0.4582
   98MOL     O415718   3.040   7.581   2.818  0.9328 -0.4244  0.1039
   98MOL     H515719   2.922   7.340   2.990  0.2704  1.0416  1.2975
   98MOL     H615720   3.045   7.354   2.873 -2.9221  1.2040 -0.5377
   98MOL     H715721   3.178   7.475   3.074  0.1190  1.3030 -0.0361
   98MOL     H815722   2.998   7.510   3.109 -1.1287 -1.5220 -0.5706
   98MOL     H915723   3.074   7.268   3.027  1.1790  1.0590  0.6013
   98MOL    C1015724   3.108   7.734   2.976 -0.4408 -0.1159 -0.6225
   98MOL    C1115725   3.029   7.848   2.907  0.1651 -0.2447  0.9040
   98MOL    C1215726   2.885   0.004   2.943  0.8631  0.0155 -0.1656
   98MOL    O1315727   2.848   7.848   3.063  0.1928  0.2168 -0.3629
   98MOL    H1415728   3.215   7.751   2.970 -0.6011  1.3015  0.2398
   98MOL    H1515729   3.090   7.732   3.084 -0.1371 -1.3331 -0.5914
   98MOL    H1615730   3.034   7.835   2.798 -0.7736  2.5192  0.4949
   98MOL    H1715731   3.084   0.081   2.925  0.6382  0.0618 -1.8552
   98MOL    C1815732   2.789   0.042   2.834  0.4962  0.3294 -0.3143
   98MOL    C1915733   2.770   0.195   2.845 -0.5510  0.3668  0.5876
   98MOL    C2015734   2.852   0.264   2.735 -0.3388  0.6620 -1.0444
   98MOL    O2115735   2.980   0.260   2.740 -0.0896  0.5000 -0.2742
   98MOL    H2215736   2.693   7.853   2.851  0.3389  0.3468 -1.1330
   98MOL    H2315737   2.823   0.010   2.736 -1.8284 -2.5521 -0.2274
   98MOL    H2415738   2.798   0.242   2.939  1.0157  1.5832 -0.4539
   98MOL    H2515739   2.670   0.232   2.824 -0.2231  0.3390 -1.0936
   98MOL    C2615740   2.780   0.346   2.627  0.0392 -0.4659 -0.0973
   98MOL    C2715741   2.869   0.392   2.508  0.2404  0.3432 -0.3073
   98MOL    C2815742   2.823   0.509   2.426 -1.0040  0.5177 -1.0178
   98MOL    O2915743   2.707   0.559   2.436  0.0655 -0.2012 -0.3333
   98MOL    H3015744   2.739   0.427   2.687 -0.7500 -0.3252 -0.8155
   98MOL    H3115745   2.687   0.298   2.595 -1.4948  1.0059  2.0481
   98MOL    H3215746   2.896   0.300   2.455 -0.6086  0.9366 -1.8057
   98MOL    H3315747   2.956   0.428   2.562  0.6911 -1.7090  0.4070
   98MOL    C3415748   2.919   0.551   2.313  0.4012 -0.0925  0.0216
   98MOL    C3515749   2.868   0.650   2.208  0.9180 -0.5380 -0.1273
   98MOL    C3615750   2.935   0.787   2.222  0.0318 -0.4872 -0.8056
   98MOL    O3715751   3.046   0.804   2.181 -0.4121  0.0324  0.5433
   98MOL    H3815752   2.945   0.457   2.265 -0.0645  0.5261 -1.4786
   98MOL    H3915753   3.019   0.579   2.348 -0.0342  2.7040 -0.8057
   98MOL    H4015754   2.760   0.664   2.213  0.6275 -2.4761 -0.6044
   98MOL    H4115755   2.890   0.626   2.104 -0.4328  1.9014 -1.0375
   98MOL    C4215756   2.866   0.891   2.305 -0.1023  0.4238 -0.4780
   98MOL    C4315757   2.869   1.024   2.234  0.1329  0.2451  0.2665
   98MOL    C4415758   2.815   1.133   2.326  0.4003  0.0080 -0.3258
   98MOL    O4515759   2.732   1.109   2.416  0.8233  0.2307  0.2649
   98MOL    H4615760   2.924   0.911   2.396  0.4460  0.4771 -0.8408
   98MOL    H4715761   2.768   0.856   2.338 -0.3271 -0.2112 -1.8246
   98MOL    H4815762   2.817   1.010   2.140  0.5092 -0.5238  0.1675
   98MOL    H4915763   2.978   1.033   2.225  0.4618 -0.6104  2.9110
   98MOL    C5015764   2.859   1.277   2.302  0.1671  0.0361  0.3669
   98MOL    C5115765   2.894   1.357   2.431 -0.2875 -0.2985 -0.7159
   98MOL    C5215766   2.904   1.505   2.406  0.0633  0.3049 -0.2269
   98MOL    O5315767   2.964   1.549   2.305  0.1501 -0.0357 -0.0537
   98MOL    H5415768   2.780   1.332   2.252  1.1438 -0.1870 -1.4323
   98MOL    H5515769   2.938   1.277   2.228 -1.0877  1.6015 -0.9999
   98MOL    H5615770   2.976   1.307   2.482 -0.3616 -2.8831 -3.0185
   98MOL    H5715771   2.805   1.348   2.494  0.2743  0.6144  0.2326
   98MOL    C5815772   2.821   1.598   2.494  0.1406 -0.1947 -0.3957
   98MOL    C5915773   2.881   1.739   2.501  0.3972 -0.9401  0.7313
   98MOL    C6015774   2.844   1.820   2.380  0.0460  0.2230  0.0864
   98MOL    O6115775   2.731   1.810   2.328  0.0167  0.4232  0.2723
   98MOL    H6215776   2.821   1.547   2.590  1.8769 -0.8247 -0.7193
   98MOL    H6315777   2.716   1.607   2.465  0.0533  1.3811  0.3891
   98MOL    H6415778   2.990   1.736   2.506  0.4937  1.4725  0.7999
   98MOL    H6515779   2.842   1.794   2.586 -1.3612  0.0358 -0.6608
   98MOL    C6615780   2.956   1.906   2.324  0.1130 -0.4838 -0.7431
   98MOL    C6715781   2.911   2.014   2.219 -0.5319 -0.7690 -0.2295
   98MOL    C6815782   2.843   2.133   2.286  0.3519  0.5080 -0.1006
   98MOL    O6915783   2.910   2.210   2.350  0.1754 -0.2054  0.7510
   98MOL    H7015784   3.027   1.833   2.286 -0.1591 -0.8714 -0.5091
   98MOL    H7115785   3.002   1.959   2.407  0.9688 -0.6875 -1.0815
   98MOL    H7215786   2.844   1.977   2.142  1.1042 -0.0284 -2.0467
   98MOL    H7315787   2.999   2.049   2.165 -0.8770 -1.5735 -1.3428
   98MOL    C7415788   2.695   2.164   2.264 -0.1055  0.2084 -0.1758
   98MOL    C7515789   2.650   2.303   2.301  0.2518  0.6861 -0.1438
   98MOL    C7615790   2.508   2.295   2.358  0.0058 -1.5580 -0.2186
   98MOL    O7715791   2.474   2.238   2.467  0.2676 -0.4839  0.2366
   98MOL    H7815792   2.637   2.087   2.314 -1.9001  0.0270 -2.4269
   98MOL    H7915793   2.678   2.164   2.156  0.6214  0.2530 -0.2948
   98MOL    H8015794   2.653   2.371   2.215 -1.1135  0.0973 -0.6649
   98MOL    H8115795   2.725   2.344   2.369 -0.3410  0.2523  0.7808
   98MOL    C8215796   2.400   2.369   2.277  0.1758  0.5299 -0.1235
   98MOL    C8315797   2.263   2.307   2.299  0.0936  0.7271  1.0113
   98MOL    C8415798   2.174   2.391   2.394  0.7375 -0.0359  0.6921
   98MOL    O8515799   2.111   2.485   2.354  0.6484 -0.3758 -0.3618
   98MOL    H8615800   2.428   2.362   2.171  1.9015  0.8173  0.2958
   98MOL    H8715801   2.390   2.472   2.310  1.8450 -0.0800  2.3713
   98MOL    H8815802   2.263   2.202   2.329 -2.6601 -0.0413 -1.5650
   98MOL    H8915803   2.208   2.312   2.206  1.1563 -1.5956  0.2130
   98MOL    C9015804   2.177   2.369   2.544 -0.3283 -0.5467  0.4433
   98MOL    C9115805   2.058   2.422   2.623  0.7218 -0.6061 -0.5870
   98MOL    C9215806   1.978   2.315   2.703  0.4599  0.1319 -1.5047
   98MOL    O9315807   2.007   2.194   2.710 -0.0817  0.6145  0.8977
   98MOL    H9415808   2.273   2.413   2.571 -0.3221 -0.1735 -0.1700
   98MOL    H9515809   2.170   2.260   2.549  0.4546 -0.8380 -3.2436
   98MOL    H9615810   1.978   2.463   2.561 -0.1023  0.0482  0.9071
   98MOL    H9715811   2.102   2.505   2.679  1.0011 -1.0091 -0.2023
   98MOL    C9815812   1.851   2.384   2.763 -0.2533 -0.0607  1.0420
   98MOL    C9915813   1.729   2.306   2.728  0.5961  0.5444  0.5667
   98MOL   C10015814   1.680   2.317   2.588  0.3032  0.7250  0.6097
   98MOL   O10115815   1.738   2.396   2.514 -0.2139 -0.1087  0.1460
   98MOL   H10215816   1.831   2.480   2.717 -0.3845 -0.3562  0.4794
   98MOL   H10315817   1.858   2.407   2.869  0.4585 -0.9296  1.1926
   98MOL   H10415818   1.650   2.347   2.791  2.3430  2.7045  1.4224
   98MOL   H10515819   1.743   2.198   2.734  2.2742  0.7055 -0.1618
   98MOL   C10615820   1.569   2.225   2.546  0.1440 -0.1147  0.2615
   98MOL   C10715821   1.446   2.294   2.510  0.1230  0.7294  0.1823
   98MOL   C10815822   1.396   2.249   2.374 -0.5416 -0.0391 -0.5104
   98MOL   O10915823   1.290   2.188   2.367 -0.2885 -0.1805 -0.2611
   98MOL   H11015824   1.549   2.140   2.611  0.2374 -0.6977 -0.4522
   98MOL   H11115825   1.616   2.173   2.462 -2.2189  2.6743 -2.8835
   98MOL   H11215826   1.469   2.400   2.501 -0.5090  0.8876  0.3589
   98MOL   H11315827   1.368   2.285   2.586  1.0018 -0.2762  0.9675
   98MOL   C11415828   1.485   2.275   2.244  0.0583  0.1523 -0.5485
   98MOL   C11515829   1.411   2.252   2.112  0.0843 -0.1789  0.0275
   98MOL   C11615830   1.490   2.235   1.985 -0.6704  0.1179  0.1842
   98MOL   O11715831   1.606   2.206   1.987  0.0818  0.2982  0.5596
   98MOL   H11815832   1.567   2.205   2.258 -1.4034 -0.9573  2.9641
   98MOL   H11915833   1.523   2.377   2.253 -0.5858  0.5539 -2.2399
   98MOL   H12015834   1.352   2.339   2.084 -1.3911 -0.8248  1.0827
   98MOL   H12115835   1.347   2.164   2.117 -2.1309  1.3940  0.3886
   98MOL   C12215836   1.419   2.258   1.851  0.6494 -0.2303 -0.3185
   98MOL   C12315837   1.500   2.202   1.728 -0.3182  0.3443 -0.2949
   98MOL   C12415838   1.570   2.315   1.648 -0.1021  0.0684  0.3415
   98MOL   O12515839   1.687   2.334   1.659  0.4015 -0.1762  0.5698
   98MOL   H12615840   1.390   2.361   1.831 -1.3050 -0.6233  0.4247
   98MOL   H12715841   1.328   2.201   1.869  0.4402  0.1834 -0.0698
   98MOL   H12815842   1.435   2.153   1.655 -0.3729  0.4083 -0.2894
   98MOL   H12915843   1.559   2.117   1.760 -2.2047 -1.1302 -0.6319
   98MOL   C13015844   1.479   2.393   1.561 -0.5224  0.1786  0.6696
   98MOL   C13115845   1.490   2.544   1.567 -1.1295  1.5185  0.1633
   98MOL   C13215846   1.553   2.607   1.443 -0.1713 -0.2523 -0.0769
   98MOL   O13315847   1.535   2.564   1.330  0.5237 -0.6079 -0.4691
   98MOL   H13415848   1.377   2.368   1.590 -0.3497  2.0148  2.9413
   98MOL   H13515849   1.469   2.359   1.457  0.1811  0.0158  0.6543
   98MOL   H13615850   1.557   2.577   1.646 -0.8509 -0.0396  0.5824
   98MOL   H13715851   1.391   2.587   1.582 -1.8672  0.1657 -0.6999
   98MOL   C13815852   1.640   2.731   1.452 -0.1950  0.2960 -0.3124
   98MOL   C13915853   1.782   2.695   1.508  0.2964 -0.1665  0.2193
   98MOL   C14015854   1.856   2.800   1.590  0.0576 -0.8337 -0.1117
   98MOL   O14115855   1.783   2.868   1.660  0.5311  1.1102 -0.1096
   98MOL   H14215856   1.604   2.812   1.516  2.7914  0.1976  1.5830
   98MOL   H14315857   1.655   2.767   1.350  1.6417 -0.3540 -0.2848
   98MOL   H14415858   1.844   2.675   1.420 -0.6880 -3.0324  0.1274
   98MOL   H14515859   1.779   2.605   1.569  0.4975 -0.2139  0.1622
   98MOL   C14615860   2.003   2.792   1.603 -0.1547  0.1146  0.3318
   98MOL   C14715861   2.057   2.832   1.747  0.2213  0.0276  0.3322
   98MOL   C14815862   2.081   2.981   1.754 -0.1302  0.4078  0.0627
   98MOL   O14915863   2.170   3.035   1.689 -0.1866 -0.4333  0.0272
   98MOL   H15015864   2.051   2.862   1.535 -0.2802  1.5182  1.6704
   98MOL   H15115865   2.046   2.699   1.566  1.6220  1.1444 -0.1946
   98MOL   H15215866   2.152   2.784   1.770  0.3115 -0.2138 -0.5225
   98MOL   H15315867   1.989   2.796   1.823  2.9144 -2.1669  1.7838
   98MOL   C15415868   1.991   3.061   1.844 -0.6030  0.6622  0.9272
   98MOL   C15515869   2.052   3.062   1.985  0.1677  0.0296  0.6522
   98MOL   C15615870   1.970   2.983   2.086  0.2194  0.0437 -0.7155
   98MOL   O15715871   1.929   2.866   2.064 -0.9107 -0.6693 -0.7009
   98MOL   H15815872   1.898   3.004   1.850 -0.1890 -0.0255  0.9072
   98MOL   H15915873   1.980   3.163   1.807 -0.0586  0.2217 -0.5007
   98MOL   H16015874   2.047   3.165   2.019  1.7488  0.2528  0.2149
   98MOL   H16115875   2.160   3.048   1.987  0.0829 -0.5000  3.1678
   98MOL   H16215876   1.957   3.039   2.178  0.3220 -0.3355 -0.4680
   99MOL     C115877   4.755   1.506   2.142  0.5002 -0.1998 -0.2086
   99MOL     C215878   4.865   1.451   2.051 -0.3115 -0.6909 -0.4160
   99MOL     C315879   4.856   1.305   2.000 -0.1204  0.1315 -0.1548
   99MOL     O415880   4.756   1.231   2.022 -0.1318  0.2845  0.0676
   99MOL     H515881   4.667   1.516   2.078  1.2255 -0.8432 -1.3102
   99MOL     H615882   4.738   1.441   2.228 -1.1923 -1.3576 -1.3816
   99MOL     H715883   4.959   1.445   2.108 -0.6144 -0.2571  0.1366
   99MOL     H815884   4.887   1.533   1.983  2.0264 -0.5831  0.4245
   99MOL     H915885   4.786   1.607   2.170 -1.2146  0.1277  0.5863
   99MOL    C1015886   4.978   1.260   1.927 -0.7603 -0.9104  0.5970
   99MOL    C1115887   4.985   1.111   1.887 -0.1883 -0.0812  0.3917
   99MOL    C1215888   4.990   1.005   2.000  0.1848 -0.1464  0.0832
   99MOL    O1315889   5.004   1.035   2.118 -0.5531  0.1057  0.5888
   99MOL    H1415890   5.056   1.283   1.999 -0.5910  1.2056 -0.2415
   99MOL    H1515891   4.979   1.313   1.832  1.6823 -0.5336  0.8116
   99MOL    H1615892   5.071   1.094   1.822  0.4487 -0.9494  1.4374
   99MOL    H1715893   4.894   1.090   1.831 -1.6708  0.7468  2.4026
   99MOL    C1815894   4.956   0.863   1.960  0.0316  0.6443 -0.9203
   99MOL    C1915895   4.960   0.768   2.078 -0.1685 -0.1725 -0.2370
   99MOL    C2015896   4.923   0.624   2.054 -0.0433 -0.3733  0.6561
   99MOL    O2115897   4.911   0.577   1.940 -0.0789  0.1753 -0.4533
   99MOL    H2215898   5.029   0.823   1.890  1.4393  1.8609 -0.1802
   99MOL    H2315899   4.862   0.858   1.905 -1.8410  4.7478  1.6360
   99MOL    H2415900   4.867   0.789   2.130 -0.1926  0.0126 -0.3547
   99MOL    H2515901   5.054   0.764   2.134  1.5142  1.4601 -2.8297
   99MOL    C2615902   4.905   0.524   2.174 -0.0937 -0.1285  0.4982
   99MOL    C2715903   4.760   0.485   2.194 -0.5337 -0.2709 -0.3753
   99MOL    C2815904   4.694   0.513   2.336  0.3729 -0.5519 -0.0100
   99MOL    O2915905   4.755   0.535   2.433 -0.1915  0.9687 -0.2980
   99MOL    H3015906   4.949   0.562   2.266 -0.5432 -1.1431  1.1331
   99MOL    H3115907   4.957   0.433   2.144  2.1273  1.6552 -1.3734
   99MOL    H3215908   4.740   0.388   2.148 -0.5251  0.0235 -1.0097
   99MOL    H3315909   4.705   0.542   2.119  0.7238 -2.6134 -3.1993
   99MOL    C3415910   4.540   0.527   2.334 -0.3423  0.0556  0.4448
   99MOL    C3515911   4.477   0.405   2.403  0.7821  1.0768 -0.0280
   99MOL    C3615912   4.430   0.310   2.301  0.2102  0.4502  0.4331
   99MOL    O3715913   4.457   0.329   2.182 -0.4388  0.5436  0.1738
   99MOL    H3815914   4.500   0.560   2.237  1.2587 -1.0198 -0.6077
   99MOL    H3915915   4.525   0.625   2.379 -0.8575  1.9341 -3.5532
   99MOL    H4015916   4.395   0.441   2.464  0.9046  1.3745 -0.0415
   99MOL    H4115917   4.556   0.352   2.457  1.3823  2.7390  0.7479
   99MOL    C4215918   4.362   0.183   2.347 -0.3050  0.0848  0.0583
   99MOL    C4315919   4.211   0.202   2.328  0.1528 -0.6272 -0.7193
   99MOL    C4415920   4.144   0.069   2.301 -0.4750 -0.2701  0.2605
   99MOL    O4515921   4.201   7.822   2.315 -0.0020  0.0043 -0.3886
   99MOL    H4615922   4.388   0.166   2.451 -0.6045  2.1962  0.5049
   99MOL    H4715923   4.408   0.102   2.290 -2.2751 -1.3330  0.4152
   99MOL    H4815924   4.191   0.271   2.246  0.6851  1.8342  1.1690
   99MOL    H4915925   4.159   0.255   2.408 -0.8902 -1.0184 -1.1228
   99MOL    C5015926   3.994   0.065   2.271 -0.1016 -0.4976 -0.1518
   99MOL    C5115927   3.957   7.814   2.170 -0.0211 -0.6219  0.2408
   99MOL    C5215928   3.891   7.699   2.249 -0.5425 -0.0041 -0.2896
   99MOL    O5315929   3.837   7.720   2.357 -0.0041  0.4123 -0.3676
   99MOL    H5415930   3.967   0.160   2.226  2.3822 -1.3281 -3.5836
   99MOL    H5515931   3.933   0.072   2.362  0.4593 -0.5725  0.2320
   99MOL    H5615932   4.038   7.782   2.105  0.7445  0.4894  0.6438
   99MOL    H5715933   3.889   7.845   2.091 -0.7314 -1.0695  0.6702
   99MOL    C5815934   3.890   7.563   2.191 -0.6295 -0.2735  0.0907
   99MOL    C5915935   3.917   7.463   2.304 -1.0025  0.1220  0.6954
   99MOL    C6015936   4.019   7.356   2.282 -0.2965 -0.3209 -0.0652
   99MOL    O6115937   4.072   7.333   2.168  0.1233 -0.0836 -0.3081
   99MOL    H6215938   3.958   7.554   2.106  1.6475  3.3341  1.3846
   99MOL    H6315939   3.794   7.544   2.144  1.1170  2.3687 -4.9234
   99MOL    H6415940   3.827   7.408   2.329 -0.7556 -1.2424 -1.3009
   99MOL    H6515941   3.950   7.506   2.399  0.1368  1.5577 -0.3089
   99MOL    C6615942   4.058   7.266   2.396 -0.8415 -0.4652  0.0778
   99MOL    C6715943   4.137   7.142   2.354  0.3296  0.7170 -0.0578
   99MOL    C6815944   4.179   7.039   2.469  0.1575 -0.6525  0.5658
   99MOL    O6915945   4.145   7.049   2.585 -0.1249  0.3812 -0.2259
   99MOL    H7015946   3.973   7.236   2.457 -1.3202 -0.3340 -0.5285
   99MOL    H7115947   4.126   7.320   2.463 -0.6857  0.5127 -0.8623
   99MOL    H7215948   4.226   7.178   2.302 -0.0271 -0.1113 -1.2632
   99MOL    H7315949   4.077   7.102   2.272 -0.5923 -0.9571  1.4036
   99MOL    C7415950   4.257   6.910   2.428  0.1508  0.0811 -0.3291
   99MOL    C7515951   4.394   6.905   2.490 -0.3593 -0.6506 -0.2669
   99MOL    C7615952   4.468   6.787   2.426  0.4753  0.1185 -0.0304
   99MOL    O7715953   4.543   6.795   2.329 -0.1193 -0.7253  0.0387
   99MOL    H7815954   4.271   6.906   2.320 -3.4251 -1.2640 -0.8040
   99MOL    H7915955   4.205   6.818   2.455 -3.5667  2.9517  2.7627
   99MOL    H8015956   4.398   6.889   2.598 -2.3526  1.9258  0.2563
   99MOL    H8115957   4.458   6.992   2.474 -2.2516  0.4782 -2.0343
   99MOL    C8215958   4.475   6.654   2.505  0.4758  0.0752 -0.1466
   99MOL    C8315959   4.578   6.549   2.453 -0.3935  0.5531 -0.2568
   99MOL    C8415960   4.693   6.539   2.549 -0.1728 -0.5228 -0.3128
   99MOL    O8515961   4.673   6.492   2.662 -0.1994  0.2472 -0.0193
   99MOL    H8615962   4.379   6.606   2.485  0.8409 -0.3510 -0.9203
   99MOL    H8715963   4.493   6.663   2.612  0.8798  0.0647 -0.2114
   99MOL    H8815964   4.619   6.581   2.358 -1.5889  0.8455 -0.6778
   99MOL    H8915965   4.541   6.448   2.435  0.3609  0.3715 -0.8129
   99MOL    C9015966   4.832   6.599   2.513  0.3891  0.0612 -0.4492
   99MOL    C9115967   4.920   6.598   2.641  0.2092 -0.1259  0.0818
   99MOL    C9215968   5.065   6.561   2.611  0.6609  0.2455 -0.1090
   99MOL    O9315969   5.103   6.559   2.499 -0.2347 -0.0310  0.2997
   99MOL    H9415970   4.823   6.700   2.472 -0.1319 -0.2560 -1.1401
   99MOL    H9515971   4.863   6.540   2.426 -0.4261 -0.6896 -0.2425
   99MOL    H9615972   4.884   6.525   2.713 -0.6504  1.4549  1.3005
   99MOL    H9715973   4.912   6.691   2.697  0.3909  0.1868 -0.4023
   99MOL    C9815974   5.163   6.538   2.725 -0.1961 -1.0152 -0.3448
   99MOL    C9915975   5.295   6.482   2.678 -0.0564 -0.4085 -0.5024
   99MOL   C10015976   5.377   6.433   2.798 -0.0898  0.9205  0.1474
   99MOL   O10115977   5.343   6.442   2.917 -0.2372  0.1067 -0.4736
   99MOL   H10215978   5.131   6.467   2.802  1.5145  0.5500  1.8740
   99MOL   H10315979   5.166   6.636   2.773 -2.1281 -0.8517 -0.5495
   99MOL   H10415980   5.358   6.551   2.621 -0.8932  1.3559  0.6397
   99MOL   H10515981   5.271   6.393   2.620 -2.2457 -0.3247  0.2311
   99MOL   C10615982   5.504   6.363   2.759  0.0451 -0.1915 -0.1054
   99MOL   C10715983   5.601   6.345   2.872  0.5592  0.1256 -0.2300
   99MOL   C10815984   5.626   6.204   2.920  0.1651 -0.6435 -0.0564
   99MOL   O10915985   5.709   6.142   2.853 -0.6240 -0.2029  0.3387
   99MOL   H11015986   5.564   6.414   2.683 -2.2463  1.0100 -1.1542
   99MOL   H11115987   5.484   6.264   2.720  1.7449 -0.4698 -0.3217
   99MOL   H11215988   5.558   6.390   2.962  0.9802  1.1925 -0.5534
   99MOL   H11315989   5.698   6.392   2.855 -1.0546  3.6518 -0.1909
   99MOL   C11415990   5.569   6.151   3.046  0.4990  0.5968  0.4114
   99MOL   C11515991   5.579   5.998   3.076  0.0161  0.2407  0.5395
   99MOL   C11615992   5.457   5.928   3.017  0.5081  0.5383  0.2677
   99MOL   O11715993   5.355   5.918   3.083  0.3165  0.2921 -0.5915
   99MOL   H11815994   5.463   6.175   3.044  0.5951  1.0509  0.5725
   99MOL   H11915995   5.603   6.214   3.129 -0.1640  2.8911 -1.0137
   99MOL   H12015996   5.592   5.982   3.183  0.5392  1.2818  0.6376
   99MOL   H12115997   5.668   5.961   3.025 -0.1410 -0.1241  0.5292
   99MOL   C12215998   5.464   5.852   2.884  0.3373 -0.8327  0.1212
   99MOL   C12315999   5.335   5.824   2.801  0.6012 -0.4757  0.7432
   99MOL   C12416000   5.293   5.953   2.717 -1.4103  0.2132  0.6462
   99MOL   O12516001   5.368   6.051   2.718 -0.1844  0.0240  0.5191
   99MOL   H12616002   5.485   5.749   2.911 -2.3941 -0.9206  2.2034
   99MOL   H12716003   5.540   5.908   2.830 -1.6485  0.3816 -1.4502
   99MOL   H12816004   5.263   5.783   2.872 -1.1443  0.1964 -0.6305
   99MOL   H12916005   5.368   5.744   2.735 -0.3314  0.6733 -1.1315
   99MOL   C13016006   5.147   5.955   2.658 -0.6718 -0.4988  0.1347
   99MOL   C13116007   5.102   6.098   2.623 -0.0566  0.2608  0.2716
   99MOL   C13216008   4.950   6.107   2.587  0.4576  0.7582  0.9920
   99MOL   O13316009   4.866   6.038   2.642 -0.4173  0.2802  0.0502
   99MOL   H13416010   5.084   5.906   2.732 -0.2056  1.2836  1.7615
   99MOL   H13516011   5.142   5.892   2.570 -2.0481 -0.9969  0.5601
   99MOL   H13616012   5.161   6.140   2.542 -2.9097  0.8804 -1.5547
   99MOL   H13716013   5.110   6.167   2.707  0.8011  1.8005 -1.0651
   99MOL   C13816014   4.906   6.206   2.479 -0.3026  0.3765  0.2013
   99MOL   C13916015   4.766   6.180   2.426  0.3633 -0.0385  0.0008
   99MOL   C14016016   4.757   6.122   2.284  0.1899 -0.0313  0.2108
   99MOL   O14116017   4.856   6.116   2.212 -0.2138 -0.6443  0.1267
   99MOL   H14216018   4.981   6.215   2.400  0.8806 -2.4556  0.9575
   99MOL   H14316019   4.909   6.302   2.531  1.8247 -0.1056  1.0099
   99MOL   H14416020   4.729   6.280   2.408 -1.3911 -0.7048 -0.2288
   99MOL   H14516021   4.699   6.134   2.499  0.2960 -0.8058 -0.5333
   99MOL   C14616022   4.621   6.067   2.246  0.0116 -0.2582  0.3667
   99MOL   C14716023   4.613   6.035   2.091 -0.1144  0.6623  0.7778
   99MOL   C14816024   4.474   5.987   2.047  0.2367  0.0399  0.1741
   99MOL   O14916025   4.381   5.975   2.133 -0.2784 -0.0475  0.4688
   99MOL   H15016026   4.535   6.130   2.268  0.3675  0.0519  0.8555
   99MOL   H15116027   4.616   5.971   2.297  0.7078 -0.5623 -0.1236
   99MOL   H15216028   4.678   5.955   2.052 -1.9099 -0.0660 -0.8204
   99MOL   H15316029   4.639   6.125   2.037  1.4118 -0.2058  0.0263
   99MOL   C15416030   4.442   5.967   1.894  0.4984  0.0786 -0.2596
   99MOL   C15516031   4.297   5.914   1.880  0.5608  0.2290  0.3588
   99MOL   C15616032   4.206   6.026   1.871 -0.3514 -0.9062  0.0624
   99MOL   O15716033   4.235   6.144   1.877 -0.7468 -0.4338  0.0045
   99MOL   H15816034   4.509   5.886   1.864  0.5709 -0.6259  1.6912
   99MOL   H15916035   4.455   6.056   1.833  0.6166 -0.2205 -0.6705
   99MOL   H16016036   4.274   5.845   1.961  1.3426 -0.4205  0.0367
   99MOL   H16116037   4.285   5.855   1.789 -0.3975 -0.9646  1.2377
   99MOL   H16216038   4.103   5.992   1.861 -0.7562 -0.0368  1.1285
  100MOL     C116039   2.758   0.099   2.344  0.3234 -0.8900 -0.0370
  100MOL     C216040   2.636   0.005   2.334  0.1584  0.2097  0.5604
  100MOL     C316041   2.530   0.039   2.441  0.1175  0.1222 -0.3972
  100MOL     O416042   2.551   0.123   2.530 -0.1195  0.8611  0.4474
  100MOL     H516043   2.850   0.082   2.287  0.6698  1.5259 -0.2552
  100MOL     H616044   2.732   0.203   2.325 -0.3001 -0.8382  1.0416
  100MOL     H716045   2.676   7.765   2.356  1.3227  1.0941  2.6923
  100MOL     H816046   2.585   0.028   2.241 -0.3407  0.5760  0.9199
  100MOL     H916047   2.796   0.071   2.443 -0.2995  0.1312  0.4956
  100MOL    C1016048   2.393   7.833   2.422  0.0629  0.5446  0.5050
  100MOL    C1116049   2.307   7.845   2.551  0.1218 -1.1218 -0.1868
  100MOL    C1216050   2.201   7.740   2.547  0.4674  0.1725  0.5118
  100MOL    O1316051   2.177   7.691   2.430 -0.0434  0.0322 -0.5024
  100MOL    H1416052   2.412   7.728   2.404  0.3456  1.3396 -4.3630
  100MOL    H1516053   2.332   0.009   2.338 -0.4072 -2.0013 -0.2530
  100MOL    H1616054   2.262   0.085   2.554 -1.1261 -1.6815 -0.0950
  100MOL    H1716055   2.377   7.841   2.635 -0.3353 -1.0535  0.1991
  100MOL    C1816056   2.135   7.702   2.679  0.2449  0.5960  0.1049
  100MOL    C1916057   1.998   7.647   2.645  0.1874 -0.4168  0.1973
  100MOL    C2016058   1.880   7.715   2.705  0.0697  1.0831  0.5026
  100MOL    O2116059   1.901   7.817   2.766  0.0009 -0.1346  0.0331
  100MOL    H2216060   2.137   7.783   2.752  1.0958  1.3719 -0.7715
  100MOL    H2316061   2.180   7.612   2.721  0.2622  0.5054 -0.1067
  100MOL    H2416062   1.989   7.541   2.669  1.8259 -0.2903  1.4846
  100MOL    H2516063   1.975   7.652   2.538 -0.0548  2.8936  0.3548
  100MOL    C2616064   1.744   7.654   2.701 -0.1977 -0.4154  0.4719
  100MOL    C2716065   1.646   7.731   2.609 -1.3234  0.3417 -0.5883
  100MOL    C2816066   1.563   7.830   2.678 -0.2597  0.0344  0.6931
  100MOL    O2916067   1.516   7.812   2.787 -0.4907 -0.2353  0.0857
  100MOL    H3016068   1.690   7.638   2.794  0.5968  2.0468  1.3788
  100MOL    H3116069   1.762   7.555   2.657  2.1843  0.0968  0.2417
  100MOL    H3216070   1.589   7.657   2.553  1.3235 -1.3199 -1.1734
  100MOL    H3316071   1.686   7.776   2.518  1.9120 -0.9417  0.1328
  100MOL    C3416072   1.526   0.088   2.588  0.2955  0.0272 -0.0624
  100MOL    C3516073   1.473   0.203   2.671 -0.3281 -0.3475  0.1511
  100MOL    C3616074   1.317   0.215   2.665 -0.2219 -0.8430 -0.0034
  100MOL    O3716075   1.244   0.129   2.615  0.7496  0.6474  0.3861
  100MOL    H3816076   1.445   0.064   2.518 -0.0209  0.4085  0.1685
  100MOL    H3916077   1.603   0.124   2.520 -1.5433  4.3255 -0.0619
  100MOL    H4016078   1.515   0.300   2.644  2.6704 -1.9743 -1.1376
  100MOL    H4116079   1.492   0.196   2.778  0.1103 -0.8491  0.0388
  100MOL    C4216080   1.256   0.340   2.734  0.0098  0.6914  0.4413
  100MOL    C4316081   1.166   0.408   2.632 -0.4172  0.4561  0.6504
  100MOL    C4416082   1.021   0.356   2.623  0.0989  0.8876  0.6088
  100MOL    O4516083   0.950   0.346   2.723 -0.1498 -0.2290  0.1423
  100MOL    H4616084   1.343   0.400   2.763  1.5137 -1.2261  0.0079
  100MOL    H4716085   1.210   0.305   2.826  1.9916  1.0858  1.6242
  100MOL    H4816086   1.208   0.403   2.531 -0.2520  1.7921  0.6428
  100MOL    H4916087   1.158   0.514   2.656 -1.2561  0.6149 -0.2915
  100MOL    C5016088   0.968   0.304   2.488  0.6801 -0.0239 -0.6632
  100MOL    C5116089   0.819   0.307   2.476 -0.6863  0.2567  0.3961
  100MOL    C5216090   0.779   0.167   2.454  0.1542  0.2763 -0.1126
  100MOL    O5316091   0.831   0.091   2.372 -0.2744 -0.2948  0.0430
  100MOL    H5416092   1.013   0.204   2.480 -0.5635 -0.5791 -0.7833
  100MOL    H5516093   1.010   0.372   2.414  1.2668  0.7487  0.3704
  100MOL    H5616094   0.789   0.375   2.396 -2.4611  0.9263  1.5873
  100MOL    H5716095   0.768   0.342   2.566  0.9256 -0.7380  1.7157
  100MOL    C5816096   0.643   0.132   2.523 -0.2689  0.5995 -0.6779
  100MOL    C5916097   0.613   7.844   2.502  0.1973  0.3233  0.1292
  100MOL    C6016098   0.567   7.772   2.621 -0.1019  0.4325 -0.4571
  100MOL    O6116099   0.565   7.825   2.732  0.1762 -0.2400  0.2426
  100MOL    H6216100   0.555   0.190   2.494 -0.8928  0.2127  0.4181
  100MOL    H6316101   0.650   0.158   2.629 -2.4883 -1.3095 -0.0302
  100MOL    H6416102   0.690   7.772   2.474 -2.2433 -2.0170 -0.8185
  100MOL    H6516103   0.552   7.844   2.411 -0.5790  1.5918  0.6346
  100MOL    C6616104   0.536   7.623   2.613 -0.0921  0.8951 -0.1540
  100MOL    C6716105   0.622   7.542   2.716 -0.0313  0.4704 -0.0100
  100MOL    C6816106   0.689   7.422   2.643 -0.7694 -0.5901  0.2441
  100MOL    O6916107   0.690   7.413   2.515 -0.2535  0.0173  1.0463
  100MOL    H7016108   0.538   7.590   2.509 -0.4692  2.5773 -0.7014
  100MOL    H7116109   0.434   7.604   2.645  0.2686 -1.4114 -0.2767
  100MOL    H7216110   0.567   7.512   2.805 -0.3895  1.0046 -0.0504
  100MOL    H7316111   0.706   7.600   2.756  0.6518 -0.2489 -0.3708
  100MOL    C7416112   0.738   7.311   2.734 -0.1283  1.0243 -0.4116
  100MOL    C7516113   0.772   7.184   2.659  0.5613 -0.3833  0.7228
  100MOL    C7616114   0.659   7.088   2.676  0.2473  0.1923  0.6345
  100MOL    O7716115   0.656   7.019   2.778  0.0056  0.2091 -0.2424
  100MOL    H7816116   0.674   7.294   2.820 -0.9650  2.5513 -0.7018
  100MOL    H7916117   0.838   7.328   2.771 -0.3819 -0.2103  0.8475
  100MOL    H8016118   0.865   7.143   2.700  0.6497 -0.5403  0.3668
  100MOL    H8116119   0.796   7.197   2.554  1.1512 -0.2504  0.8723
  100MOL    C8216120   0.544   7.087   2.569  0.3940  0.2340 -0.7380
  100MOL    C8316121   0.446   6.976   2.599 -0.2851  0.2884 -0.4564
  100MOL    C8416122   0.343   6.963   2.481 -0.5117  0.0762  0.0443
  100MOL    O8516123   0.374   7.003   2.366 -0.2722 -0.2757 -0.0929
  100MOL    H8616124   0.584   7.060   2.471 -0.2169 -1.9199 -0.4196
  100MOL    H8716125   0.502   7.187   2.573 -1.3432 -0.5123 -0.0696
  100MOL    H8816126   0.398   6.986   2.697  1.0202  1.4497  0.0780
  100MOL    H8916127   0.501   6.883   2.599  0.1170  0.5249 -0.1774
  100MOL    C9016128   0.204   6.908   2.515  0.2166  0.1362 -0.2711
  100MOL    C9116129   0.111   6.926   2.393 -0.3098  0.2647  0.6343
  100MOL    C9216130   7.838   6.999   2.426  0.0802  0.3221 -0.0035
  100MOL    O9316131   7.806   7.037   2.539 -0.5375  0.3301 -0.1404
  100MOL    H9416132   0.167   6.960   2.604  1.7493  1.1520 -0.2013
  100MOL    H9516133   0.209   6.800   2.530  0.0712 -0.1118 -1.9324
  100MOL    H9616134   0.074   6.831   2.355 -0.2628  0.6542 -0.3995
  100MOL    H9716135   0.148   6.984   2.308  0.3185  0.8036  1.2692
  100MOL    C9816136   7.743   7.033   2.313  0.6923  0.0963 -0.1311
  100MOL    C9916137   7.676   7.168   2.321 -0.0599  0.1332  0.4166
  100MOL   C10016138   7.544   7.184   2.387  0.0303 -0.0940  0.1850
  100MOL   O10116139   7.442   7.170   2.320  0.0841 -0.0259 -0.2201
  100MOL   H10216140   7.676   6.947   2.304 -1.0757  1.3582  0.8491
  100MOL   H10316141   7.811   7.016   2.229 -0.7931 -2.7570 -0.8452
  100MOL   H10416142   7.677   7.208   2.219  0.3333 -1.7684 -0.3374
  100MOL   H10516143   7.745   7.235   2.372  0.2260  1.0697 -1.1605
  100MOL   C10616144   7.549   7.238   2.524  0.0292  0.3664  0.9455
  100MOL   C10716145   7.409   7.233   2.589 -1.0039  0.1225  0.6280
  100MOL   C10816146   7.373   7.096   2.653 -0.2477  0.3451  1.1532
  100MOL   O10916147   7.451   7.013   2.691  0.0199  0.1053 -0.1986
  100MOL   H11016148   7.594   7.337   2.521  0.8515 -0.0429 -0.8235
  100MOL   H11116149   7.622   7.185   2.585  0.3302  0.0944  0.3545
  100MOL   H11216150   7.334   7.282   2.527  1.7562  1.4887 -1.7805
  100MOL   H11316151   7.418   7.293   2.679  2.6832  0.4778  0.1130
  100MOL   C11416152   7.227   7.062   2.667  0.2034  0.5596  0.1972
  100MOL   C11516153   7.177   7.013   2.804  0.4656 -0.2299  0.1737
  100MOL   C11616154   7.226   7.085   2.927 -0.3979 -0.0592  0.3959
  100MOL   O11716155   7.259   7.206   2.923 -0.6970  0.1380 -0.1286
  100MOL   H11816156   7.199   6.997   2.583  3.5173  0.3343 -0.8047
  100MOL   H11916157   7.185   7.161   2.656  0.4043  0.7557  1.1623
  100MOL   H12016158   7.180   6.904   2.805  0.3258 -0.2409 -0.5965
  100MOL   H12116159   7.070   7.029   2.812  0.3303 -0.8535 -0.3457
  100MOL   C12216160   7.259   7.008   3.056  0.9423 -0.4414 -0.2325
  100MOL   C12316161   7.416   6.971   3.065  0.4599  0.0448  0.1764
  100MOL   C12416162   7.460   6.828   3.075 -0.1060  0.5369 -0.0230
  100MOL   O12516163   7.383   6.736   3.057 -0.1772  0.0941 -0.7110
  100MOL   H12616164   7.195   6.920   3.050 -0.0818  0.2913 -0.1382
  100MOL   H12716165   7.239   7.078   3.137 -4.1754 -0.7611 -1.0460
  100MOL   H12816166   7.467   7.024   3.145 -0.5361 -0.4345  1.1379
  100MOL   H12916167   7.465   6.994   2.970 -0.2444 -1.9748 -0.6998
  100MOL   C13016168   7.612   6.800   3.100  0.5868  0.4258  0.1578
  100MOL   C13116169   7.638   6.653   3.128  0.1802 -0.5973 -0.4203
  100MOL   C13216170   7.787   6.624   3.134 -0.3157  0.2320 -0.1647
  100MOL   O13316171   7.847   6.572   3.045  0.3924 -0.1263 -0.0425
  100MOL   H13416172   7.647   6.871   3.174  1.8296 -1.2702  1.2067
  100MOL   H13516173   7.666   6.818   3.007  2.2431  0.1884  1.0500
  100MOL   H13616174   7.591   6.581   3.061  1.7481 -0.9782 -1.1326
  100MOL   H13716175   7.601   6.635   3.229 -0.3489 -0.8890 -0.6611
  100MOL   C13816176   7.852   6.639   3.277  0.1027 -0.4432  0.6678
  100MOL   C13916177   0.079   6.512   3.321 -0.1366  0.0940  0.4500
  100MOL   C14016178   7.851   6.421   3.418  0.7844 -0.0176  0.5019
  100MOL   O14116179   7.738   6.449   3.456 -0.4341  0.1749 -0.7099
  100MOL   H14216180   7.776   6.667   3.350 -2.1042 -0.0271 -1.7204
  100MOL   H14316181   0.062   6.723   3.277 -1.3987  0.8404 -2.1497
  100MOL   H14416182   0.172   6.545   3.367 -0.7170 -0.0054  1.7168
  100MOL   H14516183   0.108   6.455   3.233  0.0811 -0.4705  0.8834
  100MOL   C14616184   0.067   6.302   3.473  0.4858 -0.1873  0.2228
  100MOL   C14716185   0.035   6.272   3.621  0.9837 -0.1556  0.4261
  100MOL   C14816186   0.128   6.350   3.709 -0.1526 -0.1603  0.4497
  100MOL   O14916187   0.091   6.460   3.751 -0.2450 -0.0626 -0.0854
  100MOL   H15016188   0.175   6.302   3.458  0.3448 -0.4394 -0.8058
  100MOL   H15116189   0.042   6.213   3.416  3.0707 -0.1860 -1.0271
  100MOL   H15216190   0.050   6.166   3.638  0.7117 -0.2932 -0.1917
  100MOL   H15316191   7.789   6.292   3.644  0.6473 -0.2712 -0.9873
  100MOL   C15416192   0.254   6.280   3.767 -0.4327 -0.8597  0.2359
  100MOL   C15516193   0.244   6.245   3.915 -0.1779  0.1157  0.1520
  100MOL   C15616194   0.348   6.303   4.009 -0.1904 -0.0447  0.3013
  100MOL   O15716195   0.449   6.353   3.961 -0.5304 -0.0455 -0.3260
  100MOL   H15816196   0.349   6.328   3.743 -1.1937  0.1242 -0.8095
  100MOL   H15916197   0.254   6.179   3.728 -0.7363 -0.3003 -1.2390
  100MOL   H16016198   0.239   6.136   3.912 -1.7016  0.1667  0.2685
  100MOL   H16116199   0.146   6.281   3.948 -0.1110 -0.1067  0.5943
  100MOL   H16216200   0.323   6.315   4.114  1.9345  0.4351  0.7819
  101MOL     C116201   5.190   7.200   2.070  0.2827 -0.2700  0.0517
  101MOL     C216202   5.239   7.174   1.925  0.0868  0.9503 -0.3341
  101MOL     C316203   5.240   7.302   1.837 -0.0692 -0.2086  0.2599
  101MOL     O416204   5.194   7.406   1.879 -0.1610  0.2754  0.2511
  101MOL     H516205   5.177   7.111   2.132  0.6148 -0.3255  0.0465
  101MOL     H616206   5.238   7.270   2.138 -0.0716 -1.4500  1.5427
  101MOL     H716207   5.170   7.112   1.868 -0.1350  1.3522 -0.5036
  101MOL     H816208   5.332   7.117   1.930  0.4950  1.6425  0.0727
  101MOL     H916209   5.092   7.242   2.049  0.0928 -1.1322 -0.8375
  101MOL    C1016210   5.291   7.287   1.693 -0.2031 -0.4031 -0.3639
  101MOL    C1116211   5.435   7.223   1.672 -0.1779 -0.0494 -0.0611
  101MOL    C1216212   5.505   7.288   1.556  0.4770 -0.0704 -0.1172
  101MOL    O1316213   5.447   7.316   1.456  0.6106 -0.4914  0.1787
  101MOL    H1416214   5.284   7.384   1.643  0.3179 -0.4248 -0.4853
  101MOL    H1516215   5.224   7.235   1.625  0.4053  0.5557 -1.7303
  101MOL    H1616216   5.443   7.115   1.670  1.3874  0.0339  0.8980
  101MOL    H1716217   5.495   7.253   1.758  1.1211 -1.6173 -0.4005
  101MOL    C1816218   5.653   7.312   1.568  0.0640  0.1398  0.0477
  101MOL    C1916219   5.719   7.333   1.428 -0.4263 -0.8404 -0.4147
  101MOL    C2016220   5.773   7.198   1.369 -0.2044 -0.5927 -0.1146
  101MOL    O2116221   5.722   7.139   1.271 -0.1642 -0.4317  0.2477
  101MOL    H2216222   5.713   7.234   1.615 -1.5855 -1.4335 -0.3909
  101MOL    H2316223   5.662   7.405   1.624  0.0236  0.0671  0.1740
  101MOL    H2416224   5.805   7.399   1.431 -0.0030 -1.3220 -1.8023
  101MOL    H2516225   5.654   7.390   1.363  1.0930 -0.0072 -1.2169
  101MOL    C2616226   5.885   7.128   1.444  0.6154 -0.3379 -0.0696
  101MOL    C2716227   5.990   7.079   1.339  0.5151  0.1938  0.4858
  101MOL    C2816228   6.082   7.203   1.301  0.6796  0.6837  0.1424
  101MOL    O2916229   6.056   7.314   1.340  0.1572  0.4863 -0.3229
  101MOL    H3016230   5.852   7.042   1.501 -2.2014  1.1135  0.5540
  101MOL    H3116231   5.927   7.197   1.517  0.8763 -2.1868  1.5408
  101MOL    H3216232   5.947   7.036   1.248 -2.3879 -1.3437  2.5169
  101MOL    H3316233   6.050   7.003   1.389 -0.7072  0.6249  2.6559
  101MOL    C3416234   6.183   7.190   1.191  0.0835  0.0051  0.8001
  101MOL    C3516235   6.308   7.277   1.209 -0.8790 -0.5439 -0.3666
  101MOL    C3616236   6.393   7.239   1.339 -0.4259  1.1356  0.0849
  101MOL    O3716237   6.381   7.298   1.447  0.4150 -0.7573  0.5956
  101MOL    H3816238   6.136   7.223   1.099  1.2233  1.8231  0.8550
  101MOL    H3916239   6.213   7.088   1.164  2.0482  0.5786  0.7534
  101MOL    H4016240   6.279   7.382   1.217  2.1788  0.1974  1.9245
  101MOL    H4116241   6.372   7.263   1.122 -1.4917 -0.5957 -0.8118
  101MOL    C4216242   6.496   7.123   1.333 -0.0498  0.5428 -0.5131
  101MOL    C4316243   6.582   7.100   1.464 -0.1096 -0.6080 -0.5546
  101MOL    C4416244   6.661   6.971   1.450 -0.4085 -0.1863  0.4150
  101MOL    O4516245   6.687   6.924   1.340 -0.0905 -0.5286 -0.6048
  101MOL    H4616246   6.567   7.151   1.255 -1.5824  0.3590 -2.0077
  101MOL    H4716247   6.436   7.037   1.306 -1.2217  1.2145 -0.0580
  101MOL    H4816248   6.511   7.084   1.544  1.3201 -1.1882  0.6190
  101MOL    H4916249   6.644   7.189   1.476  1.5310 -1.8798  0.6835
  101MOL    C5016250   6.682   6.905   1.583  0.8190 -0.2775 -0.1262
  101MOL    C5116251   6.758   6.772   1.568 -0.1188 -0.5394 -0.4206
  101MOL    C5216252   6.666   6.657   1.611 -0.1823  0.5928  0.3924
  101MOL    O5316253   6.552   6.651   1.570 -0.2115 -0.0927 -0.7959
  101MOL    H5416254   6.580   6.894   1.621  1.1294 -0.2024  0.7313
  101MOL    H5516255   6.731   6.965   1.659 -1.7313  1.1089  0.5038
  101MOL    H5616256   6.839   6.767   1.642 -0.5793 -1.6901  0.0224
  101MOL    H5716257   6.792   6.747   1.468  2.0832  0.1964  0.0986
  101MOL    C5816258   6.719   6.565   1.718 -0.2600 -0.1629 -0.2687
  101MOL    C5916259   6.660   6.422   1.705 -0.0836 -0.5654  0.5682
  101MOL    C6016260   6.552   6.393   1.804 -0.1197  0.5995  0.7439
  101MOL    O6116261   6.539   6.449   1.912 -0.1464 -0.2968  0.0581
  101MOL    H6216262   6.701   6.613   1.814 -0.8000 -1.4343  0.2777
  101MOL    H6316263   6.826   6.548   1.718 -0.1508  0.0310  3.6991
  101MOL    H6416264   6.744   6.360   1.737  0.6600  0.2103  0.1248
  101MOL    H6516265   6.641   6.380   1.606 -1.9013 -1.5377  1.3025
  101MOL    C6616266   6.454   6.273   1.765 -0.1997 -0.1560  1.0010
  101MOL    C6716267   6.309   6.302   1.811 -0.1711 -0.0078  0.3540
  101MOL    C6816268   6.210   6.304   1.694 -0.1393 -0.0837 -0.2402
  101MOL    O6916269   6.237   6.345   1.581  0.3231  0.0690 -0.5356
  101MOL    H7016270   6.486   6.181   1.814 -0.1623 -0.7591 -0.1326
  101MOL    H7116271   6.459   6.269   1.656 -0.2156  0.8609  0.9622
  101MOL    H7216272   6.307   6.396   1.865  1.6075  1.5331 -2.1635
  101MOL    H7316273   6.282   6.229   1.887  2.7523 -0.5696  0.8800
  101MOL    C7416274   6.069   6.261   1.727 -0.4554  0.1885  0.1775
  101MOL    C7516275   5.981   6.223   1.610  0.1129 -0.1354  0.2418
  101MOL    C7616276   6.023   6.083   1.559 -0.2563  0.3651  0.0605
  101MOL    O7716277   6.109   6.006   1.607  0.0115 -0.1627 -0.2726
  101MOL    H7816278   6.009   6.344   1.765 -1.2390  0.6803 -2.0467
  101MOL    H7916279   6.072   6.176   1.795  1.2964  0.3738  0.3381
  101MOL    H8016280   5.998   6.294   1.529  0.2907  1.3541  1.5754
  101MOL    H8116281   5.876   6.227   1.638 -0.1549 -0.9916 -0.6144
  101MOL    C8216282   5.949   6.048   1.429 -0.0689 -0.1112  0.2240
  101MOL    C8316283   5.998   5.920   1.371 -0.8296  0.6816 -0.4502
  101MOL    C8416284   5.921   5.878   1.243  0.1553 -0.6339 -0.6111
  101MOL    O8516285   5.882   5.945   1.153  0.2815  0.0356 -0.1626
  101MOL    H8616286   5.959   6.126   1.354  2.6413  2.1436  2.8402
  101MOL    H8716287   5.843   6.045   1.455 -0.3576  1.1665 -0.7602
  101MOL    H8816288   5.993   5.838   1.442 -3.0541  0.6998 -0.5556
  101MOL    H8916289   6.100   5.937   1.337 -0.8129  1.1646 -0.1649
  101MOL    C9016290   5.917   5.723   1.227  0.4694 -0.2989 -0.2829
  101MOL    C9116291   5.987   5.670   1.098  0.1763 -0.4079 -0.3132
  101MOL    C9216292   5.899   5.619   0.991  0.1117  0.4383  0.1079
  101MOL    O9316293   5.779   5.618   1.000  0.0118 -0.3034 -0.1634
  101MOL    H9416294   5.821   5.675   1.246  0.3072  0.6397  1.3296
  101MOL    H9516295   5.979   5.688   1.309  3.1784  1.1860 -1.6057
  101MOL    H9616296   6.054   5.589   1.128 -0.9634 -0.4119  2.4107
  101MOL    H9716297   6.048   5.751   1.059  1.8619 -1.0004  1.0359
  101MOL    C9816298   5.965   5.555   0.866 -0.2269  0.2245 -0.2034
  101MOL    C9916299   5.871   5.565   0.739  0.2608 -0.4704 -0.2344
  101MOL   C10016300   5.900   5.456   0.636  0.2706 -0.9611 -0.4115
  101MOL   O10116301   6.004   5.402   0.631 -0.3340  0.5848  0.8594
  101MOL   H10216302   5.977   5.453   0.904 -0.0140  0.1808 -0.3865
  101MOL   H10316303   6.055   5.613   0.844  0.6978 -1.8062 -1.9149
  101MOL   H10416304   5.901   5.661   0.696  2.3538  0.0861  2.3375
  101MOL   H10516305   5.764   5.568   0.756 -0.6079  0.2984 -5.1707
  101MOL   C10616306   5.783   5.411   0.548  0.4603  0.3387 -0.9811
  101MOL   C10716307   5.804   5.270   0.493  0.0978 -0.6057 -0.0993
  101MOL   C10816308   5.692   5.164   0.505  0.5225 -0.5972  0.2414
  101MOL   O10916309   5.605   5.161   0.589  0.0550 -0.0334 -0.2566
  101MOL   H11016310   5.782   5.480   0.463 -1.4263  1.1109 -0.3525
  101MOL   H11116311   5.688   5.434   0.594  1.0715 -1.3057  1.1887
  101MOL   H11216312   5.894   5.217   0.523 -0.3134 -0.9790  0.4903
  101MOL   H11316313   5.828   5.286   0.388  1.9346 -1.2680  0.2130
  101MOL   C11416314   5.694   5.053   0.401 -0.6071  0.4794 -0.6748
  101MOL   C11516315   5.606   5.098   0.275  0.2823 -0.4640 -0.1952
  101MOL   C11616316   5.618   4.991   0.170 -0.2383  0.4330 -0.1634
  101MOL   O11716317   5.706   4.902   0.174  0.8744 -0.4480 -0.5876
  101MOL   H11816318   5.660   4.958   0.442  0.4135 -0.8795 -2.9107
  101MOL   H11916319   5.799   5.049   0.373  0.2387  0.1785  2.3855
  101MOL   H12016320   5.640   5.185   0.218 -0.5734  1.0282  1.5187
  101MOL   H12116321   5.501   5.101   0.305  0.9914  1.1067  2.2270
  101MOL   C12216322   5.509   4.991   0.064 -0.1739 -0.1559  0.1376
  101MOL   C12316323   5.528   4.888   7.800 -0.6057 -0.8019  0.5729
  101MOL   C12416324   5.491   4.944   7.662  0.3458 -0.2957  0.2524
  101MOL   O12516325   5.445   5.055   7.645  0.0282  0.0922  0.1440
  101MOL   H12616326   5.514   5.086   0.011 -1.5449  0.6447  1.4016
  101MOL   H12716327   5.408   4.979   0.104  0.0221 -2.1562  0.0700
  101MOL   H12816328   5.464   4.801   7.818 -2.8828  0.6320 -0.3708
  101MOL   H12916329   5.628   4.845   7.806  0.0059  0.4822 -0.2576
  101MOL   C13016330   5.477   4.845   7.552  0.1895  0.4045  0.3948
  101MOL   C13116331   5.467   4.911   7.415 -0.9884  0.1043 -0.1118
  101MOL   C13216332   5.322   4.917   7.364 -0.4426 -0.1837  0.5657
  101MOL   O13316333   5.272   4.809   7.327  0.4044 -0.2277  0.1426
  101MOL   H13416334   5.388   4.783   7.564 -0.2046  1.1287  1.2949
  101MOL   H13516335   5.563   4.778   7.549 -0.1674 -0.0242 -0.6533
  101MOL   H13616336   5.523   4.853   7.340 -0.9793  1.4254 -1.1383
  101MOL   H13716337   5.505   5.013   7.405  1.5764 -0.8866 -1.1386
  101MOL   C13816338   5.243   5.051   7.366 -1.0000  0.0960  0.3709
  101MOL   C13916339   5.149   5.057   7.244 -0.6068  0.0740 -0.2217
  101MOL   C14016340   5.109   5.198   7.198  0.1184  0.0476  0.4775
  101MOL   O14116341   5.148   5.295   7.263  0.2270 -0.0196  0.0305
  101MOL   H14216342   5.301   5.144   7.359  1.5135 -1.2541  2.6675
  101MOL   H14316343   5.183   5.050   7.457 -3.2869  4.0598 -0.9515
  101MOL   H14416344   5.055   5.004   7.262 -0.7317  0.3796  0.0270
  101MOL   H14516345   5.199   5.010   7.160 -2.2819 -2.2954  0.0436
  101MOL   C14616346   5.005   5.220   7.088  0.2104  0.4090  0.3059
  101MOL   C14716347   4.991   5.370   7.054 -0.9332 -0.1995 -0.2681
  101MOL   C14816348   4.953   5.401   6.904 -0.8141  0.4649  0.0926
  101MOL   O14916349   5.011   5.337   6.813 -0.3626 -0.2644 -0.2772
  101MOL   H15016350   4.909   5.184   7.126  0.0733  3.4960  3.1470
  101MOL   H15116351   5.029   5.155   7.005 -0.0218  0.6350  0.0576
  101MOL   H15216352   5.091   5.414   7.059 -0.1563 -1.4879 -3.0523
  101MOL   H15316353   4.929   5.421   7.127 -0.9373  1.5003 -1.4138
  101MOL   C15416354   4.857   5.513   6.884 -0.2471  0.0202  0.3071
  101MOL   C15516355   4.890   5.605   6.766  0.2656 -0.0926 -0.2304
  101MOL   C15616356   4.956   5.729   6.834 -0.1941 -0.4018  0.0169
  101MOL   O15716357   5.047   5.792   6.777  0.3044  0.0433  0.6268
  101MOL   H15816358   4.835   5.557   6.981 -2.2234  1.7550 -0.8862
  101MOL   H15916359   4.771   5.456   6.850 -0.0356 -0.9452  1.3549
  101MOL   H16016360   4.814   5.651   6.703 -1.8108  0.2071  2.4519
  101MOL   H16116361   4.968   5.572   6.697  0.7298 -0.6228  0.5376
  101MOL   H16216362   4.919   5.748   6.935 -0.7974 -0.1008 -0.2586
  102MOL     C116363   4.416   1.631   1.646  0.2540 -0.9242 -0.1414
  102MOL     C216364   4.529   1.703   1.566  0.2291 -1.0605 -0.3490
  102MOL     C316365   4.615   1.789   1.667  0.2751 -0.3167  0.3343
  102MOL     O416366   4.574   1.828   1.775 -0.7444  0.3865  0.3601
  102MOL     H516367   4.356   1.568   1.581 -1.4564 -0.3458  0.8392
  102MOL     H616368   4.467   1.578   1.726  1.7865  0.3298 -0.2555
  102MOL     H716369   4.491   1.780   1.499  0.2708  0.5213  1.3897
  102MOL     H816370   4.594   1.637   1.510  0.4007 -1.4826  0.3405
  102MOL     H916371   4.357   1.713   1.688 -0.2764 -1.3354 -0.0759
  102MOL    C1016372   4.758   1.828   1.640 -0.5109  0.1097  0.6731
  102MOL    C1116373   4.866   1.722   1.676 -0.1486  0.1540  0.3760
  102MOL    C1216374   4.924   1.653   1.554  0.5138 -0.0540  0.2600
  102MOL    O1316375   4.894   1.683   1.435 -0.8624  0.5317  0.6428
  102MOL    H1416376   4.782   1.929   1.672  3.0854 -0.7240  0.8272
  102MOL    H1516377   4.752   1.832   1.531 -0.2171  1.6213  0.6956
  102MOL    H1616378   4.834   1.649   1.750 -2.3765  1.1885  0.4979
  102MOL    H1716379   4.952   1.769   1.723 -1.0545 -0.5781  2.8577
  102MOL    C1816380   5.018   1.543   1.587 -0.3948 -0.5247  0.4314
  102MOL    C1916381   5.045   1.436   1.477 -0.1384  0.1476  0.4042
  102MOL    C2016382   4.980   1.301   1.507 -0.0210 -0.1019 -0.5883
  102MOL    O2116383   5.038   1.207   1.555  0.2532  0.3761 -0.3599
  102MOL    H2216384   4.975   1.493   1.674  1.8144  0.0470  1.8846
  102MOL    H2316385   5.105   1.602   1.616  0.1445 -0.7704 -0.6821
  102MOL    H2416386   5.150   1.407   1.475 -0.3526 -0.6770  1.1131
  102MOL    H2516387   5.007   1.457   1.377 -0.4735  0.5462  0.6145
  102MOL    C2616388   4.837   1.285   1.464  0.5740  0.0882 -0.4377
  102MOL    C2716389   4.749   1.202   1.562  0.5304  0.2583  0.4749
  102MOL    C2816390   4.673   1.295   1.652  0.8085 -0.5330 -0.4773
  102MOL    O2916391   4.733   1.389   1.706  0.5947 -0.0577  0.0128
  102MOL    H3016392   4.829   1.231   1.371  0.9678  0.3692 -0.6364
  102MOL    H3116393   4.785   1.379   1.447 -1.7458 -1.0304  0.2919
  102MOL    H3216394   4.803   1.118   1.606  0.2531 -0.4066 -0.4403
  102MOL    H3316395   4.667   1.155   1.506  0.1807  1.4043  0.0132
  102MOL    C3416396   4.525   1.262   1.673 -0.2180  0.8938  0.2120
  102MOL    C3516397   4.466   1.316   1.804 -0.0186 -0.6066 -0.1440
  102MOL    C3616398   4.308   1.318   1.810 -0.2694  0.5988 -0.3515
  102MOL    O3716399   4.235   1.289   1.713  0.3377  0.4814 -0.1097
  102MOL    H3816400   4.509   1.155   1.658  2.1484  0.8421 -2.4029
  102MOL    H3916401   4.481   1.312   1.587  0.0020 -1.6607 -1.4604
  102MOL    H4016402   4.507   1.414   1.831 -2.2491  0.2241  0.2970
  102MOL    H4116403   4.495   1.241   1.878 -0.1255 -0.2233  0.2873
  102MOL    C4216404   4.253   1.338   1.948  0.5006  0.2327  0.1848
  102MOL    C4316405   4.098   1.294   1.961  0.0221 -0.2846  1.8004
  102MOL    C4416406   4.084   1.148   2.009 -0.3577  0.2528 -0.7297
  102MOL    O4516407   4.172   1.070   2.002  0.2691 -0.1558 -0.4809
  102MOL    H4616408   4.255   1.446   1.964  0.4865  0.7382 -2.9196
  102MOL    H4716409   4.319   1.293   2.022 -1.1874 -1.3859  0.7403
  102MOL    H4816410   4.039   1.309   1.870  0.3565  1.1332  1.7962
  102MOL    H4916411   4.059   1.350   2.046  2.0300  2.8403  0.7567
  102MOL    C5016412   3.946   1.122   2.077 -0.5734  0.1490 -0.5442
  102MOL    C5116413   3.933   0.967   2.097 -0.9905  0.0788  0.2745
  102MOL    C5216414   4.013   0.915   2.218  0.0445 -0.0881 -0.4029
  102MOL    O5316415   4.086   0.993   2.285  0.3442  0.5091 -0.5998
  102MOL    H5416416   3.871   1.157   2.006 -2.6577 -1.6182  0.7009
  102MOL    H5516417   3.940   1.174   2.172  2.5648  0.6623 -0.6045
  102MOL    H5616418   3.967   0.907   2.013 -0.9520 -1.1808  1.1671
  102MOL    H5716419   3.832   0.932   2.118 -0.8054 -0.6049  0.0497
  102MOL    C5816420   4.004   0.766   2.251 -0.3095 -0.4681 -0.4280
  102MOL    C5916421   4.129   0.717   2.319 -0.5817  0.4380  0.2267
  102MOL    C6016422   4.214   0.645   2.217  0.0543 -0.0104  0.2311
  102MOL    O6116423   4.236   0.528   2.223 -0.2724  0.1634  0.0655
  102MOL    H6216424   3.981   0.716   2.157  0.4272 -1.8583  0.1205
  102MOL    H6316425   3.917   0.749   2.314 -0.3503 -2.2334 -0.9334
  102MOL    H6416426   4.095   0.643   2.392  0.9867 -0.3719  0.1445
  102MOL    H6516427   4.188   0.792   2.373 -0.4604 -0.3834  1.2474
  102MOL    C6616428   4.280   0.731   2.109 -0.0835  0.1592  0.3413
  102MOL    C6716429   4.378   0.827   2.172  0.1023  0.4092  0.4933
  102MOL    C6816430   4.507   0.837   2.093  0.1065  0.5071 -0.5559
  102MOL    O6916431   4.594   0.751   2.102 -0.4662  0.8149  0.0908
  102MOL    H7016432   4.212   0.786   2.045 -1.4682  0.7169  2.2458
  102MOL    H7116433   4.340   0.659   2.052 -1.7567 -0.7086 -0.3635
  102MOL    H7216434   4.407   0.803   2.274 -2.2114 -0.6179  0.9398
  102MOL    H7316435   4.327   0.924   2.170  0.1917  0.5007  2.1461
  102MOL    C7416436   4.527   0.952   2.001  0.0785  0.5812 -0.1596
  102MOL    C7516437   4.476   0.917   1.858  0.3707 -0.0898 -0.2763
  102MOL    C7616438   4.556   0.802   1.792  0.7901  0.3884  0.3795
  102MOL    O7716439   4.666   0.819   1.743 -0.5747 -0.5199 -0.6691
  102MOL    H7816440   4.635   0.969   1.992 -0.3475  3.8634  0.3243
  102MOL    H7916441   4.483   1.048   2.029 -0.5395 -0.2872  1.8866
  102MOL    H8016442   4.486   1.002   1.790  0.1301  0.3816  0.2700
  102MOL    H8116443   4.370   0.892   1.860  0.9808 -2.7814  1.8972
  102MOL    C8216444   4.490   0.662   1.789 -0.4090 -0.1646  0.3879
  102MOL    C8316445   4.581   0.551   1.856 -0.1242  0.7357 -0.1323
  102MOL    C8416446   4.575   0.408   1.786  1.1649  0.1858  0.7536
  102MOL    O8516447   4.501   0.379   1.694  0.4183  0.3139  0.3736
  102MOL    H8616448   4.467   0.624   1.689  2.3295 -0.0166 -0.3400
  102MOL    H8716449   4.400   0.653   1.850  1.1050 -0.2516  2.6697
  102MOL    H8816450   4.556   0.542   1.962 -0.2587  1.4886 -0.0977
  102MOL    H8916451   4.688   0.571   1.851  0.3391 -1.9856 -2.1902
  102MOL    C9016452   4.662   0.300   1.851 -0.3147  0.8746 -0.1897
  102MOL    C9116453   4.669   0.172   1.770 -0.2713 -0.4048 -0.0172
  102MOL    C9216454   4.786   0.080   1.803  0.2967  0.2600 -0.9543
  102MOL    O9316455   4.831   0.076   1.917  0.0256  0.2188  0.4960
  102MOL    H9416456   4.626   0.279   1.951  2.5230 -1.2939  0.4408
  102MOL    H9516457   4.757   0.354   1.861  0.9572 -1.2003 -0.8417
  102MOL    H9616458   4.678   0.191   1.663 -1.2642  1.0734  0.1436
  102MOL    H9716459   4.577   0.113   1.775  0.6941 -1.9637 -0.5799
  102MOL    C9816460   4.846   0.003   1.688  0.6349 -0.0431  0.3273
  102MOL    C9916461   4.955   7.758   1.725  0.3225 -0.0671 -0.4598
  102MOL   C10016462   5.081   7.769   1.636  0.2373  0.1351 -0.3093
  102MOL   O10116463   5.118   0.020   1.586  0.5421  0.4699 -0.1350
  102MOL   H10216464   4.884   0.077   1.618 -2.1656 -1.7539 -3.1817
  102MOL   H10316465   4.768   7.811   1.631  0.9824  2.2366 -2.2739
  102MOL   H10416466   4.920   7.655   1.726 -0.5228  0.1963 -1.4855
  102MOL   H10516467   4.980   7.775   1.830 -1.2767 -2.2520  0.3095
  102MOL   C10616468   5.164   7.638   1.628 -0.2619 -1.1656 -0.7472
  102MOL   C10716469   5.233   7.613   1.495  0.7039  0.8138 -0.4085
  102MOL   C10816470   5.372   7.674   1.485 -0.0316  0.3030 -0.3133
  102MOL   O10916471   5.423   7.736   1.582 -0.6085  0.2713  0.0261
  102MOL   H11016472   5.103   7.551   1.654  0.1997 -1.3721 -0.3292
  102MOL   H11116473   5.242   7.639   1.705 -1.5654 -1.0516  0.5955
  102MOL   H11216474   5.179   7.631   1.402 -0.2146  0.0232 -0.0297
  102MOL   H11316475   5.269   7.511   1.486  3.0411  1.3873  1.8455
  102MOL   C11416476   5.442   7.668   1.353  0.2478 -0.8802 -0.0022
  102MOL   C11516477   5.427   7.812   1.287  0.6936  0.8861  0.0521
  102MOL   C11616478   5.560   0.016   1.251  0.1078 -0.0531  0.2016
  102MOL   O11716479   5.653   0.004   1.329  0.4662  0.5438  0.6450
  102MOL   H11816480   5.389   7.596   1.291  0.5706 -1.1627  0.0477
  102MOL   H11916481   5.544   7.632   1.362  0.6465 -0.8719 -3.6003
  102MOL   H12016482   5.370   0.026   1.345  0.2803 -0.7538  1.7343
  102MOL   H12116483   5.369   7.818   1.194  0.1040  2.8099  0.5167
  102MOL   C12216484   5.563   0.103   1.121 -0.1898 -0.3237  0.0946
  102MOL   C12316485   5.690   0.084   1.031 -0.0296  0.6570  0.1439
  102MOL   C12416486   5.774   0.209   1.004  0.2126  0.0748 -1.1801
  102MOL   O12516487   5.767   0.261   0.898  0.6006  0.0886 -0.0670
  102MOL   H12616488   5.577   0.206   1.153 -1.6137 -0.1018  0.0116
  102MOL   H12716489   5.473   0.110   1.060  1.5158 -0.8363 -2.5814
  102MOL   H12816490   5.664   0.035   0.936  1.1145 -0.9057  0.6192
  102MOL   H12916491   5.751   0.003   1.069 -1.5510 -0.1206  0.9577
  102MOL   C13016492   5.878   0.253   1.102  0.0501  0.0731 -0.0848
  102MOL   C13116493   5.917   0.395   1.105  0.3518 -0.1575  0.4058
  102MOL   C13216494   5.829   0.473   1.202 -0.0488 -0.1933  0.0243
  102MOL   O13316495   5.724   0.517   1.171 -0.2008  0.7391 -0.1700
  102MOL   H13416496   5.966   0.191   1.084 -0.2335 -0.7379  1.2443
  102MOL   H13516497   5.844   0.224   1.201 -0.2085  1.2794  0.1879
  102MOL   H13616498   5.932   0.432   1.003 -0.9739 -0.4890  0.0767
  102MOL   H13716499   6.016   0.410   1.148 -0.0648  2.2284  0.6233
  102MOL   C13816500   5.884   0.496   1.345 -0.4336 -0.4934  0.2394
  102MOL   C13916501   5.784   0.543   1.459  0.0570  0.2447  0.4942
  102MOL   C14016502   5.846   0.594   1.585 -0.2695 -0.1528  0.0331
  102MOL   O14116503   5.964   0.585   1.600  0.3094  0.3133  0.0893
  102MOL   H14216504   5.953   0.579   1.331 -1.0863 -0.2347 -1.6471
  102MOL   H14316505   5.926   0.402   1.382 -2.2353 -0.9725  1.1333
  102MOL   H14416506   5.728   0.451   1.481  2.9054 -1.3587  1.2471
  102MOL   H14516507   5.713   0.610   1.410  0.0082  0.8562  1.3932
  102MOL   C14616508   5.755   0.646   1.695  0.3432 -0.1221  0.1359
  102MOL   C14716509   5.824   0.664   1.835  0.8569 -0.8198 -0.8588
  102MOL   C14816510   5.841   0.529   1.901  0.2137 -0.4376 -0.2033
  102MOL   O14916511   5.946   0.457   1.892  0.2475 -0.0981 -0.1121
  102MOL   H15016512   5.671   0.578   1.705 -1.4986  2.3723  2.6473
  102MOL   H15116513   5.714   0.744   1.668  0.5106 -0.2339 -0.5132
  102MOL   H15216514   5.763   0.725   1.902  0.4374 -1.6387 -0.4867
  102MOL   H15316515   5.926   0.701   1.839 -0.2363  2.1716  0.8184
  102MOL   C15416516   5.717   0.485   1.984 -0.5355 -0.1642 -0.2059
  102MOL   C15516517   5.697   0.336   1.997  0.5582 -0.0189  0.2962
  102MOL   C15616518   5.665   0.287   2.135 -0.1521 -0.6452  0.2794
  102MOL   O15716519   5.712   0.351   2.234  0.4716  0.6564 -0.1976
  102MOL   H15816520   5.627   0.525   1.938 -0.9758 -1.4662 -0.5110
  102MOL   H15916521   5.712   0.538   2.079  0.6455  0.5838 -0.5517
  102MOL   H16016522   5.777   0.271   1.962  1.8115  0.8591  1.5059
  102MOL   H16116523   5.608   0.306   1.942 -0.0888  1.4822  0.4975
  102MOL   H16216524   5.598   0.201   2.142  0.6988 -1.2390  1.4294
  103MOL     C116525   0.650   7.383   4.070  0.2193  0.1414 -0.2311
  103MOL     C216526   0.558   7.471   4.146  0.0251 -0.3534  0.1947
  103MOL     C316527   0.531   7.438   4.289 -0.3099 -0.6768 -0.3705
  103MOL     O416528   0.592   7.352   4.354  0.4899 -0.6262  0.5352
  103MOL     H516529   0.752   7.380   4.107 -0.0006  1.5961  0.5380
  103MOL     H616530   0.611   7.283   4.049 -1.0412  0.6355 -0.2775
  103MOL     H716531   0.463   7.485   4.095  0.1998 -2.0147 -0.5862
  103MOL     H816532   0.606   7.570   4.141  0.1446 -0.3035  2.0504
  103MOL     H916533   0.650   7.438   3.976 -0.8417  0.0419 -0.2924
  103MOL    C1016534   0.439   7.538   4.361  0.3135 -0.9212 -1.0331
  103MOL    C1116535   0.465   7.546   4.512 -0.2007 -0.3478  0.2081
  103MOL    C1216536   0.351   7.501   4.595 -0.4180 -0.2341  0.0413
  103MOL    O1316537   0.241   7.558   4.600  0.2597  0.5874 -0.1029
  103MOL    H1416538   0.334   7.517   4.340  0.2797 -1.7709 -0.0727
  103MOL    H1516539   0.444   7.638   4.318 -0.7435 -1.2049 -1.8438
  103MOL    H1616540   0.500   7.640   4.554  0.0733  0.0534 -0.8771
  103MOL    H1716541   0.550   7.484   4.538 -0.5462 -0.8000  0.2722
  103MOL    C1816542   0.387   7.385   4.688  0.1515  0.3806 -0.4989
  103MOL    C1916543   0.264   7.331   4.755  0.4729 -0.0649  0.2805
  103MOL    C2016544   0.297   7.214   4.852 -0.4055  0.0176  0.2608
  103MOL    O2116545   0.313   7.102   4.803  0.4129 -0.2323  0.2975
  103MOL    H2216546   0.455   7.416   4.767 -0.1429  2.0944 -0.9160
  103MOL    H2316547   0.439   7.298   4.648  1.7233  0.1891  1.8645
  103MOL    H2416548   0.193   7.285   4.686 -0.7716 -0.8308  2.0359
  103MOL    H2516549   0.225   7.413   4.815  0.8975  0.6269 -0.3907
  103MOL    C2616550   0.319   7.243   4.998 -0.3253 -1.0014 -0.3416
  103MOL    C2716551   0.360   7.111   5.082 -1.1049 -0.4561  0.3976
  103MOL    C2816552   0.453   7.154   5.190 -0.8528  0.2932  0.2945
  103MOL    O2916553   0.521   7.260   5.180 -0.4895 -0.3486  0.1211
  103MOL    H3016554   0.246   7.309   5.045  1.4231  2.0152 -1.6785
  103MOL    H3116555   0.407   7.307   4.991 -1.0978  0.3067  1.5063
  103MOL    H3216556   0.406   7.033   5.022 -0.3974  0.5735 -0.4092
  103MOL    H3316557   0.272   7.066   5.128 -1.7681  0.0319 -0.3813
  103MOL    C3416558   0.462   7.065   5.305 -0.1457 -0.2043 -0.0804
  103MOL    C3516559   0.517   7.132   5.437 -0.0413 -0.4936 -0.1970
  103MOL    C3616560   0.667   7.133   5.457  0.0319 -0.5034 -0.3658
  103MOL    O3716561   0.729   7.231   5.422  0.0931  0.3032  0.0831
  103MOL    H3816562   0.510   6.969   5.287 -1.2985 -0.9689  0.8060
  103MOL    H3916563   0.358   7.035   5.318 -0.2393  0.1485 -0.0130
  103MOL    H4016564   0.487   7.077   5.526  0.9112 -1.3029 -0.3575
  103MOL    H4116565   0.488   7.236   5.453  1.4899 -0.1551  0.5442
  103MOL    C4216566   0.727   7.008   5.521 -0.1593 -0.7909  0.2185
  103MOL    C4316567   0.880   7.020   5.516  0.4175 -0.7230  0.9313
  103MOL    C4416568   0.931   7.097   5.636  0.5875 -1.0237  0.5610
  103MOL    O4516569   0.854   7.131   5.728 -0.0686  0.1180  0.7531
  103MOL    H4616570   0.697   6.919   5.467 -0.4087  0.6240 -2.0646
  103MOL    H4716571   0.690   7.010   5.623  1.7121 -0.1625  0.9099
  103MOL    H4816572   0.903   7.068   5.421  1.2592 -1.6270  0.6647
  103MOL    H4916573   0.921   6.919   5.525 -0.4404 -1.2547 -0.9613
  103MOL    C5016574   1.081   7.130   5.652 -0.4817  0.2806  0.7077
  103MOL    C5116575   1.106   7.241   5.752  0.8087  0.2054 -0.3156
  103MOL    C5216576   1.237   7.316   5.742  0.4768  0.8232  0.7253
  103MOL    O5316577   1.337   7.269   5.693  0.3927  0.2115 -0.0236
  103MOL    H5416578   1.135   7.156   5.560 -0.5433  0.7319  0.7991
  103MOL    H5516579   1.136   7.043   5.688 -0.0203 -0.0905 -0.8377
  103MOL    H5616580   1.097   7.207   5.855  0.6894 -0.4283 -0.5294
  103MOL    H5716581   1.025   7.311   5.730  0.3486  0.0008  0.6990
  103MOL    C5816582   1.232   7.460   5.798  0.4303  0.6992 -0.0442
  103MOL    C5916583   1.371   7.505   5.843  0.6791  0.3325  0.2313
  103MOL    C6016584   1.369   7.605   5.952 -0.5355 -0.4021  0.0543
  103MOL    O6116585   1.451   7.603   6.039 -0.6133  0.5061 -0.5684
  103MOL    H6216586   1.174   7.457   5.891  0.4637  1.0117 -0.0117
  103MOL    H6316587   1.192   7.519   5.716  0.9972 -0.1652 -0.9492
  103MOL    H6416588   1.434   7.542   5.762 -0.5097  1.3435 -0.2532
  103MOL    H6516589   1.434   7.420   5.868 -0.3996 -1.8439 -3.9467
  103MOL    C6616590   1.277   7.730   5.941  0.3683  0.5338  0.4196
  103MOL    C6716591   1.144   7.702   6.013 -0.4101 -0.0660 -0.2991
  103MOL    C6816592   1.015   7.724   5.936 -0.5265  0.4018  0.2631
  103MOL    O6916593   1.005   7.765   5.819 -0.3806 -0.1576 -0.4530
  103MOL    H7016594   1.253   7.766   5.841 -1.4238  0.1574  0.7046
  103MOL    H7116595   1.334   7.809   5.989  1.4205  0.8230 -1.2602
  103MOL    H7216596   1.135   7.779   6.090 -3.1072  0.3825 -1.0268
  103MOL    H7316597   1.148   7.609   6.071  0.2917  1.4344  2.1239
  103MOL    C7416598   0.891   7.698   6.022  0.1672 -0.0637 -0.9503
  103MOL    C7516599   0.767   7.654   5.942 -0.1606 -0.1873  0.1640
  103MOL    C7616600   0.782   7.505   5.908  0.1376 -0.5222  0.4743
  103MOL    O7716601   0.884   7.441   5.911  0.4663  0.9367 -0.8238
  103MOL    H7816602   0.864   7.787   6.079  3.1281  0.4326 -0.2553
  103MOL    H7916603   0.904   7.612   6.088 -0.9385  1.8818  1.8890
  103MOL    H8016604   0.742   7.715   5.855  2.0995  1.3179  0.5523
  103MOL    H8116605   0.687   7.662   6.016 -2.6595  1.3284 -2.5895
  103MOL    C8216606   0.650   7.435   5.858 -0.3017 -0.1392 -0.1936
  103MOL    C8316607   0.591   7.326   5.943 -0.2996  0.1732  0.4897
  103MOL    C8416608   0.507   7.226   5.859 -0.5426 -0.0080 -0.5037
  103MOL    O8516609   0.445   7.260   5.758 -0.2829 -0.5566 -0.2607
  103MOL    H8616610   0.671   7.386   5.763  0.4727 -1.2074  0.5124
  103MOL    H8716611   0.575   7.513   5.846  0.0274  0.1212 -0.5310
  103MOL    H8816612   0.529   7.368   6.022 -1.0032 -1.5324  0.8463
  103MOL    H8916613   0.668   7.265   5.991  0.7709  2.2218  1.4754
  103MOL    C9016614   0.517   7.080   5.890  0.1348 -0.0991 -0.0593
  103MOL    C9116615   0.461   7.032   6.024  0.5150  0.1768 -0.4531
  103MOL    C9216616   0.468   6.879   6.050  0.2776  0.1091  0.6317
  103MOL    O9316617   0.506   6.794   5.967 -0.7140 -0.5610 -0.4182
  103MOL    H9416618   0.623   7.053   5.895  0.0707 -0.4977 -0.8878
  103MOL    H9516619   0.477   7.015   5.813  1.9505 -2.4284  0.8908
  103MOL    H9616620   0.356   7.062   6.029  0.1911 -0.8865 -0.7142
  103MOL    H9716621   0.514   7.084   6.104 -2.1374  3.5154 -0.7675
  103MOL    C9816622   0.446   6.827   6.196 -0.2493 -0.1307  0.6742
  103MOL    C9916623   0.559   6.827   6.305 -0.1048  0.3199 -0.0629
  103MOL   C10016624   0.552   6.948   6.396  0.0379  0.3407  0.5965
  103MOL   O10116625   0.486   7.046   6.366 -0.7290 -0.2548 -0.4088
  103MOL   H10216626   0.409   6.726   6.181  1.8149 -0.5948 -1.5157
  103MOL   H10316627   0.365   6.894   6.228  0.2555  1.0147 -0.4245
  103MOL   H10416628   0.653   6.822   6.249  0.9756 -0.0785  1.7389
  103MOL   H10516629   0.549   6.733   6.358  0.8712  1.5269  2.3384
  103MOL   C10616630   0.623   6.941   6.532  0.2482 -0.3785  0.6134
  103MOL   C10716631   0.543   6.863   6.643  0.4351 -0.2778 -0.3174
  103MOL   C10816632   0.624   6.803   6.755 -0.6114 -0.1844  0.1442
  103MOL   O10916633   0.748   6.812   6.753 -0.2655  0.3911 -0.0123
  103MOL   H11016634   0.649   7.038   6.576 -2.3941  1.0299 -0.8203
  103MOL   H11116635   0.709   6.881   6.504 -0.6910 -1.1745 -0.5925
  103MOL   H11216636   0.507   6.771   6.596  0.2760  0.1296 -0.9968
  103MOL   H11316637   0.454   6.923   6.661 -0.0512 -0.8991 -0.6404
  103MOL   C11416638   0.554   6.742   6.876  0.3114 -0.1253 -0.3039
  103MOL   C11516639   0.649   6.658   6.964 -0.2334 -0.1006 -0.6054
  103MOL   C11616640   0.628   6.674   7.114  0.8013  0.0873 -0.9556
  103MOL   O11716641   0.536   6.734   7.162 -0.1477  0.9020  0.5587
  103MOL   H11816642   0.472   6.681   6.840  1.1770  0.4088 -3.2847
  103MOL   H11916643   0.501   6.817   6.935  1.6146  1.5523 -1.1932
  103MOL   H12016644   0.747   6.704   6.955 -1.0144  1.7290 -0.0932
  103MOL   H12116645   0.649   6.554   6.933  2.5604 -0.1321 -0.5513
  103MOL   C12216646   0.741   6.622   7.195  0.0960 -0.0589 -0.0064
  103MOL   C12316647   0.754   6.684   7.335 -0.0806 -0.3732 -0.1995
  103MOL   C12416648   0.831   6.596   7.429  0.1166  0.8076  0.9041
  103MOL   O12516649   0.812   6.476   7.423 -0.1139 -0.0698  0.6558
  103MOL   H12616650   0.835   6.639   7.141  0.6905  2.0506  1.6328
  103MOL   H12716651   0.731   6.514   7.190  0.9365 -0.0740 -2.1368
  103MOL   H12816652   0.658   6.709   7.380 -0.2656  1.4374 -1.5393
  103MOL   H12916653   0.799   6.783   7.321  1.0436 -0.9000 -0.3764
  103MOL   C13016654   0.938   6.651   7.520 -0.4819  0.3280  0.2082
  103MOL   C13116655   0.969   6.561   7.646  0.0392 -0.4390 -0.0136
  103MOL   C13216656   0.893   6.603   7.771  0.2277 -0.1566  0.2511
  103MOL   O13316657   0.794   6.671   7.765  0.3055 -0.0753 -0.4022
  103MOL   H13416658   0.920   6.754   7.550 -1.5136 -0.1772  1.3357
  103MOL   H13516659   1.012   6.660   7.440 -0.4214  3.1754  0.5322
  103MOL   H13616660   1.076   6.571   7.666 -0.0164  0.4271 -0.1063
  103MOL   H13716661   0.942   6.460   7.617 -0.4576  0.1242 -1.5507
  103MOL   C13816662   0.944   6.541   0.044 -0.4894  0.5466 -0.0495
  103MOL   C13916663   0.884   6.605   0.171 -0.0832  0.6844  0.6965
  103MOL   C14016664   0.852   6.499   0.283 -0.2832  0.4044 -0.1981
  103MOL   O14116665   0.850   6.379   0.253  0.1725 -0.0514  0.0973
  103MOL   H14216666   1.050   6.559   0.057 -0.4115  0.5905 -0.7131
  103MOL   H14316667   0.944   6.432   0.036  1.1457  0.5978 -0.9303
  103MOL   H14416668   0.786   6.641   0.142  1.3310  3.2718 -1.0506
  103MOL   H14516669   0.946   6.684   0.212  0.7308 -0.7536  2.3312
  103MOL   C14616670   0.827   6.550   0.421 -0.2970 -0.6852 -0.6203
  103MOL   C14716671   0.840   6.444   0.530  0.1772  1.1311  0.2877
  103MOL   C14816672   0.976   6.422   0.587 -0.6338  0.8326 -0.7255
  103MOL   O14916673   1.044   6.517   0.625 -0.1078  0.2877 -0.0595
  103MOL   H15016674   0.722   6.576   0.429  0.0854  0.5742  0.4234
  103MOL   H15116675   0.885   6.640   0.438 -0.4519 -0.4908 -1.0925
  103MOL   H15216676   0.785   6.354   0.503 -1.2646  2.0879  0.0225
  103MOL   H15316677   0.775   6.481   0.609 -2.1413 -2.0033 -0.0860
  103MOL   C15416678   1.018   6.280   0.615  0.1751 -1.2547 -0.3572
  103MOL   C15516679   1.160   6.278   0.685  0.2945 -0.1751  0.0520
  103MOL   C15616680   1.243   6.155   0.659  0.3076 -0.1666  0.1981
  103MOL   O15716681   1.213   6.066   0.579 -0.0117  0.6716 -0.1456
  103MOL   H15816682   1.025   6.233   0.517  0.2394 -0.0809 -0.9199
  103MOL   H15916683   0.949   6.228   0.682 -0.6552 -0.2090 -0.3887
  103MOL   H16016684   1.151   6.302   0.791 -0.3757 -4.1128  0.9725
  103MOL   H16116685   1.220   6.361   0.648 -2.2960  2.1381  0.9201
  103MOL   H16216686   1.328   6.155   0.727  0.0376 -2.1108  0.5907
  104MOL     C116687   6.456   0.455   4.685 -0.8119  0.4715  0.1597
  104MOL     C216688   6.588   0.530   4.675  0.1987 -0.4057 -0.4783
  104MOL     C316689   6.706   0.453   4.724 -0.0913  0.7164 -0.2515
  104MOL     O416690   6.697   0.329   4.737 -0.1912 -0.0282 -0.1405
  104MOL     H516691   6.451   0.383   4.603 -0.5940 -1.0332  1.4284
  104MOL     H616692   6.452   0.402   4.780  0.0120  0.8238  0.3950
  104MOL     H716693   6.577   0.621   4.734  0.2056 -1.4344  1.1066
  104MOL     H816694   6.610   0.562   4.572  0.1906  0.7499 -0.1314
  104MOL     H916695   6.366   0.517   4.682 -1.0495  0.0833 -1.0288
  104MOL    C1016696   6.840   0.520   4.768  0.0954 -0.2883  0.0961
  104MOL    C1116697   6.898   0.500   4.910 -1.3735  0.3866  0.2035
  104MOL    C1216698   6.875   0.618   5.000  1.4502 -0.0586 -0.4623
  104MOL    O1316699   6.792   0.703   4.973  0.1033  0.0066  0.4942
  104MOL    H1416700   6.816   0.625   4.754 -0.0253 -0.4478 -0.9750
  104MOL    H1516701   6.915   0.508   4.690 -2.0719  1.0993 -2.3094
  104MOL    H1616702   7.006   0.503   4.904 -1.3451 -0.6923  0.2195
  104MOL    H1716703   6.869   0.406   4.957  1.2140  0.3391  1.8098
  104MOL    C1816704   6.958   0.626   5.130  0.5494  0.9048 -0.4296
  104MOL    C1916705   6.869   0.647   5.250 -0.4715 -1.0811  0.1660
  104MOL    C2016706   6.901   0.774   5.324 -0.1134  0.4212 -0.5612
  104MOL    O2116707   6.971   0.776   5.430  0.2506 -0.1639 -0.0246
  104MOL    H2216708   7.034   0.704   5.122 -0.7163  2.2098  0.0612
  104MOL    H2316709   7.015   0.534   5.143 -0.9860 -0.2236 -1.4987
  104MOL    H2416710   6.858   0.562   5.317 -4.4480  0.3839  1.5091
  104MOL    H2516711   6.765   0.665   5.224 -0.4452 -0.4641  0.4587
  104MOL    C2616712   6.834   0.900   5.264 -0.2285 -0.4777  1.4139
  104MOL    C2716713   6.863   1.034   5.340  0.0977  1.0080 -0.5181
  104MOL    C2816714   6.973   1.115   5.278 -0.3134  0.6613 -0.0686
  104MOL    O2916715   7.064   1.061   5.210 -0.0281  0.3387  0.3650
  104MOL    H3016716   6.726   0.887   5.270 -0.6517  1.4099 -1.1665
  104MOL    H3116717   6.881   0.899   5.165  2.4975 -0.7080  2.6638
  104MOL    H3216718   6.890   1.020   5.444  0.2417 -0.3107 -0.7133
  104MOL    H3316719   6.771   1.092   5.334 -1.8681 -2.0141 -0.6625
  104MOL    C3416720   6.956   1.268   5.287  0.1490 -0.0355 -0.0231
  104MOL    C3516721   7.036   1.345   5.177 -0.0657  0.1422  0.0661
  104MOL    C3616722   6.967   1.460   5.108  1.2641  0.0737  0.1717
  104MOL    O3716723   6.861   1.507   5.156  0.2361 -0.2789  0.5476
  104MOL    H3816724   6.973   1.313   5.386 -1.7276 -0.7639  0.6445
  104MOL    H3916725   6.851   1.294   5.274  0.5279  1.2288 -0.6567
  104MOL    H4016726   7.075   1.270   5.108  1.9197  2.2017 -1.1277
  104MOL    H4116727   7.123   1.396   5.218  0.2743 -1.0539  0.8534
  104MOL    C4216728   7.033   1.506   4.979 -0.2278  0.2337 -1.3899
  104MOL    C4316729   6.971   1.639   4.933  0.3227  0.4607  0.5753
  104MOL    C4416730   7.042   1.715   4.821  0.3852 -0.0678 -0.3724
  104MOL    O4516731   7.166   1.723   4.808  0.1876 -0.6985 -0.0397
  104MOL    H4616732   7.029   1.422   4.910 -0.3868 -1.3431  0.4883
  104MOL    H4716733   7.138   1.517   5.004 -0.4672  0.7512 -0.5974
  104MOL    H4816734   6.958   1.701   5.022 -0.3393  1.2905 -0.0967
  104MOL    H4916735   6.866   1.625   4.909  0.0472 -0.9088  2.4263
  104MOL    C5016736   6.957   1.795   4.728 -0.3470  0.5415  0.5314
  104MOL    C5116737   6.985   1.751   4.584 -0.3057  0.1444 -0.4539
  104MOL    C5216738   6.961   1.864   4.478  0.2747 -0.3754  0.7612
  104MOL    O5316739   7.019   1.974   4.478  0.9960  0.1455 -0.3645
  104MOL    H5416740   6.988   1.898   4.742 -2.0175  0.9700  1.1385
  104MOL    H5516741   6.849   1.791   4.745 -0.1496  0.6346  1.8007
  104MOL    H5616742   6.912   1.680   4.546  1.0951  0.2525 -3.4979
  104MOL    H5716743   7.079   1.697   4.578 -0.3178  0.1089 -0.3332
  104MOL    C5816744   6.881   1.827   4.358  0.5064  0.9309 -1.0301
  104MOL    C5916745   6.790   1.941   4.310 -0.0323  0.0623  0.4830
  104MOL    C6016746   6.653   1.933   4.374 -0.4911 -0.6659  0.0334
  104MOL    O6116747   6.630   1.853   4.465  0.2990  0.3859  0.3258
  104MOL    H6216748   6.822   1.736   4.374  0.3312  1.4654  1.5779
  104MOL    H6316749   6.949   1.809   4.275  3.2208  0.4768  1.2304
  104MOL    H6416750   6.780   1.923   4.203  3.9936  0.8147 -0.1147
  104MOL    H6516751   6.827   2.043   4.322 -0.3538  0.6142 -2.7788
  104MOL    C6616752   6.553   2.038   4.326  0.2515  0.1510 -0.0148
  104MOL    C6716753   6.496   2.111   4.439  0.0381 -0.2216 -0.1381
  104MOL    C6816754   6.484   2.259   4.409 -0.3878 -0.1039 -0.5881
  104MOL    O6916755   6.556   2.324   4.333 -0.2484  0.1309  0.3567
  104MOL    H7016756   6.465   1.991   4.282  0.8961 -0.2612 -0.8713
  104MOL    H7116757   6.602   2.105   4.256  0.6857  1.1141  1.1882
  104MOL    H7216758   6.549   2.082   4.529 -1.8949 -2.2422  0.3867
  104MOL    H7316759   6.397   2.068   4.452 -0.6629  0.5196 -2.6910
  104MOL    C7416760   6.369   2.331   4.482  0.0831  0.2088 -0.2810
  104MOL    C7516761   6.420   2.402   4.610  0.1290 -0.1166 -0.0080
  104MOL    C7616762   6.415   2.308   4.730  0.0353  0.7595  0.2203
  104MOL    O7716763   6.410   2.177   4.717 -0.1728 -0.5240 -0.4168
  104MOL    H7816764   6.281   2.272   4.509  0.8815 -1.5048 -1.3214
  104MOL    H7916765   6.337   2.412   4.416  1.9203  2.0691  1.0598
  104MOL    H8016766   6.355   2.488   4.623  2.5391  2.0012 -1.4751
  104MOL    H8116767   6.525   2.429   4.597 -0.1470  1.0148  0.0954
  104MOL    C8216768   6.427   2.370   4.862  0.6309  0.1214 -0.9283
  104MOL    C8316769   6.380   2.290   4.979 -0.6820  0.4998 -0.3523
  104MOL    C8416770   6.459   2.306   5.102  0.0664  0.2030  0.1798
  104MOL    O8516771   6.549   2.228   5.116  0.6146 -0.1247 -0.5026
  104MOL    H8616772   6.369   2.462   4.855  0.2064  0.1885  2.5602
  104MOL    H8716773   6.527   2.408   4.886 -0.6337  0.9706  3.3075
  104MOL    H8816774   6.391   2.183   4.963 -2.8482 -0.2862  2.8364
  104MOL    H8916775   6.276   2.318   4.995 -0.3913  2.4568 -1.6886
  104MOL    C9016776   6.439   2.416   5.199  0.3377 -0.1502 -0.0763
  104MOL    C9116777   6.559   2.452   5.284 -0.0549 -0.3627 -0.4068
  104MOL    C9216778   6.558   2.371   5.416  0.3359 -0.0492  0.2340
  104MOL    O9316779   6.478   2.278   5.425 -0.1317  0.2951  0.4974
  104MOL    H9416780   6.343   2.403   5.248 -1.5941  2.9027 -2.8082
  104MOL    H9516781   6.414   2.505   5.141 -1.2319  0.6364  1.7636
  104MOL    H9616782   6.538   2.554   5.315  0.3469 -0.3800 -0.0663
  104MOL    H9716783   6.662   2.453   5.248  0.8756 -1.8332  2.0234
  104MOL    C9816784   6.650   2.411   5.531 -0.3170 -0.4227 -0.8560
  104MOL    C9916785   6.639   2.322   5.653  0.6110  0.9693  0.1023
  104MOL   C10016786   6.769   2.304   5.727 -0.1926  0.1563 -0.2229
  104MOL   O10116787   6.823   2.393   5.800 -0.0539 -0.7294 -0.3364
  104MOL   H10216788   6.640   2.516   5.560 -1.1093 -0.6707 -0.1987
  104MOL   H10316789   6.753   2.410   5.498  0.8289  1.2784  2.4803
  104MOL   H10416790   6.615   2.222   5.617 -1.2899  0.9816  1.2294
  104MOL   H10516791   6.555   2.361   5.710  1.4300  1.1922  1.1857
  104MOL   C10616792   6.846   2.175   5.696  1.5051 -0.7106  0.5208
  104MOL   C10716793   6.972   2.150   5.783 -0.1547  0.3434  0.0038
  104MOL   C10816794   6.941   2.069   5.907 -0.3019  0.2917 -0.1922
  104MOL   O10916795   6.828   2.039   5.943  0.3155 -0.2643  0.8572
  104MOL   H11016796   6.870   2.193   5.591 -3.5158  1.2704 -0.4123
  104MOL   H11116797   6.776   2.093   5.705  0.5563  0.1198  0.8085
  104MOL   H11216798   7.013   2.246   5.814  0.1572 -0.5187  2.3718
  104MOL   H11316799   7.045   2.088   5.732  1.0825  2.2534 -0.5852
  104MOL   C11416800   7.065   2.027   5.987 -0.1043 -0.1715  0.7633
  104MOL   C11516801   7.027   1.953   6.118  0.3482  0.2555  0.2926
  104MOL   C11616802   7.057   1.803   6.107 -0.1311 -0.1194 -0.0679
  104MOL   O11716803   7.047   1.746   6.001  0.3030  0.3437  0.2373
  104MOL   H11816804   7.126   2.115   6.002 -0.2348 -0.1518  1.1641
  104MOL   H11916805   7.121   1.962   5.919  1.8403  1.7135  0.5356
  104MOL   H12016806   6.922   1.971   6.143 -0.4772 -1.3107 -1.8889
  104MOL   H12116807   7.075   2.003   6.202  0.3603  0.5018  0.1396
  104MOL   C12216808   7.104   1.734   6.233  0.9319 -0.6928  0.3240
  104MOL   C12316809   7.129   1.579   6.222  0.7695 -0.0534  0.7173
  104MOL   C12416810   7.196   1.528   6.349  0.3317  0.6043 -0.1533
  104MOL   O12516811   7.181   1.595   6.450  0.8438  0.5012 -0.7169
  104MOL   H12616812   7.027   1.732   6.309  1.0828  1.2540  0.5500
  104MOL   H12716813   7.190   1.776   6.285 -0.1643 -0.1016  1.6636
  104MOL   H12816814   7.184   1.557   6.131  1.1604  1.1112  0.6589
  104MOL   H12916815   7.031   1.538   6.201  0.9415  0.6688 -1.5694
  104MOL   C13016816   7.293   1.405   6.353  0.7844 -1.0788  0.6886
  104MOL   C13116817   7.356   1.386   6.492 -0.1912  0.4491  0.3953
  104MOL   C13216818   7.473   1.290   6.483 -0.2283 -0.0481  0.4830
  104MOL   O13316819   7.551   1.289   6.386 -0.8325 -0.0882  0.5924
  104MOL   H13416820   7.370   1.433   6.280 -1.7099  0.1704 -1.5244
  104MOL   H13516821   7.240   1.319   6.312 -0.8696 -0.3975  1.3933
  104MOL   H13616822   7.273   1.364   6.559  0.5889  0.4793  1.3838
  104MOL   H13716823   7.400   1.475   6.535  2.7868  0.1207 -1.7812
  104MOL   C13816824   7.509   1.197   6.599 -0.5984  0.8506 -0.4737
  104MOL   C13916825   7.652   1.204   6.649  0.0459  0.0069 -0.2433
  104MOL   C14016826   7.706   1.061   6.643  0.4914 -0.0479  0.2132
  104MOL   O14116827   7.679   0.985   6.736 -0.4509 -0.0065 -0.0805
  104MOL   H14216828   7.476   1.096   6.572 -0.5115  0.4969  0.6904
  104MOL   H14316829   7.448   1.228   6.684 -0.5225  1.3093 -0.5850
  104MOL   H14416830   7.655   1.229   6.755 -1.5249  0.9602 -0.4035
  104MOL   H14516831   7.725   1.269   6.601  0.3722  0.2125  0.5144
  104MOL   C14616832   7.785   1.016   6.518  0.0345 -0.1730 -0.8617
  104MOL   C14716833   0.013   0.892   6.531  0.2068  0.4886 -0.1307
  104MOL   C14816834   0.149   0.926   6.475  0.2977  0.0479  0.3635
  104MOL   O14916835   0.170   0.906   6.356 -0.0532  0.1435 -0.2676
  104MOL   H15016836   7.853   1.093   6.481  0.6895 -0.3063  0.0505
  104MOL   H15116837   7.706   0.991   6.447  0.1762  4.6372 -2.8643
  104MOL   H15216838   7.828   0.808   6.478 -0.2224  0.5450  0.1320
  104MOL   H15316839   0.036   0.875   6.637 -0.3246  0.6009  0.0046
  104MOL   C15416840   0.251   1.001   6.569  0.4253 -0.1625  0.0735
  104MOL   C15516841   0.377   1.067   6.497  0.2370  0.1511  0.3544
  104MOL   C15616842   0.357   1.219   6.491  0.4168  0.4192  0.4800
  104MOL   O15716843   0.370   1.288   6.592  0.5915  0.2771  0.0536
  104MOL   H15816844   0.275   0.931   6.649 -0.8140  0.4608  1.0037
  104MOL   H15916845   0.196   1.075   6.627 -0.2026 -0.2143 -0.4480
  104MOL   H16016846   0.397   1.039   6.394  0.8880 -0.7409  0.7186
  104MOL   H16116847   0.463   1.042   6.559 -1.6216  2.0131  3.8218
  104MOL   H16216848   0.331   1.263   6.395 -0.1981  3.2651  1.9049
  105MOL     C116849   4.790   4.866   3.096 -0.0066 -0.3878  0.3145
  105MOL     C216850   4.923   4.837   3.179 -0.4359  0.0781  0.1293
  105MOL     C316851   4.999   4.971   3.202 -0.8627 -0.4628  0.0340
  105MOL     O416852   5.061   5.015   3.111 -0.3874 -0.4457 -0.4817
  105MOL     H516853   4.817   4.926   3.009 -2.0352  2.2298  1.4284
  105MOL     H616854   4.734   4.779   3.064 -0.6938  0.2843 -0.3061
  105MOL     H716855   4.989   4.775   3.119 -0.0177  1.8203 -1.2248
  105MOL     H816856   4.905   4.778   3.270  0.1046 -1.3650 -0.6900
  105MOL     H916857   4.727   4.931   3.156  0.4095  0.0919  0.2378
  105MOL    C1016858   5.006   5.041   3.342 -0.0428  0.6216 -0.3472
  105MOL    C1116859   5.044   5.187   3.341 -0.1469  0.0074  0.2934
  105MOL    C1216860   5.053   5.245   3.480  0.0776 -0.4617  0.4400
  105MOL    O1316861   5.004   5.193   3.578 -0.6460  0.3657 -0.0928
  105MOL    H1416862   5.073   4.981   3.403 -0.5380  0.0732 -0.3324
  105MOL    H1516863   4.917   5.021   3.402  0.4739 -0.4666  0.0604
  105MOL    H1616864   4.972   5.249   3.287 -0.7143 -0.3668  0.6163
  105MOL    H1716865   5.139   5.199   3.289  1.6256 -1.0564  3.1292
  105MOL    C1816866   5.150   5.364   3.493  0.0080 -0.5291  0.3460
  105MOL    C1916867   5.251   5.352   3.606  0.6318 -0.0927  0.2202
  105MOL    C2016868   5.249   5.463   3.705 -0.3251 -0.3291  0.4379
  105MOL    O2116869   5.278   5.577   3.674 -0.3101  0.0644  0.3512
  105MOL    H2216870   5.110   5.465   3.496  3.1475  0.7332  1.3039
  105MOL    H2316871   5.203   5.380   3.399  1.0301 -1.6447  0.7248
  105MOL    H2416872   5.352   5.355   3.565 -0.3054 -2.5794 -2.4431
  105MOL    H2516873   5.240   5.258   3.659  2.7324 -0.6649 -0.3296
  105MOL    C2616874   5.229   5.418   3.849 -0.1597 -0.5367 -0.3082
  105MOL    C2716875   5.326   5.498   3.940 -0.5627 -0.1935  0.0438
  105MOL    C2816876   5.456   5.425   3.973 -0.4340 -0.9170  0.3570
  105MOL    O2916877   5.515   5.369   3.880  0.3854  0.3446 -0.0513
  105MOL    H3016878   5.246   5.312   3.869  0.7623  0.0708  2.4441
  105MOL    H3116879   5.127   5.448   3.871  0.4327  1.5301 -0.2899
  105MOL    H3216880   5.276   5.511   4.036 -0.0942 -1.3046  0.4394
  105MOL    H3316881   5.351   5.597   3.900 -1.0586 -0.0051  0.1943
  105MOL    C3416882   5.528   5.462   4.104 -0.4930  0.7243 -0.5741
  105MOL    C3516883   5.593   5.333   4.166  0.0104 -0.2122 -0.5042
  105MOL    C3616884   5.503   5.248   4.252 -0.0404 -0.6516 -0.6169
  105MOL    O3716885   5.418   5.175   4.197  0.1135 -0.3366 -0.6066
  105MOL    H3816886   5.448   5.503   4.167 -1.7423  0.2145 -1.8080
  105MOL    H3916887   5.611   5.531   4.092 -0.1726  0.5594  0.6306
  105MOL    H4016888   5.666   5.368   4.239 -3.9095  3.8337  1.7531
  105MOL    H4116889   5.665   5.278   4.105  2.6654 -0.2651  2.5403
  105MOL    C4216890   5.536   5.241   4.399 -0.2197  0.4913  0.5630
  105MOL    C4316891   5.577   5.096   4.434 -0.0082  0.5156  0.2014
  105MOL    C4416892   5.481   5.039   4.534  0.3507 -0.2310  0.0748
  105MOL    O4516893   5.367   5.084   4.555 -0.3152 -0.2278  1.1152
  105MOL    H4616894   5.462   5.274   4.472 -0.9868  0.9527 -0.3976
  105MOL    H4716895   5.619   5.308   4.417  0.8631 -1.4148  2.9223
  105MOL    H4816896   5.674   5.110   4.483 -1.2015 -0.2531  2.8667
  105MOL    H4916897   5.587   5.031   4.347  1.2405  1.7465 -0.6163
  105MOL    C5016898   5.517   4.907   4.602  0.4261 -0.2148 -0.0495
  105MOL    C5116899   5.481   4.791   4.520  0.5001 -0.0005 -0.0840
  105MOL    C5216900   5.591   4.753   4.420 -0.2397  0.0050 -0.5572
  105MOL    O5316901   5.710   4.766   4.442 -0.4147  0.2423 -0.0383
  105MOL    H5416902   5.455   4.915   4.691  2.4360 -2.0280  1.5683
  105MOL    H5516903   5.617   4.920   4.644  0.3427 -2.2220  0.7971
  105MOL    H5616904   5.388   4.807   4.465  1.3893 -2.3297 -2.3851
  105MOL    H5716905   5.465   4.705   4.584  0.8981 -0.3583 -0.4617
  105MOL    C5816906   5.545   4.695   4.290 -0.3476  0.5992 -1.1019
  105MOL    C5916907   5.460   4.789   4.200 -0.6593  0.6372 -0.4950
  105MOL    C6016908   5.306   4.767   4.196  0.0391  0.1275 -0.1718
  105MOL    O6116909   5.257   4.678   4.259  0.4272 -0.1449 -0.7113
  105MOL    H6216910   5.491   4.602   4.305  1.3058 -0.1206  0.5382
  105MOL    H6316911   5.636   4.665   4.238  0.3157 -1.2570  1.0910
  105MOL    H6416912   5.509   4.787   4.103  2.0735 -1.4313  0.8543
  105MOL    H6516913   5.488   4.891   4.228 -0.6253  1.4481 -3.3447
  105MOL    C6616914   5.224   4.875   4.125 -0.3078  0.2562 -0.3453
  105MOL    C6716915   5.109   4.927   4.206  0.1254 -0.1861  0.0378
  105MOL    C6816916   5.089   5.084   4.189 -0.0816  0.8858  0.2641
  105MOL    O6916917   5.098   5.136   4.079  0.7948 -0.1721 -0.0198
  105MOL    H7016918   5.190   4.825   4.034 -1.9038  2.3139 -0.8943
  105MOL    H7116919   5.289   4.955   4.089 -0.0754 -0.7830 -2.2958
  105MOL    H7216920   5.102   4.898   4.311  2.3430 -0.8435  0.0281
  105MOL    H7316921   5.016   4.879   4.178 -0.5450  0.7990  0.5395
  105MOL    C7416922   5.066   5.175   4.308  0.9183 -0.5344 -0.1863
  105MOL    C7516923   5.142   5.313   4.303 -0.1466  0.3698 -0.1529
  105MOL    C7616924   5.093   5.402   4.412  0.7801 -0.0687 -0.0152
  105MOL    O7716925   4.972   5.411   4.434  0.2302  0.1207  0.0351
  105MOL    H7816926   5.080   5.136   4.409 -2.3602 -0.0676  0.5026
  105MOL    H7916927   4.959   5.198   4.309  0.7229 -1.2842 -1.7538
  105MOL    H8016928   5.117   5.359   4.207 -2.1989  1.7560  1.0130
  105MOL    H8116929   5.249   5.300   4.316 -0.2038  0.9441  0.9026
  105MOL    C8216930   5.204   5.461   4.505  0.7857  0.9225  0.7541
  105MOL    C8316931   5.144   5.572   4.597  0.4998 -0.4334 -1.0523
  105MOL    C8416932   5.201   5.582   4.740 -0.3525  0.2949  0.1679
  105MOL    O8516933   5.316   5.551   4.761  0.0354  0.3759 -0.2563
  105MOL    H8616934   5.301   5.480   4.461  0.4167  3.5559  1.0351
  105MOL    H8716935   5.231   5.376   4.568  1.0360  0.6613  0.2973
  105MOL    H8816936   5.037   5.556   4.610  0.8761 -2.2159 -0.0405
  105MOL    H8916937   5.148   5.670   4.548 -1.5800  0.0655 -0.2641
  105MOL    C9016938   5.110   5.627   4.855  0.5343 -0.3997 -0.2295
  105MOL    C9116939   5.197   5.685   4.967  0.2043 -0.3742 -0.2599
  105MOL    C9216940   5.230   5.830   4.944 -0.7081  0.1974  0.2437
  105MOL    O9316941   5.159   5.912   5.000  0.4137 -0.6811 -0.3525
  105MOL    H9416942   5.038   5.554   4.892 -2.3487  1.6973 -1.4924
  105MOL    H9516943   5.050   5.706   4.811  0.0764 -0.3639  0.4604
  105MOL    H9616944   5.283   5.619   4.977 -1.1023 -1.7375  2.5860
  105MOL    H9716945   5.146   5.684   5.063  1.3961 -0.9955  0.3709
  105MOL    C9816946   5.340   5.871   4.853  0.4595  0.7285  0.0797
  105MOL    C9916947   5.478   5.840   4.908 -0.3487  0.0757 -0.3642
  105MOL   C10016948   5.570   5.766   4.810 -0.1047 -0.2442  0.2581
  105MOL   O10116949   5.563   5.778   4.690 -0.9386  0.7145  0.1938
  105MOL   H10216950   5.334   5.979   4.842 -3.1184  0.6006  0.3949
  105MOL   H10316951   5.337   5.822   4.755  0.9762  0.2693  0.2869
  105MOL   H10416952   5.468   5.768   4.988  1.4202  0.2857  0.0798
  105MOL   H10516953   5.532   5.924   4.953  0.4724 -0.8601  0.4004
  105MOL   C10616954   5.666   5.660   4.862 -0.8142  0.8432 -0.6202
  105MOL   C10716955   5.683   5.540   4.765 -0.1985  0.0866 -0.0479
  105MOL   C10816956   5.677   5.403   4.839 -0.4840  0.0472 -0.0393
  105MOL   O10916957   5.645   5.391   4.953  0.1297 -0.0683  0.3549
  105MOL   H11016958   5.621   5.618   4.953  1.9553  0.1430  0.4593
  105MOL   H11116959   5.760   5.714   4.873 -1.9284  2.5601  1.0139
  105MOL   H11216960   5.781   5.539   4.716  0.7372 -1.2654  1.7521
  105MOL   H11316961   5.599   5.528   4.697 -1.0062 -0.1066  0.9687
  105MOL   C11416962   5.726   5.279   4.763  0.4390  0.2786  0.6062
  105MOL   C11516963   5.874   5.246   4.780  0.3336  0.2002 -0.8125
  105MOL   C11616964   5.973   5.330   4.698  0.6768  0.3543  0.0368
  105MOL   O11716965   5.942   5.368   4.589  0.3237  0.3618  0.1465
  105MOL   H11816966   5.708   5.294   4.656  1.1583 -0.2665  0.3968
  105MOL   H11916967   5.675   5.188   4.795  1.8279 -0.0756  1.8698
  105MOL   H12016968   5.895   5.141   4.763  1.3140  0.5029 -1.5251
  105MOL   H12116969   5.891   5.269   4.886 -0.4217 -0.0893 -0.6260
  105MOL   C12216970   6.112   5.330   4.741 -0.1072 -0.2003 -0.5212
  105MOL   C12316971   6.202   5.444   4.693  0.6098  0.3616 -0.2354
  105MOL   C12416972   6.194   5.571   4.777  0.7099  0.3281  1.0646
  105MOL   O12516973   6.108   5.570   4.865 -0.1663 -0.3883  0.0531
  105MOL   H12616974   6.160   5.234   4.724  1.3381  0.0030  2.1922
  105MOL   H12716975   6.100   5.331   4.849 -1.0963  1.3844 -0.6226
  105MOL   H12816976   6.170   5.463   4.591  2.2058 -2.4042 -1.2855
  105MOL   H12916977   6.306   5.415   4.682  0.1115 -1.6026  0.0968
  105MOL   C13016978   6.293   5.685   4.763  0.2991  0.4752  0.0281
  105MOL   C13116979   6.341   5.760   4.892  0.1638  0.3767  0.0272
  105MOL   C13216980   6.436   5.875   4.863  0.3061 -0.3878 -0.7579
  105MOL   O13316981   6.441   5.934   4.759 -0.0058 -0.3296  0.7308
  105MOL   H13416982   6.271   5.746   4.675  0.9221  0.7512  0.0618
  105MOL   H13516983   6.390   5.641   4.740  1.5966  2.7396  1.0091
  105MOL   H13616984   6.382   5.685   4.959 -2.0005  0.7088  1.7909
  105MOL   H13716985   6.247   5.795   4.935  0.2941  0.0788  0.5517
  105MOL   C13816986   6.523   5.919   4.982  0.0373 -0.8022  0.1473
  105MOL   C13916987   6.481   6.065   5.025  0.8713 -0.2849 -0.2636
  105MOL   C14016988   6.551   6.114   5.147 -0.8819  0.0212 -0.1404
  105MOL   O14116989   6.624   6.041   5.218  0.2366  0.4359  0.0931
  105MOL   H14216990   6.627   5.922   4.950 -0.8361  2.0978 -2.7839
  105MOL   H14316991   6.523   5.850   5.066  0.3833 -1.6768 -0.5628
  105MOL   H14416992   6.373   6.070   5.036  1.1191  0.2368  2.3382
  105MOL   H14516993   6.499   6.138   4.946 -0.7699  0.7626  0.3005
  105MOL   C14616994   6.541   6.264   5.188 -0.5581 -0.5337 -0.2026
  105MOL   C14716995   6.622   6.366   5.103  0.0782  0.3510 -0.3064
  105MOL   C14816996   6.543   6.425   4.985 -0.1172 -0.4041 -0.4710
  105MOL   O14916997   6.423   6.406   4.983 -0.3012  0.0796 -0.2007
  105MOL   H15016998   6.578   6.278   5.290  1.0867 -0.5438 -0.7740
  105MOL   H15116999   6.437   6.293   5.179 -0.6565 -0.7661  0.2068
  105MOL   H15217000   6.708   6.321   5.053  0.7658  1.9587 -0.5891
  105MOL   H15317001   6.654   6.445   5.171 -0.9639  0.5855 -0.0665
  105MOL   C15417002   6.616   6.492   4.876  1.0223  0.2780  0.3970
  105MOL   C15517003   6.528   6.525   4.748  0.1383 -0.1573 -0.7856
  105MOL   C15617004   6.564   6.661   4.692 -0.4441  0.3972  0.6530
  105MOL   O15717005   6.635   6.739   4.753 -0.5582  0.1936  0.3530
  105MOL   H15817006   6.694   6.421   4.851  0.0996  0.4480 -3.1596
  105MOL   H15917007   6.665   6.582   4.915  0.9148  1.7826 -2.8100
  105MOL   H16017008   6.422   6.518   4.772  0.2911 -0.2234 -0.1207
  105MOL   H16117009   6.541   6.458   4.663 -2.1579 -1.2657 -0.3042
  105MOL   H16217010   6.537   6.683   4.589 -0.1026  1.1504  0.7260
  106MOL     C117011   7.710   0.655   0.418 -0.6606  0.4072 -0.4554
  106MOL     C217012   7.651   0.780   0.352  0.0531  0.6646  0.4640
  106MOL     C317013   7.750   0.862   0.267  0.3060  0.2932  0.7926
  106MOL     O417014   7.833   0.822   0.186  0.3461 -0.1864  0.6466
  106MOL     H517015   7.791   0.614   0.359  0.1703  0.7091  0.4577
  106MOL     H617016   7.749   0.670   0.519  0.4249  0.7659 -0.9253
  106MOL     H717017   7.599   0.846   0.422  0.3533  1.1075  0.2640
  106MOL     H817018   7.574   0.742   0.285  0.0688  0.2704  0.6672
  106MOL     H917019   7.638   0.575   0.438 -2.1966  1.7292 -0.6613
  106MOL    C1017020   7.725   1.013   0.275 -0.2399  0.2809 -0.4941
  106MOL    C1117021   7.652   1.084   0.159  0.0245 -0.3406  0.0261
  106MOL    C1217022   7.502   1.107   0.187 -0.6911  0.6369  0.1019
  106MOL    O1317023   7.437   1.015   0.244  0.0117 -0.4955 -0.2955
  106MOL    H1417024   7.828   1.050   0.282 -0.5825  1.2015 -0.2724
  106MOL    H1517025   7.684   1.037   0.373  0.0420  0.1566 -0.3445
  106MOL    H1617026   7.666   1.020   0.071  2.6147  0.6479 -0.3165
  106MOL    H1717027   7.703   1.180   0.153  0.0763 -0.1546  2.6828
  106MOL    C1817028   7.441   1.249   0.162  0.8170 -0.1303  0.1023
  106MOL    C1917029   7.290   1.243   0.128 -0.4966  0.4079 -0.7333
  106MOL    C2017030   7.237   1.389   0.120 -0.1539 -0.3376 -0.2957
  106MOL    O2117031   7.287   1.479   0.186 -0.8192 -0.4345  0.1680
  106MOL    H2217032   7.504   1.296   0.087 -1.2687  0.3101 -1.4310
  106MOL    H2317033   7.447   1.293   0.261  2.6576 -1.1720  0.4692
  106MOL    H2417034   7.245   1.183   0.207 -1.0665  1.4296 -0.2716
  106MOL    H2517035   7.283   1.182   0.038  2.8614 -0.6360 -0.3441
  106MOL    C2617036   7.131   1.420   0.016  0.4609  0.4569 -0.4099
  106MOL    C2717037   6.982   1.380   0.055  0.0168  0.4883  0.0651
  106MOL    C2817038   6.946   1.254   7.846  0.5308  0.3615  0.1163
  106MOL    O2917039   7.016   1.156   7.845 -0.2983 -0.0038  0.2817
  106MOL    H3017040   7.157   1.369   7.783  0.3634 -1.6429  0.6955
  106MOL    H3117041   7.122   1.526   7.852 -3.0214  0.1917 -0.6072
  106MOL    H3217042   6.920   1.462   0.017 -3.0366 -2.7556 -2.2191
  106MOL    H3317043   6.965   1.372   0.162  1.2455  2.6438  0.4680
  106MOL    C3417044   6.805   1.246   7.778 -0.1716 -0.4452 -1.1116
  106MOL    C3517045   6.780   1.098   7.740  0.8184  0.1568  0.2881
  106MOL    C3617046   6.665   1.087   7.636  0.2933  0.4294  0.6469
  106MOL    O3717047   6.589   1.179   7.617 -0.2638  0.0645  0.0714
  106MOL    H3817048   6.792   1.312   7.693  1.8631  0.3154 -0.8524
  106MOL    H3917049   6.734   1.273   7.856  0.6734  1.4709 -0.9960
  106MOL    H4017050   6.760   1.040   7.830  0.6326 -1.2567 -0.6493
  106MOL    H4117051   6.866   1.046   7.699  1.5395  0.6138  1.2081
  106MOL    C4217052   6.644   0.951   7.570 -0.2989  0.4057  0.2098
  106MOL    C4317053   6.619   0.972   7.422  0.1155  0.1522  0.0264
  106MOL    C4417054   6.742   0.953   7.332 -0.0518  0.1841  0.0077
  106MOL    O4517055   6.795   0.845   7.319 -0.3467 -0.5042  0.4436
  106MOL    H4617056   6.557   0.914   7.625 -1.5623  1.6317 -0.9282
  106MOL    H4717057   6.721   0.880   7.601  0.5597  1.9447  1.6572
  106MOL    H4817058   6.580   1.072   7.404 -2.4943 -0.7306  0.4381
  106MOL    H4917059   6.536   0.909   7.390  1.6757 -1.0294 -1.7691
  106MOL    C5017060   6.773   1.068   7.236  0.0061  0.9906 -0.0275
  106MOL    C5117061   6.920   1.061   7.188 -0.1710 -1.1117 -0.1155
  106MOL    C5217062   6.932   1.034   7.037  0.2705  0.1362 -0.6816
  106MOL    O5317063   6.839   1.023   6.965  0.5391 -0.6297 -0.0060
  106MOL    H5417064   6.764   1.155   7.302 -3.6160 -1.5262  3.0209
  106MOL    H5517065   6.699   1.064   7.156  2.7728 -1.4740 -2.5604
  106MOL    H5617066   6.981   0.986   7.239  0.8875  0.9631  1.7884
  106MOL    H5717067   6.978   1.153   7.203 -0.3574 -0.8347 -1.1014
  106MOL    C5817068   7.074   1.034   6.980 -0.4320  0.1108 -0.2030
  106MOL    C5917069   7.075   1.049   6.829 -0.0805  0.7295  0.3576
  106MOL    C6017070   7.094   1.192   6.778  0.4297  0.3033  0.0485
  106MOL    O6117071   7.207   1.237   6.778  0.1552  0.9459 -0.0631
  106MOL    H6217072   7.143   0.952   7.001 -0.5658 -0.0318 -0.3236
  106MOL    H6317073   7.117   1.130   7.008  1.0556  0.2732 -2.8579
  106MOL    H6417074   6.988   1.017   6.772  0.1396  0.2988  0.2564
  106MOL    H6517075   7.162   0.998   6.787 -0.2959  2.6224 -2.5251
  106MOL    C6617076   6.965   1.273   6.751 -0.1172  0.2212  0.4582
  106MOL    C6717077   6.983   1.429   6.747 -0.1806 -0.4612  0.2196
  106MOL    C6817078   6.857   1.490   6.797  0.1548 -0.5419  0.0906
  106MOL    O6917079   6.759   1.505   6.722  0.3346  0.3469 -0.2193
  106MOL    H7017080   6.889   1.236   6.820 -0.1011 -3.2977 -1.2939
  106MOL    H7117081   6.919   1.238   6.658  0.9760  0.2579 -0.1003
  106MOL    H7217082   7.009   1.455   6.644  1.4631 -1.0248  0.4796
  106MOL    H7317083   7.062   1.456   6.818  1.3006 -1.5859 -0.9629
  106MOL    C7417084   6.852   1.534   6.950 -0.0879 -0.5230 -0.2353
  106MOL    C7517085   6.757   1.653   6.985  0.0431 -0.5348 -0.0541
  106MOL    C7617086   6.828   1.745   7.076 -0.7067  0.4179 -0.0341
  106MOL    O7717087   6.897   1.699   7.166  0.4416  0.2163 -0.8243
  106MOL    H7817088   6.955   1.563   6.971 -0.4824 -0.3479  1.5664
  106MOL    H7917089   6.839   1.451   7.018  0.6296  0.3070  0.9340
  106MOL    H8017090   6.666   1.614   7.031 -1.2551  0.4994 -1.6525
  106MOL    H8117091   6.734   1.712   6.896  0.9263  1.3847  0.9696
  106MOL    C8217092   6.809   1.896   7.072  0.0207 -0.4308  0.2841
  106MOL    C8317093   6.772   1.958   7.208  0.5811  0.3755 -0.6199
  106MOL    C8417094   6.893   2.021   7.274  0.1860  0.2780 -0.5077
  106MOL    O8517095   6.997   2.047   7.219  0.2980  0.4419 -0.1920
  106MOL    H8617096   6.715   1.910   7.018  0.0053  0.9802  0.6812
  106MOL    H8717097   6.888   1.949   7.019  0.9260  1.1180  3.1343
  106MOL    H8817098   6.735   1.876   7.269 -1.3142 -0.1435 -2.4027
  106MOL    H8917099   6.685   2.021   7.194 -1.2384 -2.0353 -0.5331
  106MOL    C9017100   6.865   2.053   7.425 -0.5287 -0.4397 -0.3011
  106MOL    C9117101   6.893   1.934   7.516  0.1346 -0.2253 -0.3456
  106MOL    C9217102   6.997   1.948   7.629  0.5595  0.3146 -0.2898
  106MOL    O9317103   7.048   2.057   7.662  0.0734 -0.3246  0.4213
  106MOL    H9417104   6.766   2.092   7.445 -1.2537 -2.1104 -0.5414
  106MOL    H9517105   6.922   2.140   7.456 -0.9559 -1.0222  2.1763
  106MOL    H9617106   6.916   1.848   7.453  0.6893 -2.1314  2.3359
  106MOL    H9717107   6.798   1.925   7.569  0.5908  1.2588  0.7612
  106MOL    C9817108   7.007   1.824   7.716 -0.1282  0.0605 -0.1971
  106MOL    C9917109   7.155   1.802   7.749 -0.2437 -0.1759 -0.0341
  106MOL   C10017110   7.233   1.732   7.639 -0.3667 -0.0644 -0.7413
  106MOL   O10117111   7.183   1.717   7.530 -0.0778  0.2444  0.7039
  106MOL   H10217112   6.961   1.739   7.666  1.3265 -1.5101  1.1154
  106MOL   H10317113   6.950   1.844   7.807 -0.6979  1.6874 -0.8790
  106MOL   H10417114   7.170   1.738   7.836  0.3653  0.6504  0.4821
  106MOL   H10517115   7.196   1.900   7.774 -0.6312 -0.7031  2.8067
  106MOL   C10617116   7.379   1.698   7.667  0.6481 -0.2763 -0.2419
  106MOL   C10717117   7.444   1.614   7.561 -0.2712 -0.5223  0.0377
  106MOL   C10817118   7.479   1.470   7.591  0.0812 -0.0254 -0.9121
  106MOL   O10917119   7.465   1.431   7.707  0.2315 -0.0143  0.0263
  106MOL   H11017120   7.373   1.638   7.758 -0.4421 -0.5343 -0.4718
  106MOL   H11117121   7.438   1.787   7.687  1.7530 -1.0702  0.0715
  106MOL   H11217122   7.536   1.668   7.540 -0.6443  1.3207  2.7555
  106MOL   H11317123   7.378   1.608   7.474 -0.3285  0.0823  0.0371
  106MOL   C11417124   7.528   1.383   7.481 -0.3346  0.4727  0.5206
  106MOL   C11517125   7.659   1.306   7.524 -0.1389  0.0511  0.2800
  106MOL   C11617126   7.652   1.149   7.516 -0.1492  0.3722 -0.5805
  106MOL   O11717127   7.634   1.098   7.408 -0.0639  0.0121  0.3230
  106MOL   H11817128   7.552   1.455   7.403 -1.3935  0.5378  0.2467
  106MOL   H11917129   7.450   1.317   7.444 -2.5672  1.3239  3.5240
  106MOL   H12017130   7.707   1.348   7.612 -1.6231  1.6971  0.3270
  106MOL   H12117131   7.726   1.344   7.447 -1.2775 -1.2061 -1.3965
  106MOL   C12217132   7.666   1.061   7.636  0.4849  0.1772  0.7235
  106MOL   C12317133   7.705   0.918   7.592 -0.7733 -0.3816  0.1923
  106MOL   C12417134   7.833   0.865   7.653  0.4898 -0.1056 -0.0999
  106MOL   O12517135   0.039   0.933   7.742 -0.1285 -0.2337  0.7369
  106MOL   H12617136   7.567   1.048   7.679 -0.3011  0.1922 -1.0417
  106MOL   H12717137   7.724   1.109   7.715  3.0212 -0.2747 -0.7831
  106MOL   H12817138   7.711   0.912   7.483 -0.3556  1.6286  0.0761
  106MOL   H12917139   7.631   0.844   7.623 -0.8317 -0.6546 -0.5902
  106MOL   C13017140   0.017   0.729   7.604  0.9940  0.7151  0.0997
  106MOL   C13117141   0.004   0.629   7.719  0.8167 -0.1275 -0.1418
  106MOL   C13217142   0.130   0.588   7.787  0.6865 -0.2203  0.0212
  106MOL   O13317143   0.231   0.569   7.722 -0.1243 -0.3521  0.2087
  106MOL   H13417144   0.121   0.743   7.575  1.0599  0.4049  0.1754
  106MOL   H13517145   7.813   0.697   7.521  0.5397  0.7058  0.4465
  106MOL   H13617146   7.799   0.545   7.692 -1.1270  1.7809 -1.6226
  106MOL   H13717147   7.803   0.673   7.798 -0.7949 -0.8687 -0.9358
  106MOL   C13817148   0.120   0.542   0.071 -0.3827 -0.0293 -0.6118
  106MOL   C13917149   0.251   0.576   0.155 -0.0542 -0.8987 -0.0313
  106MOL   C14017150   0.254   0.497   0.284 -0.2418  0.7459  0.7233
  106MOL   O14117151   0.248   0.377   0.276  0.1108  0.1486 -0.0798
  106MOL   H14217152   0.116   0.433   0.072  1.1143 -0.0989 -1.1754
  106MOL   H14317153   0.026   0.569   0.120 -1.4996 -0.9167 -2.2227
  106MOL   H14417154   0.246   0.682   0.179  1.5197 -0.4174 -1.7197
  106MOL   H14517155   0.333   0.542   0.093 -2.2537 -2.0342 -2.4248
  106MOL   C14617156   0.264   0.576   0.417 -0.0478 -0.1674  0.3243
  106MOL   C14717157   0.256   0.499   0.550 -0.1287 -0.1748  0.0335
  106MOL   C14817158   0.375   0.535   0.645 -0.4997  0.4720  0.5707
  106MOL   O14917159   0.488   0.526   0.594  0.0244 -0.6400 -0.0713
  106MOL   H15017160   0.196   0.661   0.421  1.0305  0.6767  0.9433
  106MOL   H15117161   0.367   0.613   0.419  0.2886 -1.0834  0.3989
  106MOL   H15217162   0.271   0.394   0.525 -0.9139 -0.1678 -0.5039
  106MOL   H15317163   0.162   0.509   0.604  0.1067  0.7593  0.2733
  106MOL   C15417164   0.349   0.564   0.791 -0.2212 -0.4682 -0.1445
  106MOL   C15517165   0.303   0.442   0.874  0.2472 -0.2361 -0.0060
  106MOL   C15617166   0.411   0.372   0.942 -0.0865  0.2647 -0.5391
  106MOL   O15717167   0.488   0.431   1.017  0.1180 -0.2492 -0.5994
  106MOL   H15817168   0.275   0.642   0.812 -2.6249 -2.2572 -1.6752
  106MOL   H15917169   0.442   0.602   0.834 -0.1493 -0.4908 -0.2808
  106MOL   H16017170   0.260   0.372   0.802 -0.7078 -0.3450  0.6562
  106MOL   H16117171   0.222   0.467   0.942 -1.6844 -0.6425 -2.0881
  106MOL   H16217172   0.415   0.263   0.933 -0.1642  0.2173  0.0032
  107MOL     C117173   5.016   2.473   5.637 -0.4090 -0.1885  0.1414
  107MOL     C217174   4.918   2.360   5.596  0.5011  0.0876  0.5360
  107MOL     C317175   4.959   2.304   5.465  0.4381  0.6149  0.4458
  107MOL     O417176   4.973   2.377   5.363  0.0731  0.2103  0.2585
  107MOL     H517177   4.985   2.551   5.706 -1.0026  2.5713 -3.0989
  107MOL     H617178   5.097   2.420   5.687 -1.1108 -0.2462  1.2232
  107MOL     H717179   4.812   2.386   5.592  0.1997 -1.3176 -1.7053
  107MOL     H817180   4.926   2.272   5.659 -0.4765 -1.0032 -0.8225
  107MOL     H917181   5.068   2.525   5.556 -3.1372 -0.4750 -1.8532
  107MOL    C1017182   5.006   2.154   5.464  0.2949 -0.0793  0.3885
  107MOL    C1117183   5.055   2.118   5.326 -0.3339 -0.8368  1.1644
  107MOL    C1217184   5.043   1.975   5.280 -0.0501  0.0606 -0.0895
  107MOL    O1317185   4.959   1.904   5.332 -0.0217  0.2049 -0.2846
  107MOL    H1417186   4.922   2.094   5.497  1.0280 -0.2743  1.9575
  107MOL    H1517187   5.082   2.143   5.542 -0.0512 -0.7668  0.6318
  107MOL    H1617188   5.153   2.161   5.303 -2.1828  2.1243 -1.5429
  107MOL    H1717189   4.985   2.171   5.261  1.1092  1.2678  1.2541
  107MOL    C1817190   5.122   1.934   5.155 -0.4533 -0.0771 -0.3332
  107MOL    C1917191   5.099   1.785   5.106  0.1390  0.3807  0.2476
  107MOL    C2017192   5.200   1.691   5.169  0.2659  0.0742 -0.2455
  107MOL    O2117193   5.291   1.740   5.234 -0.2080 -0.2161 -0.0626
  107MOL    H2217194   5.228   1.953   5.171 -0.7491  0.1662  1.4105
  107MOL    H2317195   5.088   2.007   5.081 -5.1117 -1.1845  0.5385
  107MOL    H2417196   5.130   1.777   5.002  1.0388  1.2725  0.4465
  107MOL    H2517197   4.996   1.749   5.107  0.2272  0.0185 -2.2223
  107MOL    C2617198   5.168   1.543   5.163  0.0470  0.1238  0.0894
  107MOL    C2717199   5.295   1.458   5.166  0.0253 -0.0154  0.3381
  107MOL    C2817200   5.326   1.395   5.034  0.0670  0.4204  0.5619
  107MOL    O2917201   5.314   1.460   4.930  0.1503  0.2190 -0.0801
  107MOL    H3017202   5.115   1.524   5.070  0.5667 -0.7280 -0.0352
  107MOL    H3117203   5.107   1.519   5.250  0.1221 -0.4023 -0.0016
  107MOL    H3217204   5.283   1.386   5.247 -1.1363  0.5616  0.6934
  107MOL    H3317205   5.374   1.523   5.204 -0.2551  1.6262 -1.7686
  107MOL    C3417206   5.369   1.250   5.034  0.3711 -0.0705 -0.8006
  107MOL    C3517207   5.340   1.178   4.895 -0.5696 -0.3384  0.0679
  107MOL    C3617208   5.461   1.186   4.803  0.6845  0.1896 -0.1281
  107MOL    O3717209   5.574   1.153   4.842 -0.5165  0.0358  0.0576
  107MOL    H3817210   5.310   1.198   5.110  1.8553 -0.5669  0.0388
  107MOL    H3917211   5.468   1.243   5.079  0.3806  1.5015 -0.5743
  107MOL    H4017212   5.253   1.221   4.844 -0.9651 -0.4651  0.6319
  107MOL    H4117213   5.319   1.071   4.897  0.2588 -0.4935  0.6180
  107MOL    C4217214   5.433   1.210   4.655 -0.6154 -0.3010  0.5588
  107MOL    C4317215   5.563   1.191   4.565 -0.3366  0.2705 -0.3243
  107MOL    C4417216   5.541   1.093   4.449 -0.1960 -0.6226 -0.0659
  107MOL    O4517217   5.432   1.039   4.427  0.2099 -0.3670  0.4303
  107MOL    H4617218   5.385   1.304   4.628 -1.0088 -0.4106  0.8767
  107MOL    H4717219   5.358   1.135   4.630 -1.1986  0.7501 -0.9304
  107MOL    H4817220   5.651   1.155   4.618 -0.0182  0.3123 -0.8154
  107MOL    H4917221   5.602   1.288   4.532  0.0624  0.5847  1.0569
  107MOL    C5017222   5.663   1.046   4.369 -0.7793 -0.2958 -0.0719
  107MOL    C5117223   5.707   1.138   4.255 -0.1700 -0.2447 -0.6900
  107MOL    C5217224   5.683   1.066   4.124 -0.5043  0.3213  0.3407
  107MOL    O5317225   5.716   0.943   4.114 -0.6263  0.0567  0.1977
  107MOL    H5417226   5.656   0.944   4.332 -0.9731 -0.4859  0.4716
  107MOL    H5517227   5.751   1.049   4.435 -1.7223  0.2570  1.1922
  107MOL    H5617228   5.815   1.153   4.250  0.2525 -2.5283  0.8164
  107MOL    H5717229   5.663   1.237   4.267 -0.2634 -0.2035 -1.3214
  107MOL    C5817230   5.628   1.149   4.018 -0.1985 -0.1901 -0.0562
  107MOL    C5917231   5.615   1.081   3.880 -0.3764  0.5619 -0.5532
  107MOL    C6017232   5.745   1.092   3.798  0.0953 -0.2599 -0.4454
  107MOL    O6117233   5.785   1.203   3.763  0.1934 -0.1099 -0.1153
  107MOL    H6217234   5.698   1.232   4.010  1.0570 -0.8476  3.2433
  107MOL    H6317235   5.537   1.191   4.062 -1.3163 -3.4197  0.9100
  107MOL    H6417236   5.530   1.126   3.827 -1.0995 -1.0751 -0.8104
  107MOL    H6517237   5.581   0.978   3.890 -1.6201  1.3061  3.4770
  107MOL    C6617238   5.803   0.962   3.751  0.3217 -0.6342  0.3341
  107MOL    C6717239   5.899   0.971   3.633 -0.6346 -1.0452 -0.1240
  107MOL    C6817240   5.822   0.942   3.500  0.2896 -0.0087 -1.3059
  107MOL    O6917241   5.728   0.865   3.502  0.0306 -0.6576 -0.1237
  107MOL    H7017242   5.725   0.886   3.746 -0.0859 -0.2341  0.5864
  107MOL    H7117243   5.852   0.920   3.838 -0.3541 -2.8580 -0.3138
  107MOL    H7217244   5.970   0.891   3.650  2.5779  1.7836  0.2708
  107MOL    H7317245   5.955   1.064   3.628  0.6368 -1.8470 -1.0379
  107MOL    C7417246   5.872   1.009   3.375 -0.4566  1.0270 -0.0192
  107MOL    C7517247   5.851   0.931   3.244 -0.0450  0.4640 -0.4283
  107MOL    C7617248   5.889   1.024   3.128 -0.2767 -0.0134 -0.3548
  107MOL    O7717249   5.896   1.148   3.141  0.8211 -0.3766  0.4625
  107MOL    H7817250   5.976   1.042   3.379  0.0985 -0.5838 -0.5594
  107MOL    H7917251   5.813   1.100   3.373 -1.6801  0.3522  2.3145
  107MOL    H8017252   5.749   0.896   3.233  0.7730 -2.0513 -0.2491
  107MOL    H8117253   5.926   0.853   3.236  0.5115  1.1209 -1.9577
  107MOL    C8217254   5.904   0.962   2.987  0.8099  0.1307  0.1269
  107MOL    C8317255   5.781   0.994   2.902 -0.4249  0.3478  0.0984
  107MOL    C8417256   5.783   0.914   2.775  0.3130 -0.8093  0.3874
  107MOL    O8517257   5.882   0.879   2.711 -0.5344 -0.5393  0.2790
  107MOL    H8617258   5.918   0.854   2.991  0.9284  0.1400 -0.0257
  107MOL    H8717259   5.990   1.009   2.939 -0.1314  0.7066 -1.0333
  107MOL    H8817260   5.759   1.100   2.887  1.4532  0.5177 -1.6762
  107MOL    H8917261   5.691   0.961   2.954 -0.4397  0.9406  0.4487
  107MOL    C9017262   5.644   0.877   2.717  0.3946  0.1950  0.4154
  107MOL    C9117263   5.665   0.806   2.578  0.2482 -0.4944  0.0611
  107MOL    C9217264   5.549   0.716   2.535  0.3628 -0.2989 -0.0056
  107MOL    O9317265   5.448   0.711   2.603  0.4122 -0.0319 -0.2557
  107MOL    H9417266   5.599   0.974   2.698 -0.4185 -0.2253  0.1664
  107MOL    H9517267   5.576   0.826   2.785  1.1356 -0.0198  1.0114
  107MOL    H9617268   5.748   0.737   2.587 -0.7863 -1.6484  1.1032
  107MOL    H9717269   5.688   0.885   2.507  0.3172 -0.7244 -0.1695
  107MOL    C9817270   5.557   0.664   2.392 -0.4172  0.0176  0.1719
  107MOL    C9917271   5.446   0.553   2.361 -0.0414  0.5526 -0.6064
  107MOL   C10017272   5.382   0.571   2.222  0.6548  0.3823 -0.2380
  107MOL   O10117273   5.432   0.656   2.148 -0.3586 -0.0595  0.2125
  107MOL   H10217274   5.653   0.615   2.376 -0.8941 -0.5269 -1.1007
  107MOL   H10317275   5.557   0.755   2.332 -0.1177  0.1964  0.4417
  107MOL   H10417276   5.359   0.556   2.427  0.7935 -0.5876  0.5537
  107MOL   H10517277   5.495   0.456   2.356  0.2338  0.7440 -1.8511
  107MOL   C10617278   5.275   0.466   2.181  0.1228 -0.3218 -0.5606
  107MOL   C10717279   5.265   0.446   2.029  0.8441 -0.4200 -0.1033
  107MOL   C10817280   5.181   0.315   2.005  0.0555  0.1034 -0.1319
  107MOL   O10917281   5.113   0.256   2.087 -0.6683  0.4631  0.2375
  107MOL   H11017282   5.185   0.513   2.222  0.5915 -1.1277  1.4909
  107MOL   H11117283   5.295   0.372   2.234 -0.2344 -0.5311 -0.7875
  107MOL   H11217284   5.362   0.444   1.980  0.6064 -0.0640 -0.5878
  107MOL   H11317285   5.202   0.519   1.979  1.9013  0.1142 -0.6848
  107MOL   C11417286   5.194   0.259   1.864 -0.0374 -0.1055 -0.0453
  107MOL   C11517287   5.334   0.206   1.830 -0.3697  0.5143 -0.3449
  107MOL   C11617288   5.406   0.291   1.724  0.3358 -0.1320 -1.5580
  107MOL   O11717289   5.483   0.387   1.753 -0.2000  0.2955 -0.2437
  107MOL   H11817290   5.179   0.336   1.788 -0.2150 -1.6705 -1.6011
  107MOL   H11917291   5.119   0.182   1.847 -0.0163  0.0102 -0.6373
  107MOL   H12017292   5.326   0.106   1.787  2.0619  0.4689 -0.7525
  107MOL   H12117293   5.400   0.191   1.915  0.2852  1.5244 -0.6691
  107MOL   C12217294   5.389   0.253   1.572  0.5659  0.8428  0.5695
  107MOL   C12317295   5.436   0.368   1.471 -0.6976  0.6853 -0.0941
  107MOL   C12417296   5.367   0.361   1.339  0.1001  0.1769  0.0438
  107MOL   O12517297   5.310   0.263   1.301 -0.8231 -0.6553 -0.4049
  107MOL   H12617298   5.287   0.220   1.554  1.0248 -1.7644  2.4705
  107MOL   H12717299   5.451   0.165   1.562 -0.3191  0.1453  1.1351
  107MOL   H12817300   5.545   0.365   1.467 -0.7909 -0.6327 -3.4783
  107MOL   H12917301   5.404   0.469   1.496  0.2930  1.0035 -0.0708
  107MOL   C13017302   5.376   0.485   1.249  0.2657  0.1662 -0.2383
  107MOL   C13117303   5.288   0.478   1.125  0.8004  0.1803 -0.5586
  107MOL   C13217304   5.352   0.414   1.005  0.1801 -0.4846  0.1360
  107MOL   O13317305   5.338   0.295   0.975 -0.3860  0.3845  0.1272
  107MOL   H13417306   5.479   0.504   1.219  0.1456 -1.1216 -1.5288
  107MOL   H13517307   5.336   0.568   1.306 -1.0338 -1.3501  1.1301
  107MOL   H13617308   5.254   0.578   1.096  1.1928  0.1738 -1.0657
  107MOL   H13717309   5.197   0.433   1.164  1.2685 -0.9060 -0.7134
  107MOL   C13817310   5.452   0.497   0.932  0.2118  0.0923  0.0585
  107MOL   C13917311   5.401   0.513   0.788 -0.8728  0.5222  0.4166
  107MOL   C14017312   5.444   0.644   0.735  0.1745 -0.3231 -0.6894
  107MOL   O14117313   5.470   0.739   0.804 -0.0965  0.2047  0.5123
  107MOL   H14217314   5.550   0.451   0.946 -0.7763 -2.9029 -2.1745
  107MOL   H14317315   5.462   0.591   0.986 -2.1374 -0.2310  1.1028
  107MOL   H14417316   5.293   0.498   0.786 -1.0543  1.6953  0.9637
  107MOL   H14517317   5.453   0.440   0.727 -2.0800 -0.3911  0.4693
  107MOL   C14617318   5.425   0.644   0.590 -0.1524  0.0999  0.8731
  107MOL   C14717319   5.501   0.756   0.515 -0.0241  0.0095 -0.2052
  107MOL   C14817320   5.404   0.852   0.451 -0.2704 -0.5738  0.1146
  107MOL   O14917321   5.396   0.856   0.329  0.9257 -0.1728 -0.2629
  107MOL   H15017322   5.318   0.639   0.573  0.1618  0.8936 -1.4868
  107MOL   H15117323   5.461   0.548   0.555 -2.5750  0.0476 -1.6181
  107MOL   H15217324   5.560   0.707   0.438 -1.7285 -1.9720 -0.2883
  107MOL   H15317325   5.563   0.809   0.587 -0.7046 -0.5228  0.7893
  107MOL   C15417326   5.307   0.936   0.543 -0.3297  0.2492  0.3253
  107MOL   C15517327   5.279   1.072   0.482  0.0325  1.0338  0.0525
  107MOL   C15617328   5.152   1.128   0.534  0.6335 -0.5987  0.0678
  107MOL   O15717329   5.132   1.172   0.651 -0.1721  0.0284  0.0092
  107MOL   H15817330   5.341   0.938   0.646 -1.8501  0.6379  0.8275
  107MOL   H15917331   5.214   0.879   0.546  1.1296 -2.1998 -0.3149
  107MOL   H16017332   5.281   1.073   0.373 -0.2799  0.3004  0.0358
  107MOL   H16117333   5.362   1.137   0.509  0.6036 -0.2310  1.4086
  107MOL   H16217334   5.077   1.139   0.455  0.0916 -0.4548  0.5982
  108MOL     C117335   2.882   7.727   5.784 -0.4772  0.1254 -0.4255
  108MOL     C217336   2.986   7.840   5.755 -0.2208 -0.3597  0.4014
  108MOL     C317337   3.002   0.019   5.607  0.6062  0.0132 -0.3373
  108MOL     O417338   2.929   7.839   5.518  0.3394  0.0188 -0.2875
  108MOL     H517339   2.921   7.640   5.733 -1.2064  1.1875 -2.8982
  108MOL     H617340   2.863   7.692   5.885  1.9877 -0.7830 -0.2524
  108MOL     H717341   3.081   7.799   5.788  0.1579 -1.1729 -1.6202
  108MOL     H817342   2.954   0.068   5.813 -0.1391 -0.2473  0.2791
  108MOL     H917343   2.792   7.753   5.727 -0.9070 -1.4930 -0.4932
  108MOL    C1017344   3.125   0.106   5.580 -0.2288 -0.1198  0.2097
  108MOL    C1117345   3.116   0.261   5.545  0.7388 -0.0739  0.2212
  108MOL    C1217346   2.981   0.330   5.556 -0.2653 -0.4793 -0.2989
  108MOL    O1317347   2.951   0.383   5.662 -0.8574 -0.7542 -0.2334
  108MOL    H1417348   3.160   0.050   5.494 -1.4049 -0.7162  0.1040
  108MOL    H1517349   3.201   0.102   5.658  0.6390  1.3963 -0.5328
  108MOL    H1617350   3.158   0.282   5.447  0.6677  0.3643  0.2818
  108MOL    H1717351   3.176   0.320   5.614 -0.5005  0.3122  0.9836
  108MOL    C1817352   2.884   0.308   5.443  1.2496 -0.3226  0.0837
  108MOL    C1917353   2.735   0.330   5.484 -0.3675  0.4871  0.1677
  108MOL    C2017354   2.697   0.477   5.458 -0.4657  0.1703 -0.2217
  108MOL    O2117355   2.725   0.529   5.347  0.6110 -0.3132  0.2161
  108MOL    H2217356   2.890   0.203   5.414 -1.4159 -0.1059 -1.4706
  108MOL    H2317357   2.907   0.366   5.353 -4.3976  2.4853  0.2353
  108MOL    H2417358   2.722   0.286   5.583 -2.2189  1.2380  0.2880
  108MOL    H2517359   2.664   0.273   5.424 -0.1276  1.0526 -0.6604
  108MOL    C2617360   2.630   0.554   5.573 -0.3655 -0.0610 -0.3466
  108MOL    C2717361   2.554   0.666   5.512 -0.1511 -0.1866 -0.3507
  108MOL    C2817362   2.474   0.750   5.616  0.0939  0.3131  0.6830
  108MOL    O2917363   2.467   0.714   5.732 -0.5043 -0.1427 -0.6426
  108MOL    H3017364   2.696   0.579   5.656 -1.0499 -1.7773  0.7459
  108MOL    H3117365   2.555   0.487   5.614  0.2977  0.1091  1.1539
  108MOL    H3217366   2.481   0.613   5.450 -0.5992 -0.5624  0.4938
  108MOL    H3317367   2.619   0.731   5.453 -0.2784  0.0940 -0.1786
  108MOL    C3417368   2.389   0.868   5.571 -0.4200 -0.2802 -0.2445
  108MOL    C3517369   2.274   0.827   5.473 -0.6298  0.3365  0.3089
  108MOL    C3617370   2.292   0.885   5.327 -0.1256  0.9661 -0.9998
  108MOL    O3717371   2.401   0.928   5.299 -0.2008 -0.4081  0.2575
  108MOL    H3817372   2.459   0.942   5.532  1.0568 -0.9202  1.1492
  108MOL    H3917373   2.338   0.915   5.655 -0.5033 -1.1163  0.1769
  108MOL    H4017374   2.171   0.844   5.504 -1.1647 -1.0776 -0.6060
  108MOL    H4117375   2.265   0.718   5.464  1.4106  0.1308  0.3915
  108MOL    C4217376   2.182   0.867   5.231  0.3011  0.2182  0.5809
  108MOL    C4317377   2.227   0.890   5.089 -0.5620 -0.1586  0.0115
  108MOL    C4417378   2.113   0.920   5.001 -0.7372 -0.1799 -0.6694
  108MOL    O4517379   2.009   0.959   5.051 -0.0001  0.0425  0.1623
  108MOL    H4617380   2.095   0.928   5.258 -1.1274 -0.1108 -2.9928
  108MOL    H4717381   2.147   0.767   5.256 -0.7758  0.7719  1.3282
  108MOL    H4817382   2.279   0.805   5.046  0.0456  0.1051  0.2194
  108MOL    H4917383   2.306   0.964   5.087 -0.1749 -0.5956 -1.3504
  108MOL    C5017384   2.140   0.887   4.853 -0.3578  0.0812 -0.9829
  108MOL    C5117385   2.253   0.972   4.787  0.1889  0.0777  0.1690
  108MOL    C5217386   2.279   0.942   4.639  0.1942  0.1248 -0.0883
  108MOL    O5317387   2.200   0.879   4.568  0.2288 -0.5878  0.0259
  108MOL    H5417388   2.051   0.899   4.790 -0.6567  1.8714 -0.2458
  108MOL    H5517389   2.160   0.782   4.833  2.7020  0.3311  0.5853
  108MOL    H5617390   2.346   0.970   4.844 -0.8288 -0.1492  1.8647
  108MOL    H5717391   2.228   1.077   4.799 -2.1524 -0.3387 -0.7532
  108MOL    C5817392   2.413   0.993   4.587 -0.1877  0.4382  0.0537
  108MOL    C5917393   2.441   0.929   4.447  0.7394  0.4192 -0.4093
  108MOL    C6017394   2.502   1.029   4.345  0.2708 -0.8792  0.0711
  108MOL    O6117395   2.559   1.138   4.379 -0.1538  0.2710 -0.0307
  108MOL    H6217396   2.498   0.966   4.650 -1.4942 -3.9472  0.1000
  108MOL    H6317397   2.408   1.101   4.576  2.0899  0.3157 -3.1563
  108MOL    H6417398   2.347   0.898   4.401  0.2511 -1.0755  1.5704
  108MOL    H6517399   2.505   0.842   4.455  0.4617  0.0457 -2.0755
  108MOL    C6617400   2.487   0.979   4.208 -0.6968  0.2500  0.0208
  108MOL    C6717401   2.585   1.036   4.110  0.5247 -0.1283 -0.1979
  108MOL    C6817402   2.530   1.158   4.035 -0.5661 -0.0028  0.8958
  108MOL    O6917403   2.449   1.149   3.946 -0.2471 -0.6442  0.5506
  108MOL    H7017404   2.387   1.013   4.181 -1.1113  0.8955  2.2603
  108MOL    H7117405   2.475   0.871   4.211 -2.4019  0.3583 -1.7145
  108MOL    H7217406   2.600   0.957   4.036  1.5238 -0.5330  0.4317
  108MOL    H7317407   2.679   1.052   4.162  1.2167 -0.0367 -1.4707
  108MOL    C7417408   2.599   1.294   4.081 -0.0294  0.2782 -0.6352
  108MOL    C7517409   2.692   1.346   3.965 -0.3875  0.7097 -0.3216
  108MOL    C7617410   2.802   1.441   4.016  0.2298 -0.4609 -0.7825
  108MOL    O7717411   2.877   1.418   4.111 -0.2339 -0.2832 -0.1852
  108MOL    H7817412   2.666   1.269   4.163 -0.3966 -1.2075 -0.7630
  108MOL    H7917413   2.525   1.369   4.105 -1.1540 -0.8579 -0.5039
  108MOL    H8017414   2.633   1.393   3.887 -1.0112  0.9292  0.2722
  108MOL    H8117415   2.739   1.257   3.924  0.6575  0.6756  0.9118
  108MOL    C8217416   2.831   1.554   3.923 -0.8811  0.4023  0.4205
  108MOL    C8317417   2.984   1.570   3.906 -0.3574  0.7018 -0.4867
  108MOL    C8417418   3.035   1.711   3.899 -0.0588 -0.2017 -0.1992
  108MOL    O8517419   2.952   1.800   3.886  0.1048 -0.2829  0.2424
  108MOL    H8617420   2.795   1.644   3.972 -0.4367  1.3440 -0.9636
  108MOL    H8717421   2.771   1.536   3.834 -2.8888 -0.1179  1.8464
  108MOL    H8817422   3.021   1.522   3.815  0.7001 -2.1713  1.4039
  108MOL    H8917423   3.043   1.508   3.974  1.8371  0.9905 -2.0711
  108MOL    C9017424   3.183   1.734   3.886 -0.0403  0.5849  0.9554
  108MOL    C9117425   3.234   1.848   3.973  0.3688  0.7245  0.3585
  108MOL    C9217426   3.383   1.827   4.005 -0.1236 -0.2327 -0.2400
  108MOL    O9317427   3.464   1.749   3.952  0.3508  0.2285 -0.0205
  108MOL    H9417428   3.183   1.741   3.777  1.7802 -1.2326  0.8117
  108MOL    H9517429   3.238   1.643   3.913  0.3761  0.5365 -0.0141
  108MOL    H9617430   3.180   1.838   4.067 -1.2335  3.0225 -0.2445
  108MOL    H9717431   3.206   1.950   3.944 -0.7862 -0.3275 -2.3898
  108MOL    C9817432   3.432   1.929   4.104  0.7059  0.0981 -0.7799
  108MOL    C9917433   3.548   1.890   4.191  0.1964  0.4035 -0.3885
  108MOL   C10017434   3.503   1.866   4.340 -0.5640  0.0211  0.2568
  108MOL   O10117435   3.397   1.907   4.387 -0.2342 -0.1128 -0.5130
  108MOL   H10217436   3.353   1.977   4.162 -0.2790 -2.5340  0.1215
  108MOL   H10317437   3.463   2.014   4.044  2.1834  0.3168  0.2544
  108MOL   H10417438   3.632   1.958   4.177 -0.3601  1.0346 -0.7559
  108MOL   H10517439   3.587   1.793   4.160 -2.1282 -0.8745  0.5433
  108MOL   C10617440   3.600   1.790   4.426  0.4776 -0.0365  0.6467
  108MOL   C10717441   3.609   1.641   4.399 -0.3990  0.0347 -0.4365
  108MOL   C10817442   3.745   1.587   4.352 -0.1565 -0.4095 -0.5582
  108MOL   O10917443   3.835   1.657   4.295 -0.5773  0.4749 -0.3921
  108MOL   H11017444   3.568   1.799   4.530  0.8280  1.6204  0.6186
  108MOL   H11117445   3.695   1.842   4.416  0.7357 -0.7738 -0.9382
  108MOL   H11217446   3.537   1.611   4.323  0.7362 -2.6381 -0.5413
  108MOL   H11317447   3.583   1.601   4.497 -1.9246 -2.1021 -1.6572
  108MOL   C11417448   3.766   1.442   4.379  0.5528 -0.7337  0.2217
  108MOL   C11517449   3.878   1.365   4.299 -0.3241  0.1323 -0.2750
  108MOL   C11617450   3.978   1.289   4.382 -0.4235  0.2012  0.2990
  108MOL   O11717451   4.017   1.332   4.493  0.4977  0.2441  0.5220
  108MOL   H11817452   3.672   1.392   4.356 -0.0921  0.3924  0.4054
  108MOL   H11917453   3.785   1.437   4.486  0.3307  0.4625  0.3214
  108MOL   H12017454   3.916   1.435   4.225  1.2164 -0.3936  0.0040
  108MOL   H12117455   3.830   1.286   4.242 -0.1689 -0.0547 -0.1446
  108MOL   C12217456   4.030   1.156   4.319  0.3608  0.4263  0.3898
  108MOL   C12317457   4.168   1.129   4.371  0.3056 -0.4337 -0.1992
  108MOL   C12417458   4.166   1.030   4.485  0.1190  0.4329  0.5690
  108MOL   O12517459   4.102   0.924   4.487  0.6190 -0.0494  0.0127
  108MOL   H12617460   4.033   1.168   4.210 -0.2067  2.7926  0.6140
  108MOL   H12717461   3.962   1.072   4.333 -0.3984  0.8163 -0.8487
  108MOL   H12817462   4.230   1.218   4.381 -0.1484 -0.0477 -0.8648
  108MOL   H12917463   4.214   1.070   4.292 -0.4664 -2.6447  0.9550
  108MOL   C13017464   4.272   1.056   4.591  0.7100 -0.3258  0.1509
  108MOL   C13117465   4.402   0.988   4.549  1.0258  0.1716  1.3146
  108MOL   C13217466   4.493   0.973   4.673  0.3492 -0.2239  0.3298
  108MOL   O13317467   4.452   0.953   4.788  0.2768 -0.3035 -0.1755
  108MOL   H13417468   4.225   1.024   4.683 -2.5974  2.7033 -0.3956
  108MOL   H13517469   4.280   1.165   4.599  0.2820 -0.1147 -1.8770
  108MOL   H13617470   4.449   1.041   4.466 -1.2992  0.4518  0.1470
  108MOL   H13717471   4.377   0.888   4.514  0.4037  0.4472  0.9799
  108MOL   C13817472   4.646   0.981   4.641 -0.2811  0.5513 -0.2700
  108MOL   C13917473   4.737   0.966   4.768 -0.1478 -0.8632 -0.2659
  108MOL   C14017474   4.789   1.107   4.794 -0.2263  1.0223 -0.3286
  108MOL   O14117475   4.898   1.148   4.756  0.5402 -0.4300  0.0225
  108MOL   H14217476   4.675   1.067   4.582  1.4936  0.2667  0.1587
  108MOL   H14317477   4.658   0.890   4.583 -1.3088 -1.4151  2.4658
  108MOL   H14417478   4.824   0.904   4.745  0.8586  0.9962 -1.6214
  108MOL   H14517479   4.695   0.930   4.862  1.3074  0.5587  0.9580
  108MOL   C14617480   4.701   1.191   4.880  0.6000  0.9916 -0.3128
  108MOL   C14717481   4.697   1.334   4.810 -0.6034 -0.0664 -0.5543
  108MOL   C14817482   4.805   1.427   4.859  0.3126 -0.1214  0.2902
  108MOL   O14917483   4.810   1.448   4.980  0.1116  0.5509 -0.1251
  108MOL   H15017484   4.727   1.196   4.985 -0.3286 -1.6790  0.0669
  108MOL   H15117485   4.611   1.130   4.882  0.3043  1.4336 -0.0938
  108MOL   H15217486   4.600   1.367   4.847  0.3451 -0.0619  2.0079
  108MOL   H15317487   4.703   1.319   4.702  1.0290 -3.2744 -0.0844
  108MOL   C15417488   4.890   1.514   4.761 -0.5791  0.1325 -0.1593
  108MOL   C15517489   5.044   1.496   4.775 -0.4524  0.5965 -0.1166
  108MOL   C15617490   5.112   1.435   4.652  0.3034  0.4947 -0.4229
  108MOL   O15717491   5.070   1.452   4.538  0.1289 -0.1535  0.4381
  108MOL   H15817492   4.860   1.619   4.761  0.0699  0.3274 -1.3825
  108MOL   H15917493   4.870   1.475   4.661  1.9435 -0.2203 -0.5652
  108MOL   H16017494   5.070   1.445   4.868  2.1993  2.6125  0.3220
  108MOL   H16117495   5.085   1.597   4.784  1.3881 -0.1658  0.2859
  108MOL   H16217496   5.191   1.367   4.683 -1.3621 -1.6399 -0.7792
  109MOL     C117497   4.456   2.580   1.021  0.0624 -0.2818 -0.2965
  109MOL     C217498   4.360   2.699   0.997 -0.5664 -0.1786  0.8367
  109MOL     C317499   4.410   2.833   1.058 -0.2532 -0.5017  0.1664
  109MOL     O417500   4.497   2.843   1.148 -1.1478 -0.3144  0.5127
  109MOL     H517501   4.394   2.492   1.002 -1.8151  1.1091 -0.7700
  109MOL     H617502   4.542   2.574   0.954 -0.9777 -0.0050 -1.6876
  109MOL     H717503   4.262   2.679   1.039 -1.0026 -0.0165 -0.0993
  109MOL     H817504   4.347   2.709   0.889 -2.6464  0.5719  1.1444
  109MOL     H917505   4.483   2.573   1.126 -0.1740  0.3174 -0.1963
  109MOL    C1017506   4.343   2.960   1.011  0.0745  0.0985  0.5199
  109MOL    C1117507   4.330   3.068   1.122  0.1852  0.3470  0.5702
  109MOL    C1217508   4.187   3.081   1.173  0.3257  0.2295  0.1858
  109MOL    O1317509   4.097   3.070   1.091  0.6525  0.7242  0.2130
  109MOL    H1417510   4.245   2.929   0.975 -0.0078 -0.9630  1.6245
  109MOL    H1517511   4.401   3.009   0.932  0.4431 -0.3451  0.5129
  109MOL    H1617512   4.353   3.168   1.086 -0.8982 -0.0493 -1.2412
  109MOL    H1717513   4.389   3.043   1.211 -0.3182 -0.5025  0.6654
  109MOL    C1817514   4.165   3.100   1.323 -0.2550  0.2730 -0.0624
  109MOL    C1917515   4.008   3.099   1.349 -0.1047 -0.1847 -0.4236
  109MOL    C2017516   3.977   3.082   1.497  0.9411  0.4292 -0.0610
  109MOL    O2117517   4.063   3.088   1.578  0.4100 -0.4455 -0.3792
  109MOL    H2217518   4.205   3.197   1.354 -0.3661  0.9711 -2.0330
  109MOL    H2317519   4.219   3.017   1.367 -2.6553 -0.8368  0.9100
  109MOL    H2417520   3.956   3.018   1.298 -1.7485  0.6289 -0.0704
  109MOL    H2517521   3.969   3.193   1.310 -0.6338 -0.0415  0.4480
  109MOL    C2617522   3.831   3.046   1.526 -0.0457  0.3941  0.2899
  109MOL    C2717523   3.799   2.984   1.664 -0.0460  0.4533 -0.5813
  109MOL    C2817524   3.792   2.833   1.655 -0.1833 -0.2160  0.6145
  109MOL    O2917525   3.818   2.773   1.551 -0.3058 -0.0596 -0.2738
  109MOL    H3017526   3.795   2.990   1.439  0.7731  0.3233 -0.0077
  109MOL    H3117527   3.772   3.138   1.525  0.2758  0.6148  1.4019
  109MOL    H3217528   3.709   3.031   1.704 -0.2841 -0.7697  0.3483
  109MOL    H3317529   3.876   3.006   1.738 -0.0244 -0.8381 -0.2155
  109MOL    C3417530   3.770   2.760   1.788  0.2870 -0.0972  0.5523
  109MOL    C3517531   3.745   2.607   1.770 -0.6012  0.0114  0.6733
  109MOL    C3617532   3.871   2.529   1.803  0.3618 -0.5493 -0.4202
  109MOL    O3717533   3.915   2.519   1.915  0.9765  0.0496 -0.6787
  109MOL    H3817534   3.685   2.794   1.848  1.0757 -0.4494  1.9026
  109MOL    H3917535   3.858   2.773   1.851 -0.1413  1.1247  0.9239
  109MOL    H4017536   3.718   2.568   1.672 -1.0575  1.3914  0.2394
  109MOL    H4117537   3.663   2.572   1.834 -1.7500  1.2208 -0.0954
  109MOL    C4217538   3.950   2.483   1.683 -0.5425 -0.1535  0.5133
  109MOL    C4317539   4.064   2.384   1.721  0.3781  0.5673  0.3806
  109MOL    C4417540   4.016   2.244   1.760 -0.3318 -0.4573 -0.6381
  109MOL    O4517541   3.940   2.182   1.687  0.4862 -0.0438  0.4166
  109MOL    H4617542   3.993   2.572   1.638  1.7339 -0.3041  2.3179
  109MOL    H4717543   3.892   2.433   1.605  1.6978  2.4127 -2.9509
  109MOL    H4817544   4.118   2.412   1.811  2.5205  1.7249 -1.2377
  109MOL    H4917545   4.138   2.387   1.641  1.3651 -0.1580  1.2480
  109MOL    C5017546   4.036   2.200   1.903  0.0138  0.0739  0.7068
  109MOL    C5117547   4.013   2.047   1.912  0.3397  0.0564  0.3784
  109MOL    C5217548   4.104   1.980   2.017 -0.4891  0.0880 -0.3144
  109MOL    O5317549   4.071   1.972   2.136  0.2916 -0.4943  0.0965
  109MOL    H5417550   3.969   2.260   1.964 -1.7153 -0.4518 -0.6326
  109MOL    H5517551   4.130   2.241   1.939  0.1140 -0.4985  1.1045
  109MOL    H5617552   4.040   1.988   1.824 -0.0473 -0.4040  0.5640
  109MOL    H5717553   3.908   2.027   1.929  0.0154 -2.3909 -3.9698
  109MOL    C5817554   4.242   1.942   1.977 -0.6128 -0.0429 -0.7404
  109MOL    C5917555   4.296   1.810   2.049 -0.5428  0.0718  0.3120
  109MOL    C6017556   4.411   1.845   2.144 -0.2537 -0.0599 -0.1724
  109MOL    O6117557   4.413   1.955   2.197 -0.2226  0.2307  0.3931
  109MOL    H6217558   4.297   2.033   2.000  0.2464 -0.3276 -1.6017
  109MOL    H6317559   4.265   1.924   1.872 -1.7467 -1.4741 -0.7602
  109MOL    H6417560   4.329   1.733   1.980 -0.1936 -0.7263  1.3638
  109MOL    H6517561   4.212   1.760   2.096 -1.8515  2.2928  0.3802
  109MOL    C6617562   4.511   1.737   2.167 -0.1682  0.4239 -0.6700
  109MOL    C6717563   4.556   1.742   2.308  0.0876 -0.2380 -0.3209
  109MOL    C6817564   4.660   1.849   2.340 -1.0019  0.3623  0.7486
  109MOL    O6917565   4.761   1.845   2.268 -0.2075  0.8972  0.2757
  109MOL    H7017566   4.607   1.735   2.115  0.0347 -1.2541 -0.2752
  109MOL    H7117567   4.457   1.645   2.145  0.5794  0.2586 -1.8952
  109MOL    H7217568   4.610   1.651   2.335 -0.3732 -0.4394 -0.0855
  109MOL    H7317569   4.463   1.750   2.364  0.1857  0.5377 -0.2651
  109MOL    C7417570   4.634   1.936   2.466 -1.0529  0.2301 -0.2575
  109MOL    C7517571   4.731   2.053   2.477  0.0070 -0.4997  0.1821
  109MOL    C7617572   4.672   2.185   2.442  0.1423  0.6401  0.5026
  109MOL    O7717573   4.584   2.230   2.516 -0.2576  0.6942 -0.0082
  109MOL    H7817574   4.646   1.876   2.557  0.2722 -1.6708 -1.6499
  109MOL    H7917575   4.530   1.967   2.473 -1.6058 -1.4531 -0.7003
  109MOL    H8017576   4.829   2.052   2.430 -0.0090 -0.9182  0.1565
  109MOL    H8117577   4.749   2.046   2.585  1.9790 -0.3477 -0.1133
  109MOL    C8217578   4.716   2.257   2.307 -0.4952 -0.5485  0.2562
  109MOL    C8317579   4.590   2.309   2.231  1.2702 -0.6318 -0.2990
  109MOL    C8417580   4.608   2.358   2.093  0.1818  0.1811 -0.5268
  109MOL    O8517581   4.695   2.433   2.048  0.0997  0.5938 -0.3629
  109MOL    H8617582   4.784   2.192   2.252 -1.8623  0.3041 -2.5570
  109MOL    H8717583   4.773   2.345   2.337  0.6961 -1.1917 -0.0868
  109MOL    H8817584   4.536   2.384   2.289  0.0377 -2.1458  0.5607
  109MOL    H8917585   4.524   2.223   2.228 -0.5946  0.6929  1.2109
  109MOL    C9017586   4.490   2.322   1.998  0.5097  0.7048 -0.1573
  109MOL    C9117587   4.469   2.399   1.872  1.1020 -0.6170 -0.9140
  109MOL    C9217588   4.414   2.314   1.762 -0.2486  0.3825  0.2807
  109MOL    O9317589   4.323   2.233   1.789  0.2239 -0.4514 -0.5677
  109MOL    H9417590   4.397   2.339   2.053  0.5045 -1.0974  0.4108
  109MOL    H9517591   4.497   2.215   1.978 -0.1773  0.4486  0.9169
  109MOL    H9617592   4.568   2.429   1.837  0.5093  2.4291 -0.1262
  109MOL    H9717593   4.409   2.487   1.896  0.8650 -1.1956  0.6982
  109MOL    C9817594   4.479   2.330   1.630  0.0101  0.1275 -0.2055
  109MOL    C9917595   4.409   2.264   1.512 -0.6735 -0.2252  0.1708
  109MOL   C10017596   4.453   2.117   1.488 -0.3871 -0.0384 -0.0691
  109MOL   O10117597   4.571   2.087   1.512  0.4509  0.1850 -0.0553
  109MOL   H10217598   4.582   2.297   1.645  0.0150  1.1233  2.1785
  109MOL   H10317599   4.482   2.437   1.612 -0.4722 -0.0669 -1.4597
  109MOL   H10417600   4.428   2.314   1.417 -1.1712  0.0960  0.2391
  109MOL   H10517601   4.301   2.275   1.522 -0.5876  0.4569  0.3043
  109MOL   C10617602   4.344   2.023   1.420 -0.0892 -0.3119 -0.6432
  109MOL   C10717603   4.372   2.003   1.270 -0.2395  0.7780  0.0484
  109MOL   C10817604   4.414   1.856   1.244 -0.2479  0.1959  0.6228
  109MOL   O10917605   4.345   1.768   1.285 -0.2541 -0.1190  0.3774
  109MOL   H11017606   4.249   2.073   1.438 -0.1118 -0.1561 -1.1998
  109MOL   H11117607   4.333   1.925   1.466 -2.3487 -1.6460 -3.8804
  109MOL   H11217608   4.452   2.066   1.233 -1.4445  0.6237 -2.9926
  109MOL   H11317609   4.286   2.027   1.207 -0.3797  1.6620  0.5704
  109MOL   C11417610   4.559   1.832   1.200 -0.2804 -0.1399  0.0879
  109MOL   C11517611   4.595   1.683   1.196  0.5679 -0.1396 -0.2576
  109MOL   C11617612   4.706   1.658   1.099  0.4686 -0.2894 -0.2832
  109MOL   O11717613   4.708   1.713   0.994  0.3038 -0.4002 -0.2812
  109MOL   H11817614   4.628   1.890   1.260  0.9320 -1.9430  0.4770
  109MOL   H11917615   4.578   1.880   1.104  0.8406 -0.4594  0.1379
  109MOL   H12017616   4.514   1.618   1.163  0.2452 -0.0318  0.3183
  109MOL   H12117617   4.632   1.641   1.290  0.3293  1.5646  0.6232
  109MOL   C12217618   4.812   1.556   1.128 -0.4760  0.1135 -0.1973
  109MOL   C12317619   4.913   1.541   1.017  0.1063 -0.7250  0.2845
  109MOL   C12417620   4.994   1.412   1.028 -0.7525  0.1157 -0.4890
  109MOL   O12517621   4.971   1.328   1.115  0.2951  0.5669  0.2037
  109MOL   H12617622   4.763   1.462   1.154 -0.0171 -0.1090 -0.1200
  109MOL   H12717623   4.867   1.584   1.217  0.4393 -1.0079 -0.3867
  109MOL   H12817624   4.969   1.634   1.013  0.6413 -1.0992 -1.1742
  109MOL   H12917625   4.861   1.535   0.921 -1.7247 -1.4843  1.3052
  109MOL   C13017626   5.114   1.404   0.930 -0.1288  0.3243 -0.2211
  109MOL   C13117627   5.231   1.494   0.986  0.3176  0.1227  0.4077
  109MOL   C13217628   5.298   1.409   1.096 -0.1562 -0.6100 -0.4616
  109MOL   O13317629   5.359   1.304   1.073  0.5282  0.3836  0.0295
  109MOL   H13417630   5.088   1.449   0.835 -1.1186 -1.2221 -0.6981
  109MOL   H13517631   5.146   1.302   0.906 -1.7055 -0.4075  0.7023
  109MOL   H13617632   5.196   1.592   1.019  2.6986  1.1364 -0.0068
  109MOL   H13717633   5.297   1.524   0.905 -3.2707  1.9172 -1.9671
  109MOL   C13817634   5.288   1.460   1.243 -0.6133 -0.3659 -0.1637
  109MOL   C13917635   5.407   1.564   1.253 -0.2524 -0.6127 -0.7183
  109MOL   C14017636   5.529   1.509   1.326  0.5452 -0.2381  0.0508
  109MOL   O14117637   5.572   1.393   1.308 -0.6707  0.7280 -0.4585
  109MOL   H14217638   5.303   1.374   1.308 -1.4869 -0.8018 -0.5302
  109MOL   H14317639   5.199   1.513   1.275 -1.1223 -2.0051  1.1864
  109MOL   H14417640   5.386   1.660   1.300  1.2456 -0.5889 -0.0807
  109MOL   H14517641   5.441   1.604   1.157 -2.5247  3.7334  0.1411
  109MOL   C14617642   5.599   1.598   1.428 -0.0581  0.3134  0.2505
  109MOL   C14717643   5.748   1.572   1.447 -0.5094  0.2823 -0.6371
  109MOL   C14817644   5.833   1.698   1.432  0.0173  0.4976  1.1087
  109MOL   O14917645   5.795   1.799   1.368  0.3607 -0.2452  0.2416
  109MOL   H15017646   5.538   1.583   1.516 -0.2850 -0.0113  0.0391
  109MOL   H15117647   5.583   1.699   1.390  0.7438  0.8381  1.2806
  109MOL   H15217648   5.783   1.510   1.365 -0.6668  0.7995 -1.1028
  109MOL   H15317649   5.777   1.528   1.542  0.5474  0.3599 -0.9150
  109MOL   C15417650   5.977   1.683   1.493  0.0325 -0.1269  0.1139
  109MOL   C15517651   6.071   1.789   1.433 -0.6558  0.2191  0.3805
  109MOL   C15617652   6.094   1.907   1.525  0.2577 -0.9732 -0.1306
  109MOL   O15717653   6.084   1.905   1.646 -0.3474  0.4819 -0.2674
  109MOL   H15817654   6.013   1.583   1.469  0.1136  0.4668 -2.3761
  109MOL   H15917655   5.979   1.696   1.601  1.3809  0.4104  0.0401
  109MOL   H16017656   6.037   1.823   1.335  1.4990 -0.3525 -0.5969
  109MOL   H16117657   6.174   1.755   1.418  0.1033  2.3212  0.6695
  109MOL   H16217658   6.138   1.991   1.471 -0.3095  0.5163  1.6648
  110MOL     C117659   7.188   0.003   5.574  0.5966  0.0065 -0.4988
  110MOL     C217660   7.342   0.005   5.547  0.2464 -0.0256  0.3121
  110MOL     C317661   7.423   0.003   5.679 -0.7000 -0.1294  0.0825
  110MOL     O417662   7.520   7.782   5.702  0.2720 -0.6691  0.0260
  110MOL     H517663   7.160   0.103   5.608  1.4928 -0.0058  0.2806
  110MOL     H617664   7.134   7.838   5.483 -1.0807  0.5592  0.3218
  110MOL     H717665   7.369   0.095   5.492 -0.4889  0.6564  1.0491
  110MOL     H817666   7.357   7.781   5.479  2.0062  1.1170 -0.7411
  110MOL     H917667   7.158   7.787   5.648  0.2216  0.6976  0.0616
  110MOL    C1017668   7.407   0.117   5.770 -0.1788 -0.3351  0.4360
  110MOL    C1117669   7.490   0.124   5.900  0.8684  0.4751 -0.0407
  110MOL    C1217670   7.548   0.261   5.934 -0.2892 -0.6262 -0.5316
  110MOL    O1317671   7.544   0.354   5.855  0.1362  0.1892  0.3049
  110MOL    H1417672   7.303   0.120   5.805 -0.2754 -0.9224  0.2184
  110MOL    H1517673   7.423   0.206   5.710  0.0178 -1.0288 -0.5493
  110MOL    H1617674   7.574   0.055   5.890 -0.6032 -1.4558  0.5403
  110MOL    H1717675   7.430   0.082   5.981  2.7576  1.9390  2.1739
  110MOL    C1817676   7.621   0.267   6.066  0.2716 -0.5382 -0.1927
  110MOL    C1917677   7.598   0.408   6.130 -0.0674 -0.0388  0.3989
  110MOL    C2017678   7.698   0.511   6.081 -0.4767  0.3488 -0.2128
  110MOL    O2117679   7.795   0.491   6.009 -0.0259  0.1746 -0.2038
  110MOL    H2217680   7.729   0.263   6.052  0.2503 -0.3389 -0.4265
  110MOL    H2317681   7.596   0.184   6.132  1.2941  0.0649  0.9707
  110MOL    H2417682   7.596   0.388   6.237 -0.2848 -1.4415  0.1423
  110MOL    H2517683   7.498   0.448   6.112  0.0519 -0.2470 -0.8076
  110MOL    C2617684   7.680   0.659   6.134  0.7320 -0.1637  0.6147
  110MOL    C2717685   7.774   0.762   6.067  0.0578 -0.0722 -0.6998
  110MOL    C2817686   7.735   0.911   6.108  0.2991  1.2336  0.1222
  110MOL    O2917687   7.630   0.954   6.142 -0.2330 -0.1530 -0.1193
  110MOL    H3017688   7.691   0.668   6.242  0.3391  0.9730  0.5653
  110MOL    H3117689   7.575   0.688   6.128  0.0845 -2.2258  1.5604
  110MOL    H3217690   7.772   0.750   5.959  1.4687  4.6382 -1.3266
  110MOL    H3317691   0.017   0.732   6.090 -0.5424 -0.3607  1.7044
  110MOL    C3417692   7.848   1.008   6.081  0.3415 -0.1580  0.1885
  110MOL    C3517693   7.812   1.155   6.122  0.1249 -0.0093  0.1372
  110MOL    C3617694   0.047   1.230   6.200  0.4247  0.5369  0.4425
  110MOL    O3717695   0.162   1.189   6.219  0.3594  0.2980 -0.4796
  110MOL    H3817696   0.017   0.985   5.978 -0.7981 -1.8736  0.2444
  110MOL    H3917697   0.077   0.984   6.142  1.0426 -0.4237 -0.8967
  110MOL    H4017698   7.726   1.169   6.187  0.4490  2.1880  0.1155
  110MOL    H4117699   7.788   1.209   6.030 -0.0994 -1.1044 -0.4574
  110MOL    C4217700   0.000   1.360   6.262 -0.9890  0.7376 -0.4266
  110MOL    C4317701   0.113   1.460   6.300  0.8260 -0.1566 -0.5311
  110MOL    C4417702   0.103   1.510   6.448  0.1633 -0.7088  0.1298
  110MOL    O4517703   0.013   1.472   6.529 -0.0304 -0.2567  0.1758
  110MOL    H4617704   7.807   1.327   6.352  3.0492  1.0630  2.1299
  110MOL    H4717705   7.789   1.409   6.194 -1.1697  0.8933 -0.1282
  110MOL    H4817706   0.103   1.547   6.236  0.7456  0.1104 -0.1540
  110MOL    H4917707   0.214   1.428   6.274 -0.2022 -1.4919 -3.0081
  110MOL    C5017708   0.217   1.597   6.506  0.2392  0.5986  0.8819
  110MOL    C5117709   0.198   1.644   6.656 -0.2707 -0.4102  0.0407
  110MOL    C5217710   0.252   1.780   6.676  0.3382 -0.6648  0.5399
  110MOL    O5317711   0.338   1.831   6.602 -0.0600 -0.3697  0.5017
  110MOL    H5417712   0.204   1.682   6.438 -0.6261 -0.5012 -0.3370
  110MOL    H5517713   0.314   1.548   6.495 -0.4645 -0.3554 -1.2529
  110MOL    H5617714   0.249   1.576   6.725  1.1223  0.0335 -0.5173
  110MOL    H5717715   0.097   1.653   6.695  0.2514 -0.8910  1.5416
  110MOL    C5817716   0.212   1.858   6.799 -0.1416 -1.0904 -0.2581
  110MOL    C5917717   0.316   1.945   6.869  0.3038  0.1952  0.2218
  110MOL    C6017718   0.293   2.102   6.859  0.0632 -0.0176  0.2074
  110MOL    O6117719   0.189   2.161   6.872  0.3140 -0.6517  0.3965
  110MOL    H6217720   0.182   1.788   6.877  1.3874  0.8706  2.1615
  110MOL    H6317721   0.117   1.904   6.773 -2.0528 -4.2001  0.9156
  110MOL    H6417722   0.412   1.922   6.823  0.1358  2.0839 -1.1075
  110MOL    H6517723   0.336   1.913   6.971  2.5214  1.9483  0.3702
  110MOL    C6617724   0.415   2.195   6.833 -0.7172  0.6064 -0.2587
  110MOL    C6717725   0.489   2.154   6.698 -0.5261  0.7447  0.3104
  110MOL    C6817726   0.605   2.247   6.658  0.7067 -0.4127  0.6695
  110MOL    O6917727   0.614   2.361   6.711  0.4681  0.8043  0.1330
  110MOL    H7017728   0.489   2.176   6.911 -1.8310  2.2169  1.2210
  110MOL    H7117729   0.377   2.297   6.830 -0.7525  0.6095  0.4162
  110MOL    H7217730   0.417   2.154   6.616 -1.2283 -1.8469  0.9069
  110MOL    H7317731   0.536   2.057   6.713 -2.3855 -0.4209 -1.1227
  110MOL    C7417732   0.701   2.197   6.546 -0.2469 -1.1928 -0.2441
  110MOL    C7517733   0.790   2.299   6.482  0.1246  0.0696  0.3516
  110MOL    C7617734   0.916   2.249   6.409 -0.1499  0.0049  0.2041
  110MOL    O7717735   1.011   2.198   6.463 -0.2457 -0.5734  0.3931
  110MOL    H7817736   0.654   2.137   6.469 -1.3380  0.3630 -0.8181
  110MOL    H7917737   0.763   2.121   6.594 -0.0888 -1.7017 -1.2413
  110MOL    H8017738   0.835   2.365   6.557  0.8168  2.4192 -2.0762
  110MOL    H8117739   0.743   2.357   6.404 -0.9660 -0.1326  0.8530
  110MOL    C8217740   0.915   2.251   6.262  0.0661  0.8561 -0.3709
  110MOL    C8317741   0.832   2.135   6.205 -0.4027  0.4149  0.6016
  110MOL    C8417742   0.927   2.043   6.131 -0.3867 -0.0416 -0.0096
  110MOL    O8517743   0.955   2.068   6.010 -0.1432 -0.0427 -0.1248
  110MOL    H8617744   1.014   2.259   6.217  0.0419  2.7782 -0.1184
  110MOL    H8717745   0.857   2.338   6.234 -0.7796  0.4057 -0.0358
  110MOL    H8817746   0.754   2.175   6.140  0.3729 -0.3399 -0.8227
  110MOL    H8917747   0.783   2.067   6.274  0.6440 -0.3238  0.6370
  110MOL    C9017748   1.004   1.940   6.207 -0.3788  0.4584  0.0136
  110MOL    C9117749   1.069   1.836   6.123 -0.3476  0.4822 -0.7954
  110MOL    C9217750   0.979   1.752   6.036  0.6820  0.1963 -0.2596
  110MOL    O9317751   0.907   1.667   6.091  0.3907 -0.0379  0.1197
  110MOL    H9417752   0.931   1.903   6.279 -1.8014  0.7359 -1.2526
  110MOL    H9517753   1.069   1.993   6.278 -0.4394  0.4397  0.0836
  110MOL    H9617754   1.139   1.773   6.177  1.2195  1.3364 -1.7673
  110MOL    H9717755   1.135   1.893   6.057 -0.4431  4.5414  2.4261
  110MOL    C9817756   0.975   1.785   5.886 -0.2762  0.1102 -0.3392
  110MOL    C9917757   1.035   1.674   5.796  1.0726  0.2832  0.0385
  110MOL   C10017758   1.162   1.700   5.720  0.2416 -0.4058  0.8675
  110MOL   O10117759   1.242   1.787   5.758 -0.4473 -0.5901  0.2022
  110MOL   H10217760   1.021   1.882   5.867  0.3764 -0.0681  0.3472
  110MOL   H10317761   0.871   1.782   5.852 -0.0876 -1.0663 -0.8092
  110MOL   H10417762   0.956   1.657   5.723 -0.0957 -1.8438  1.7398
  110MOL   H10517763   1.063   1.585   5.852  3.7402 -0.0448 -1.7202
  110MOL   C10617764   1.192   1.620   5.598  0.1300 -0.2846 -0.1192
  110MOL   C10717765   1.334   1.551   5.597  0.3610 -0.0806  0.2944
  110MOL   C10817766   1.440   1.637   5.530  0.1070 -0.0908 -0.1720
  110MOL   O10917767   1.406   1.718   5.444  0.7093  0.4687 -0.0878
  110MOL   H11017768   1.191   1.698   5.521  0.0241 -0.0240  0.1445
  110MOL   H11117769   1.112   1.548   5.579 -0.2739  0.7286 -2.4372
  110MOL   H11217770   1.323   1.469   5.526 -1.8064 -1.8942  2.6138
  110MOL   H11317771   1.368   1.524   5.697 -2.3861 -1.6537  0.8544
  110MOL   C11417772   1.577   1.618   5.575  0.1235 -0.5842 -0.6574
  110MOL   C11517773   1.691   1.705   5.505  0.6346 -0.0731 -0.6345
  110MOL   C11617774   1.733   1.634   5.377 -0.4478 -0.3228  0.3778
  110MOL   O11717775   1.739   1.514   5.359  0.2902  0.2802  0.2162
  110MOL   H11817776   1.586   1.509   5.576  1.7119 -0.4601 -0.8748
  110MOL   H11917777   1.580   1.651   5.679  0.9317  0.6720 -1.0645
  110MOL   H12017778   1.777   1.726   5.569  0.6031 -1.3951 -0.1212
  110MOL   H12117779   1.646   1.800   5.476  1.9882  0.1225 -2.1375
  110MOL   C12217780   1.784   1.732   5.269 -0.1375  0.0963 -0.3297
  110MOL   C12317781   1.820   1.652   5.138  0.5036  0.0820 -0.1178
  110MOL   C12417782   1.928   1.725   5.054  0.3820 -0.2826  0.2133
  110MOL   O12517783   2.006   1.815   5.098  0.1161 -0.0519 -0.0291
  110MOL   H12617784   1.866   1.788   5.313 -0.8223 -1.5091  3.1889
  110MOL   H12717785   1.706   1.800   5.235  0.2217  1.1231  0.8980
  110MOL   H12817786   1.724   1.654   5.087  0.5838 -1.0447 -0.3455
  110MOL   H12917787   1.853   1.549   5.152 -0.3322 -0.1513  0.1953
  110MOL   C13017788   1.952   1.675   4.913 -0.0063  0.2280 -0.4732
  110MOL   C13117789   1.973   1.788   4.810  0.0456  0.4619 -0.1764
  110MOL   C13217790   1.846   1.834   4.744 -0.4525 -0.8745 -1.2245
  110MOL   O13317791   1.741   1.799   4.791  0.2701  0.0261 -0.0490
  110MOL   H13417792   1.870   1.610   4.882 -1.4028  1.1316  1.2528
  110MOL   H13517793   2.036   1.606   4.909 -1.0724 -1.1312  0.1992
  110MOL   H13617794   2.040   1.751   4.732  0.8922  0.2690  0.6293
  110MOL   H13717795   2.022   1.870   4.863 -2.6197  1.4654  0.7893
  110MOL   C13817796   1.853   1.926   4.623 -0.2234 -0.2111  0.2705
  110MOL   C13917797   1.772   1.871   4.505 -0.3512 -0.0206 -0.8332
  110MOL   C14017798   1.853   1.895   4.375  0.3126 -0.0844  0.0875
  110MOL   O14117799   1.851   2.006   4.318 -0.3069  0.0036  0.4181
  110MOL   H14217800   1.955   1.944   4.589  0.4898  1.2646  3.0176
  110MOL   H14317801   1.824   2.029   4.646  0.6895  0.0183  0.4220
  110MOL   H14417802   1.683   1.933   4.503  1.7688  3.1698 -0.4881
  110MOL   H14517803   1.745   1.766   4.514 -0.9004  0.0234 -1.9648
  110MOL   C14617804   1.908   1.769   4.298  0.8557  0.1587  0.4301
  110MOL   C14717805   2.032   1.710   4.368  0.3669  0.1511  0.0630
  110MOL   C14817806   1.998   1.583   4.445 -0.3125 -0.0817 -0.1748
  110MOL   O14917807   1.891   1.524   4.434 -0.1142  0.1070 -0.3387
  110MOL   H15017808   1.932   1.789   4.194  1.1015 -0.2474  0.4071
  110MOL   H15117809   1.833   1.692   4.282  0.3408  0.8286 -0.4424
  110MOL   H15217810   2.081   1.781   4.435 -1.5334  0.7314  0.8805
  110MOL   H15317811   2.115   1.679   4.305  2.1660  2.5587  1.1795
  110MOL   C15417812   2.109   1.518   4.527  0.7390  0.2180  0.9249
  110MOL   C15517813   2.060   1.436   4.645 -0.1467 -0.2745  0.7132
  110MOL   C15617814   2.141   1.303   4.665 -0.0643  0.0398 -0.1302
  110MOL   O15717815   2.202   1.248   4.575 -0.2627 -0.3793 -0.7298
  110MOL   H15817816   2.174   1.600   4.557  0.8802  0.2884  0.4349
  110MOL   H15917817   2.170   1.456   4.461 -0.0663 -0.0633  0.4297
  110MOL   H16017818   1.953   1.415   4.637 -0.1294  0.6406 -3.2375
  110MOL   H16117819   2.072   1.503   4.731 -2.4213  0.5751  0.4135
  110MOL   H16217820   2.143   1.268   4.769  3.3772 -1.6944 -0.7163
  111MOL     C117821   2.251   1.118   5.780 -0.2180  0.6949  0.3352
  111MOL     C217822   2.221   0.995   5.866  0.7295 -0.4001  0.2761
  111MOL     C317823   2.316   0.967   5.980 -0.6504 -0.2294  0.3919
  111MOL     O417824   2.399   1.047   6.020 -0.1335 -0.3014 -0.1390
  111MOL     H517825   2.215   1.094   5.679  1.9974 -0.6788 -0.1619
  111MOL     H617826   2.212   1.212   5.818  2.5824  1.5518  1.1988
  111MOL     H717827   2.216   0.899   5.815 -1.4661  1.2491 -2.8114
  111MOL     H817828   2.121   1.003   5.909  1.4620  1.3743  1.7274
  111MOL     H917829   2.358   1.138   5.788 -0.1004 -0.5742  2.2062
  111MOL    C1017830   2.299   0.829   6.045  0.0011  0.0875  0.4814
  111MOL    C1117831   2.420   0.777   6.130 -0.1661 -0.2871  0.6142
  111MOL    C1217832   2.428   0.626   6.142  0.1123 -0.1604 -0.9119
  111MOL    O1317833   2.461   0.564   6.039  0.6941 -0.2761 -0.3239
  111MOL    H1417834   2.261   0.756   5.973 -2.5761  1.2048  0.6460
  111MOL    H1517835   2.211   0.842   6.108 -0.3380 -0.6611  0.1574
  111MOL    H1617836   2.421   0.825   6.228  0.7315 -0.2927  0.6145
  111MOL    H1717837   2.516   0.814   6.091  1.3307 -0.7925  3.6957
  111MOL    C1817838   2.429   0.568   6.281  0.4704 -0.7749 -0.0026
  111MOL    C1917839   2.444   0.415   6.284  0.0568  0.1278 -0.2655
  111MOL    C2017840   2.305   0.342   6.300 -0.4504  0.1141 -0.2154
  111MOL    O2117841   2.273   0.302   6.410 -0.1238  0.2072  0.5880
  111MOL    H2217842   2.333   0.591   6.327 -0.6535  0.0517 -2.6804
  111MOL    H2317843   2.510   0.609   6.343  0.2388 -0.9057  0.3886
  111MOL    H2417844   2.502   0.391   6.372 -0.2114  0.4300 -0.0052
  111MOL    H2517845   2.505   0.383   6.199 -0.5563  0.4498 -0.8406
  111MOL    C2617846   2.208   0.316   6.181  0.4350 -0.0266  0.0547
  111MOL    C2717847   2.149   0.178   6.180  0.6477  0.4849  0.0009
  111MOL    C2817848   2.047   0.138   6.075  0.0737  0.4944  1.0499
  111MOL    O2917849   1.996   0.224   5.997  0.1305  0.4580  0.1131
  111MOL    H3017850   2.258   0.337   6.086 -0.3081  2.0478  0.1076
  111MOL    H3117851   2.126   0.385   6.193 -0.7268 -1.0089 -1.9170
  111MOL    H3217852   2.097   0.154   6.273  0.9925 -0.0373  0.0633
  111MOL    H3317853   2.230   0.107   6.167 -0.5044 -0.6107 -1.4294
  111MOL    C3417854   2.031   7.843   6.064  0.6824 -0.3993  0.1331
  111MOL    C3517855   1.948   7.810   5.935 -0.3225  0.2948  0.2382
  111MOL    C3617856   1.928   7.658   5.920  0.2886  0.1871 -0.0238
  111MOL    O3717857   2.011   7.579   5.963 -0.2072  0.1167  0.1031
  111MOL    H3817858   1.970   7.811   6.148  1.4391 -2.8803 -0.2150
  111MOL    H3917859   2.120   7.780   6.064 -1.5797 -3.8303 -3.8102
  111MOL    H4017860   2.006   7.834   5.846  1.1628 -1.6982  0.6210
  111MOL    H4117861   1.853   0.004   5.928 -0.7344 -0.4354  0.2434
  111MOL    C4217862   1.794   7.604   5.870  0.6453  0.0986 -0.5400
  111MOL    C4317863   1.787   7.455   5.852 -0.0155  0.6234  0.5773
  111MOL    C4417864   1.747   7.405   5.717  0.0331 -0.1584 -0.1121
  111MOL    O4517865   1.681   7.475   5.641 -0.2598 -0.0920 -0.2476
  111MOL    H4617866   1.778   7.644   5.770  2.1885 -0.0604 -0.8643
  111MOL    H4717867   1.716   7.636   5.939  1.6989  0.8537  0.2960
  111MOL    H4817868   1.714   7.413   5.921  0.2214 -2.0494 -0.7342
  111MOL    H4917869   1.878   7.404   5.886  0.3542  0.6804 -0.2983
  111MOL    C5017870   1.784   7.266   5.659  0.1055 -0.3472  0.0943
  111MOL    C5117871   1.675   7.215   5.566  0.0884  0.4704  0.0787
  111MOL    C5217872   1.607   7.080   5.594  0.1663  0.1759 -0.7456
  111MOL    O5317873   1.614   7.024   5.709  0.3985 -1.2665  0.1384
  111MOL    H5417874   1.803   7.194   5.739  0.8267 -1.2073 -0.8470
  111MOL    H5517875   1.877   7.276   5.603  0.4192  0.1755  0.6968
  111MOL    H5617876   1.730   7.198   5.473 -2.6363 -0.4939 -1.4052
  111MOL    H5717877   1.596   7.284   5.537  1.7767  3.4875  2.2805
  111MOL    C5817878   1.524   7.024   5.477  0.0597  0.3679 -0.6630
  111MOL    C5917879   1.386   6.987   5.535  0.2428  0.5701  0.7730
  111MOL    C6017880   1.378   6.835   5.556 -0.0147 -0.1727  0.0450
  111MOL    O6117881   1.418   6.753   5.474 -0.1341 -0.0761  0.2976
  111MOL    H6217882   1.575   6.935   5.442 -0.3402 -0.6218  1.1632
  111MOL    H6317883   1.532   7.091   5.391  0.6362  0.8972 -0.2004
  111MOL    H6417884   1.305   7.023   5.471 -0.2687  1.3583  1.8589
  111MOL    H6517885   1.360   7.028   5.632  0.7028  1.5417  0.4941
  111MOL    C6617886   1.325   6.791   5.692 -0.0002 -0.5221  0.3496
  111MOL    C6717887   1.274   6.649   5.689  0.6089  0.3718 -0.5030
  111MOL    C6817888   1.196   6.613   5.813 -0.3020  0.7910  0.1234
  111MOL    O6917889   1.087   6.663   5.830  0.4306 -0.8077  0.2511
  111MOL    H7017890   1.259   6.861   5.744  0.4022 -0.7060  1.1251
  111MOL    H7117891   1.414   6.787   5.755  0.7516  1.6740 -0.5325
  111MOL    H7217892   1.354   6.576   5.677  0.5433 -0.3269  2.8059
  111MOL    H7317893   1.208   6.616   5.609 -0.6319  1.5490  0.0106
  111MOL    C7417894   1.256   6.511   5.914  0.4598 -0.0750  0.7197
  111MOL    C7517895   1.196   6.522   6.055  0.1499  0.0415  0.0457
  111MOL    C7617896   1.269   6.598   6.162 -0.4211  0.4935  1.1900
  111MOL    O7717897   1.355   6.541   6.230  0.5069 -0.5017  0.4426
  111MOL    H7817898   1.363   6.535   5.922  0.5926 -0.6287  0.6220
  111MOL    H7917899   1.236   6.415   5.867 -1.2763 -0.3695  2.0141
  111MOL    H8017900   1.189   6.419   6.090 -0.0246  0.4086  1.1321
  111MOL    H8117901   1.093   6.557   6.058  0.1610  0.0536  0.3452
  111MOL    C8217902   1.226   6.738   6.197  0.2271 -0.5774  0.7660
  111MOL    C8317903   1.156   6.761   6.329  0.4122  0.2494  0.4131
  111MOL    C8417904   1.173   6.903   6.388 -0.3072  0.3011 -0.0510
  111MOL    O8517905   1.254   6.980   6.340  0.8478 -0.5304  0.4622
  111MOL    H8617906   1.161   6.771   6.116 -0.8254 -4.6806 -0.1804
  111MOL    H8717907   1.305   6.812   6.185 -1.3259  0.7696 -1.4488
  111MOL    H8817908   1.171   6.678   6.398 -1.3201  1.0818  1.8253
  111MOL    H8917909   1.050   6.740   6.313  0.8035 -1.9266  0.4446
  111MOL    C9017910   1.094   6.946   6.511 -0.0571 -0.8097 -0.4533
  111MOL    C9117911   1.100   7.094   6.534 -0.1204  0.0972 -0.5086
  111MOL    C9217912   1.195   7.140   6.643 -0.8371  0.1975 -0.8513
  111MOL    O9317913   1.274   7.063   6.701 -0.1207  0.4710  0.0146
  111MOL    H9417914   1.136   6.893   6.597  0.7105 -0.3490 -0.5301
  111MOL    H9517915   0.991   6.913   6.508 -1.1010  2.3378 -0.3200
  111MOL    H9617916   0.999   7.122   6.561  0.8321  1.1928  2.0657
  111MOL    H9717917   1.131   7.138   6.439 -3.4633 -1.2980 -2.3387
  111MOL    C9817918   1.193   7.288   6.675 -0.1083  0.0312 -0.6484
  111MOL    C9917919   1.129   7.310   6.814 -0.0634  0.6506 -0.3075
  111MOL   C10017920   0.992   7.376   6.801 -0.6957 -0.8478  0.1839
  111MOL   O10117921   0.899   7.324   6.745  0.0732  0.2182  0.0975
  111MOL   H10217922   1.134   7.329   6.592 -2.3727 -0.8159  0.5154
  111MOL   H10317923   1.295   7.328   6.682 -0.7556  1.9556 -1.6762
  111MOL   H10417924   1.194   7.382   6.863  0.1942 -0.6909  1.3303
  111MOL   H10517925   1.134   7.218   6.872  3.2369 -0.9910 -3.0427
  111MOL   C10617926   0.972   7.515   6.853 -0.0698 -0.2534  0.0020
  111MOL   C10717927   1.016   7.626   6.761  0.8247 -0.0346 -0.2133
  111MOL   C10817928   1.013   7.758   6.819  0.0330 -0.7856  0.1056
  111MOL   O10917929   0.923   7.788   6.894  0.0403  0.7632 -0.2152
  111MOL   H11017930   1.021   7.534   6.948 -0.3251 -0.1207  0.1095
  111MOL   H11117931   0.866   7.529   6.875 -0.1125  0.0234 -0.3764
  111MOL   H11217932   0.970   7.627   6.662  0.8412  2.9017 -0.2185
  111MOL   H11317933   1.122   7.608   6.744  1.5172  1.8298  1.9655
  111MOL   C11417934   1.116   0.004   6.786  0.5168  0.0339 -0.0710
  111MOL   C11517935   1.172   0.068   6.915  0.4150 -0.1807  0.7745
  111MOL   C11617936   1.325   0.096   6.895 -0.6848  0.6628 -0.5355
  111MOL   O11717937   1.356   0.155   6.797  0.3214  0.3880  0.1359
  111MOL   H11817938   1.065   0.087   6.737  0.4822  0.7486  1.1414
  111MOL   H11917939   1.188   7.827   6.712 -1.6549 -0.9485 -1.7290
  111MOL   H12017940   1.138   0.008   7.000 -1.3259  1.7108  1.4479
  111MOL   H12117941   1.124   0.165   6.928  0.4412  0.3472 -2.7610
  111MOL   C12217942   1.421   0.053   7.010  0.2392  0.2793 -0.2808
  111MOL   C12317943   1.410   7.765   7.045 -0.1553 -0.1844  0.7569
  111MOL   C12417944   1.422   7.666   6.927 -0.4971 -0.0557  0.3939
  111MOL   O12517945   1.325   7.609   6.884 -0.2850 -0.0442 -0.2468
  111MOL   H12617946   1.402   0.125   7.090  1.2907  0.0312  0.2035
  111MOL   H12717947   1.521   0.066   6.968  0.8566 -1.7918  0.4783
  111MOL   H12817948   1.324   7.751   7.110 -1.3287  0.7991 -0.5692
  111MOL   H12917949   1.504   7.740   7.095  0.5161  0.4498 -0.1639
  111MOL   C13017950   1.566   7.633   6.872 -0.7370 -0.3943  0.7343
  111MOL   C13117951   1.560   7.549   6.752  0.6030 -0.0587 -0.7523
  111MOL   C13217952   1.702   7.515   6.703 -1.1545  0.5049  0.3687
  111MOL   O13317953   1.802   7.550   6.766  0.5278  0.0234  0.0652
  111MOL   H13417954   1.625   7.575   6.943 -0.6960 -2.2918 -0.8231
  111MOL   H13517955   1.598   7.734   6.843 -4.6219  1.0064  1.0196
  111MOL   H13617956   1.510   7.603   6.671  1.9593  2.3519 -0.0179
  111MOL   H13717957   1.504   7.460   6.781  0.0512  0.7497  0.6693
  111MOL   C13817958   1.706   7.415   6.592 -0.1233  0.2713 -0.0047
  111MOL   C13917959   1.824   7.441   6.491  1.2016 -0.0465  0.2437
  111MOL   C14017960   1.776   7.494   6.353 -0.6545  0.0083  0.2209
  111MOL   O14117961   1.710   7.416   6.280 -0.3682  0.3233 -0.3730
  111MOL   H14217962   1.617   7.442   6.534  1.2776 -0.8489 -2.7904
  111MOL   H14317963   1.710   7.313   6.630  0.0633 -0.4810 -1.9746
  111MOL   H14417964   1.889   7.354   6.476  0.9063 -0.3251  0.5679
  111MOL   H14517965   1.897   7.513   6.529  0.1589  1.5980 -0.8317
  111MOL   C14617966   1.817   7.634   6.305 -0.1218  0.5386 -0.2020
  111MOL   C14717967   1.696   7.725   6.269  0.2022 -0.0364  0.5058
  111MOL   C14817968   1.611   7.778   6.385  0.7610  0.2050 -0.2600
  111MOL   O14917969   1.609   7.718   6.495  0.3961 -0.3464  0.0208
  111MOL   H15017970   1.888   7.617   6.224  0.3232  2.3109 -0.2093
  111MOL   H15117971   1.878   7.673   6.387 -0.3347  0.1969  0.1225
  111MOL   H15217972   1.625   7.671   6.206 -0.3004  2.9980 -1.6695
  111MOL   H15317973   1.727   7.806   6.202 -2.0990  0.8872  0.4900
  111MOL   C15417974   1.529   0.046   6.362  0.3785 -0.2186 -0.0956
  111MOL   C15517975   1.422   0.069   6.473  0.4479 -0.4844 -0.1430
  111MOL   C15617976   1.296   0.116   6.405  0.4006  0.0788 -0.6337
  111MOL   O15717977   1.244   0.062   6.312 -0.3975  0.8838 -0.1939
  111MOL   H15817978   1.484   0.032   6.263  3.1548  1.6903 -1.6773
  111MOL   H15917979   1.591   0.131   6.336 -0.4739  0.4556  0.0452
  111MOL   H16017980   1.438   0.136   6.558 -2.4363  2.3946 -1.7679
  111MOL   H16117981   1.400   7.834   6.523  1.4069  0.6934  2.6039
  111MOL   H16217982   1.247   0.208   6.439  0.1938  0.6455 -2.4222
  112MOL     C117983   2.234   6.971   1.414  0.4991 -0.3322  1.0183
  112MOL     C217984   2.133   7.065   1.481 -0.1911  0.7008 -0.5839
  112MOL     C317985   2.161   7.093   1.624 -0.4113 -0.3387 -0.4097
  112MOL     O417986   2.244   7.033   1.695  0.3226  0.2435 -0.9968
  112MOL     H517987   2.331   7.015   1.438  1.9259 -2.3064 -0.9457
  112MOL     H617988   2.217   6.876   1.465  0.4078 -0.3282  0.9952
  112MOL     H717989   2.040   7.009   1.478 -0.2872  0.8030  0.3735
  112MOL     H817990   2.113   7.156   1.424  2.1221 -0.1769 -2.8462
  112MOL     H917991   2.228   6.972   1.305  0.1314 -0.3423  1.0393
  112MOL    C1017992   2.099   7.219   1.668 -0.4673  0.2272 -0.4587
  112MOL    C1117993   2.191   7.294   1.769 -0.2123 -0.1467  0.6260
  112MOL    C1217994   2.146   7.270   1.917  0.1166  0.2067 -0.2616
  112MOL    O1317995   2.110   7.367   1.983 -0.1754 -0.1170 -0.1916
  112MOL    H1417996   2.009   7.196   1.725 -0.4887  0.1186 -0.5351
  112MOL    H1517997   2.077   7.284   1.583  1.4862  0.5076 -0.7823
  112MOL    H1617998   2.194   7.402   1.755  1.2346 -0.2000  0.5338
  112MOL    H1717999   2.295   7.265   1.757 -0.0327  0.5636  0.4047
  112MOL    C1818000   2.172   7.133   1.982  0.3490  0.1119  0.2546
  112MOL    C1918001   2.127   7.105   2.123 -0.6679  0.1169 -0.1325
  112MOL    C2018002   1.981   7.067   2.138 -0.0073 -0.3106 -0.9295
  112MOL    O2118003   1.896   7.078   2.052 -0.5564  0.2680 -0.3969
  112MOL    H2218004   2.276   7.109   1.961  0.3657 -1.1929  1.7920
  112MOL    H2318005   2.118   7.066   1.914  1.5696  0.5067 -1.1343
  112MOL    H2418006   2.144   7.199   2.174  1.1926  0.1594 -0.8166
  112MOL    H2518007   2.181   7.028   2.179  0.2450  0.7237 -0.1781
  112MOL    C2618008   1.935   7.026   2.277  0.3685  0.1018 -0.1592
  112MOL    C2718009   1.873   7.156   2.339  0.4776  0.1254  0.1027
  112MOL    C2818010   1.721   7.169   2.345 -0.0524 -0.8999 -0.1603
  112MOL    O2918011   1.650   7.082   2.289 -0.1055  0.6242 -0.2913
  112MOL    H3018012   2.016   6.985   2.336 -1.0408 -1.5134  0.7219
  112MOL    H3118013   1.847   6.961   2.274  0.6385 -0.3118  0.8672
  112MOL    H3218014   1.917   7.251   2.309 -2.4697  1.1686 -1.0514
  112MOL    H3318015   1.899   7.159   2.445 -0.0189  1.5437  0.1843
  112MOL    C3418016   1.659   7.289   2.413  0.5190  0.0605  0.0339
  112MOL    C3518017   1.655   7.409   2.319  0.7178  0.4141 -0.1570
  112MOL    C3618018   1.768   7.507   2.327  0.1523  0.9372  0.1274
  112MOL    O3718019   1.865   7.484   2.401  0.0001  0.3437  0.6975
  112MOL    H3818020   1.725   7.316   2.496 -0.3372  2.7995 -0.1354
  112MOL    H3918021   1.563   7.266   2.460  1.4237 -0.4713  1.6770
  112MOL    H4018022   1.569   7.467   2.352  0.4325 -0.1343  0.0802
  112MOL    H4118023   1.637   7.376   2.217  0.5177  2.3266 -0.7497
  112MOL    C4218024   1.772   7.627   2.230  0.3519 -0.3607  0.2412
  112MOL    C4318025   1.899   7.708   2.233 -0.7162 -0.7028 -0.1538
  112MOL    C4418026   1.892   7.857   2.276  0.4912 -0.3282 -0.6596
  112MOL    O4518027   1.834   0.019   2.379  0.2084 -0.3768  0.1657
  112MOL    H4618028   1.687   7.692   2.249  0.1952 -0.0126 -1.5508
  112MOL    H4718029   1.749   7.579   2.135 -1.3855 -3.8980  2.3654
  112MOL    H4818030   1.945   7.709   2.134 -1.5580 -2.1821 -0.5697
  112MOL    H4918031   1.972   7.660   2.298 -2.8673 -1.8882  1.4465
  112MOL    C5018032   1.953   0.110   2.196  0.6546 -0.2935  0.2581
  112MOL    C5118033   2.006   0.226   2.284  0.2734  0.1373 -0.1106
  112MOL    C5218034   2.157   0.231   2.280 -0.0525 -0.1201 -0.0977
  112MOL    O5318035   2.232   0.165   2.204  0.2445 -0.3870 -0.6347
  112MOL    H5418036   1.873   0.145   2.131  0.1579  0.9443  1.5142
  112MOL    H5518037   2.028   0.068   2.128 -1.6369 -3.8116 -0.2351
  112MOL    H5618038   1.975   0.211   2.387 -2.0964  0.9195 -0.6867
  112MOL    H5718039   1.959   0.320   2.256 -1.0272  0.2204  2.2386
  112MOL    C5818040   2.223   0.319   2.391  0.2357 -0.3203 -0.8408
  112MOL    C5918041   2.368   0.357   2.363  0.3772  0.8025  0.1026
  112MOL    C6018042   2.389   0.457   2.246 -0.0970  0.0944 -0.7213
  112MOL    O6118043   2.290   0.509   2.191 -0.3099  0.4577 -0.4663
  112MOL    H6218044   2.226   0.258   2.482 -0.4398  1.6515  0.5265
  112MOL    H6318045   2.159   0.403   2.417  2.0326  0.6595  0.4384
  112MOL    H6418046   2.415   0.263   2.332 -2.0105 -0.5943  0.6011
  112MOL    H6518047   2.421   0.387   2.454  1.0089 -0.9187  0.3293
  112MOL    C6618048   2.530   0.469   2.187  0.2181  0.1633 -0.5397
  112MOL    C6718049   2.536   0.377   2.066  0.0396 -0.4253 -0.1696
  112MOL    C6818050   2.583   0.448   1.943 -0.5137 -0.1671  0.4651
  112MOL    O6918051   2.701   0.454   1.910  0.1138 -0.3738  0.1139
  112MOL    H7018052   2.611   0.440   2.254 -0.4389 -0.4784 -0.0104
  112MOL    H7118053   2.549   0.572   2.157  1.3383  0.8137  2.1820
  112MOL    H7218054   2.439   0.330   2.048  0.9481 -1.7378 -1.7635
  112MOL    H7318055   2.596   0.287   2.083 -1.4091 -1.2756  0.5763
  112MOL    C7418056   2.476   0.510   1.852 -0.9443 -0.2575 -0.2509
  112MOL    C7518057   2.521   0.576   1.722 -0.7177  0.6300  0.1246
  112MOL    C7618058   2.482   0.490   1.597  0.2029 -0.8296 -0.2601
  112MOL    O7718059   2.432   0.375   1.609 -0.3633 -0.2315  0.1466
  112MOL    H7818060   2.426   0.590   1.907 -1.3361 -0.7124  0.0769
  112MOL    H7918061   2.407   0.427   1.834 -0.7147 -0.3669 -0.6248
  112MOL    H8018062   2.630   0.577   1.713 -0.7867 -0.8670 -1.2742
  112MOL    H8118063   2.481   0.676   1.707 -1.5326  0.2008 -0.6283
  112MOL    C8218064   2.506   0.548   1.460 -0.1115 -0.2099  0.4929
  112MOL    C8318065   2.389   0.533   1.362  0.1908  0.1538  0.5345
  112MOL    C8418066   2.439   0.516   1.218 -0.3529 -0.3002 -0.0329
  112MOL    O8518067   2.547   0.563   1.181  0.5299 -0.7506 -0.1212
  112MOL    H8618068   2.599   0.512   1.417  0.2170  0.7821  0.3569
  112MOL    H8718069   2.541   0.650   1.478  1.9051 -1.1380  2.0327
  112MOL    H8818070   2.318   0.615   1.363  0.8547  0.7422  0.2068
  112MOL    H8918071   2.320   0.452   1.385  0.9931 -0.6334  0.2007
  112MOL    C9018072   2.357   0.436   1.113  0.4560  0.8954  0.1704
  112MOL    C9118073   2.342   0.513   0.982 -0.2485 -0.9520 -0.6180
  112MOL    C9218074   2.204   0.582   0.977  0.0201  0.2123  0.0463
  112MOL    O9318075   2.138   0.601   1.080 -0.0318 -0.0918  0.0170
  112MOL    H9418076   2.261   0.419   1.163  0.2997 -0.4267 -0.5351
  112MOL    H9518077   2.386   0.337   1.079  0.5133  2.0034 -3.1926
  112MOL    H9618078   2.348   0.446   0.897  1.8247 -1.7008  0.0792
  112MOL    H9718079   2.423   0.583   0.961 -2.2910  3.0730  3.9094
  112MOL    C9818080   2.157   0.638   0.845 -0.1341  0.2233  0.3344
  112MOL    C9918081   1.998   0.657   0.828  0.9447  0.4566 -0.7267
  112MOL   C10018082   1.952   0.798   0.863 -0.3244  0.5369 -0.4437
  112MOL   O10118083   2.015   0.867   0.946 -0.3770  0.3598  0.2454
  112MOL   H10218084   2.184   0.555   0.779  0.8281  0.3143  0.6045
  112MOL   H10318085   2.219   0.726   0.825 -0.0837 -0.3453 -2.1584
  112MOL   H10418086   1.936   0.596   0.894 -1.0016 -0.1828 -3.1191
  112MOL   H10518087   1.972   0.622   0.729 -1.3722 -0.9124  0.3205
  112MOL   C10618088   1.848   0.855   0.777  0.1997  0.6361 -0.1486
  112MOL   C10718089   1.886   0.994   0.714 -0.4926  0.2822  0.5391
  112MOL   C10818090   1.964   0.978   0.587  0.4489 -0.4683  0.4574
  112MOL   O10918091   2.005   0.871   0.552 -0.2201  0.4895  0.7084
  112MOL   H11018092   1.754   0.864   0.832  1.1866 -1.1204  1.9024
  112MOL   H11118093   1.832   0.777   0.703 -1.1872  0.6161  0.1590
  112MOL   H11218094   1.950   1.049   0.784  0.9693 -1.6258  0.7481
  112MOL   H11318095   1.795   1.054   0.711 -0.9206 -0.4181 -1.5868
  112MOL   C11418096   1.993   1.101   0.496 -0.2015  0.3632 -0.5473
  112MOL   C11518097   2.065   1.075   0.361  0.1604 -0.4394  0.4629
  112MOL   C11618098   1.974   1.041   0.248  0.0545 -0.5979  0.2369
  112MOL   O11718099   1.851   1.041   0.262  0.1372  0.1489  0.1352
  112MOL   H11818100   2.047   1.182   0.545 -0.1516 -1.2214  2.1063
  112MOL   H11918101   1.897   1.150   0.479 -1.1219 -1.8004 -1.9209
  112MOL   H12018102   2.152   1.010   0.375 -1.8463 -2.8891  2.0358
  112MOL   H12118103   2.109   1.173   0.342 -2.7470  0.9245  0.4460
  112MOL   C12218104   2.029   1.017   0.104  0.1191 -0.2527  0.2777
  112MOL   C12318105   1.928   0.944   0.005 -0.1378  0.0973 -0.3107
  112MOL   C12418106   1.858   1.036   7.765 -0.1195 -0.5173  0.7629
  112MOL   O12518107   1.921   1.075   7.664  0.6801 -0.5011  0.7547
  112MOL   H12618108   2.121   0.958   0.103  0.7563  0.7235 -1.5850
  112MOL   H12718109   2.054   1.112   0.056  0.9071 -2.0006 -2.9233
  112MOL   H12818110   1.859   0.886   0.067 -0.7037 -0.7760 -1.7160
  112MOL   H12918111   1.987   0.875   7.804 -0.7183  1.0486 -2.0186
  112MOL   C13018112   1.719   1.098   7.798  0.6474 -0.2485 -0.8006
  112MOL   C13118113   1.614   1.020   7.714  0.6545  0.0100  0.1074
  112MOL   C13218114   1.486   0.991   7.794  0.3414 -0.9755  0.4269
  112MOL   O13318115   1.453   1.043   0.046 -0.5749 -0.1773  1.0110
  112MOL   H13418116   1.717   1.204   7.776 -1.3682  0.2891  1.6869
  112MOL   H13518117   1.690   1.078   0.042 -2.1413 -0.0803 -1.5092
  112MOL   H13618118   1.655   0.929   7.671  1.6414  0.3122  0.3991
  112MOL   H13718119   1.586   1.079   7.626 -0.1090 -2.2542 -1.2245
  112MOL   C13818120   1.385   0.904   7.715  1.0105  0.5636  0.4622
  112MOL   C13918121   1.298   0.829   7.809 -0.3402 -0.1761 -0.1276
  112MOL   C14018122   1.217   0.723   7.741 -0.0508  0.8160 -0.1801
  112MOL   O14118123   1.234   0.695   7.622  0.3098 -0.3216  0.4929
  112MOL   H14218124   1.448   0.829   7.666 -1.3044  0.3148 -2.2662
  112MOL   H14318125   1.339   0.963   7.636  0.9022 -1.7193 -1.2503
  112MOL   H14418126   1.233   0.907   7.849 -1.1624  0.5971 -2.8441
  112MOL   H14518127   1.351   0.789   0.036 -1.5843 -2.3544 -0.3287
  112MOL   C14618128   1.114   0.654   7.825 -0.0273  0.2594  0.2608
  112MOL   C14718129   1.003   0.575   7.746  0.5808 -0.2249  0.1985
  112MOL   C14818130   1.048   0.426   7.740  0.0548 -0.3523  0.6352
  112MOL   O14918131   1.102   0.377   7.837  0.0801  0.0841 -1.1190
  112MOL   H15018132   1.070   0.724   0.036 -1.3881 -0.5113  0.1968
  112MOL   H15118133   1.168   0.593   0.038  0.4232  0.9307  0.4922
  112MOL   H15218134   0.991   0.610   7.644  1.6098  1.9046  0.7836
  112MOL   H15318135   0.909   0.598   7.794 -0.3703 -2.2776 -0.6095
  112MOL   C15418136   1.019   0.344   7.607  0.1173 -0.0313 -0.7163
  112MOL   C15518137   1.118   0.231   7.568 -0.4390 -0.4433  0.2339
  112MOL   C15618138   1.043   0.096   7.571  0.0019  0.6652 -0.2614
  112MOL   O15718139   1.073   7.858   7.641  0.3955 -0.0029 -0.0540
  112MOL   H15818140   1.018   0.420   7.529  1.5024  0.5859 -0.1436
  112MOL   H15918141   0.916   0.310   7.618  0.2247 -1.0085 -2.4929
  112MOL   H16018142   1.206   0.228   7.632  0.5536  2.2562 -0.9477
  112MOL   H16118143   1.164   0.262   7.475 -1.2787 -1.1145 -0.4182
  112MOL   H16218144   0.964   0.081   7.497 -1.6855 -0.9749  1.8102
  113MOL     C118145   5.086   0.862   7.489  0.2113  0.2742 -0.6280
  113MOL     C218146   5.185   0.754   7.476  0.1860  0.4783 -0.4109
  113MOL     C318147   5.119   0.617   7.441 -0.4344 -0.3705  0.6260
  113MOL     O418148   5.005   0.606   7.401  0.1055 -0.1829  0.4542
  113MOL     H518149   4.999   0.828   7.544  1.5702 -0.5297  1.0997
  113MOL     H618150   5.126   0.942   7.553 -0.5597  0.4504 -0.3595
  113MOL     H718151   5.237   0.746   7.572  0.0082 -0.6314 -0.3980
  113MOL     H818152   5.251   0.797   7.401 -0.5161  3.3982  0.5810
  113MOL     H918153   5.048   0.885   7.390  0.4477 -1.4361 -1.1215
  113MOL    C1018154   5.219   0.505   7.467 -0.2027 -0.0375 -0.3924
  113MOL    C1118155   5.151   0.375   7.494  0.1593  0.8039 -0.1473
  113MOL    C1218156   5.171   0.329   7.638 -0.0740  0.3517 -0.7532
  113MOL    O1318157   5.270   0.254   7.656  0.0839 -0.1829  0.3363
  113MOL    H1418158   5.295   0.534   7.540  0.9362 -0.7774 -1.2636
  113MOL    H1518159   5.276   0.500   7.375  1.7776 -1.9068  0.8942
  113MOL    H1618160   5.195   0.294   7.437  0.4865 -0.7881  2.2596
  113MOL    H1718161   5.043   0.381   7.476  0.1655 -1.4507 -1.1175
  113MOL    C1818162   5.058   0.350   7.742 -0.4534  0.6758 -0.1390
  113MOL    C1918163   5.017   0.218   7.807 -0.2526 -0.2873  0.3102
  113MOL    C2018164   4.893   0.151   7.756 -0.2492 -0.1949 -0.2681
  113MOL    O2118165   4.864   0.159   7.635  0.5228 -0.0641 -1.0492
  113MOL    H2218166   4.970   0.378   7.683 -1.0898  0.3131  0.6330
  113MOL    H2318167   5.085   0.422   7.819 -0.6188 -1.2308  1.7530
  113MOL    H2418168   5.004   0.227   0.056 -0.8987  2.3224  0.0592
  113MOL    H2518169   5.102   0.150   7.808  0.1152  0.1237  4.3893
  113MOL    C2618170   4.812   0.070   0.006 -0.9163 -0.3592  0.2587
  113MOL    C2718171   4.670   0.024   7.823 -1.0323 -0.3507  0.7677
  113MOL    C2818172   4.644   7.739   7.798  0.0930  0.0493  0.1639
  113MOL    O2918173   4.714   7.645   7.841 -0.0583 -0.1904 -0.4239
  113MOL    H3018174   4.804   0.135   0.093 -3.1676 -0.9666  0.5366
  113MOL    H3118175   4.882   7.847   0.026  1.3280  1.3247 -0.4297
  113MOL    H3218176   4.628   0.090   7.747  2.3120  1.3759  0.3079
  113MOL    H3318177   4.620   0.053   0.056  0.0336 -0.2145  1.3123
  113MOL    C3418178   4.516   7.712   7.726  0.0805  0.3296  1.3434
  113MOL    C3518179   4.534   7.583   7.637  0.3273  0.2414  0.0144
  113MOL    C3618180   4.410   7.525   7.583  0.8525 -0.7724 -0.5750
  113MOL    O3718181   4.352   7.433   7.642 -0.4740 -0.2622 -0.1169
  113MOL    H3818182   4.478   7.793   7.663 -0.2973 -1.2415 -0.4900
  113MOL    H3918183   4.439   7.691   7.800 -2.3078 -0.7221 -1.3355
  113MOL    H4018184   4.576   7.502   7.696  0.5205  1.3603  1.4266
  113MOL    H4118185   4.612   7.603   7.564 -0.9187  0.5604 -1.2537
  113MOL    C4218186   4.354   7.577   7.454  0.5191 -0.3230 -0.0422
  113MOL    C4318187   4.216   7.537   7.413 -0.6000 -0.1952 -0.1448
  113MOL    C4418188   4.154   7.645   7.324 -0.1159  0.2097  0.2110
  113MOL    O4518189   4.228   7.713   7.255 -0.0796 -0.8781 -0.2508
  113MOL    H4618190   4.425   7.545   7.377  3.9901  0.3438  2.7265
  113MOL    H4718191   4.352   7.686   7.464 -3.3120 -0.1519 -1.7281
  113MOL    H4818192   4.154   7.530   7.502 -0.2139  1.7793  0.3075
  113MOL    H4918193   4.207   7.443   7.359  0.5941 -0.7698  0.6543
  113MOL    C5018194   4.007   7.642   7.294 -0.6497  0.0130 -0.3010
  113MOL    C5118195   3.966   7.752   7.191 -0.0628  0.7646 -0.4902
  113MOL    C5218196   3.821   7.738   7.138  0.3446 -0.0815 -0.0589
  113MOL    O5318197   3.730   7.688   7.206 -0.2257  0.6372  0.3655
  113MOL    H5418198   3.941   7.656   7.380 -1.1351 -2.0232 -0.3191
  113MOL    H5518199   3.980   7.541   7.263 -4.1019  0.6879  0.2984
  113MOL    H5618200   4.027   7.753   7.101 -0.0476 -1.3745 -0.5175
  113MOL    H5718201   3.976   7.851   7.238 -1.6301 -0.2143  2.0182
  113MOL    C5818202   3.808   7.767   6.989 -0.2190 -0.4952 -0.8145
  113MOL    C5918203   3.795   7.642   6.913  0.1825  0.0716  0.1666
  113MOL    C6018204   3.900   7.602   6.813  0.1598 -0.0262  0.3051
  113MOL    O6118205   3.985   7.685   6.781 -1.3570 -0.3055  0.0166
  113MOL    H6218206   3.894   7.830   6.963  1.4515 -2.0240  0.8378
  113MOL    H6318207   3.711   7.816   6.981  0.0814  0.4006  0.8175
  113MOL    H6418208   3.702   7.644   6.855  0.3676 -1.9625 -0.2180
  113MOL    H6518209   3.769   7.562   6.981 -0.0850  0.6660  0.7657
  113MOL    C6618210   3.886   7.460   6.767  0.3071 -0.4311  0.0072
  113MOL    C6718211   3.960   7.438   6.635 -0.3176 -0.1907  0.2643
  113MOL    C6818212   3.969   7.287   6.602  0.0606  0.0293 -0.1827
  113MOL    O6918213   3.871   7.236   6.547 -0.0421  0.4995  0.5444
  113MOL    H7018214   3.782   7.427   6.760  0.1081  0.6893 -2.5732
  113MOL    H7118215   3.936   7.394   6.838 -0.4252 -0.8257  0.1671
  113MOL    H7218216   4.061   7.479   6.634  0.4920 -2.0770  2.0284
  113MOL    H7318217   3.911   7.488   6.551  0.3474  1.8450  1.0572
  113MOL    C7418218   4.099   7.208   6.626 -0.2497  0.2155  0.5708
  113MOL    C7518219   4.083   7.054   6.620  0.0950 -0.1746 -0.6683
  113MOL    C7618220   4.202   6.982   6.678  0.1776 -0.0673  0.0877
  113MOL    O7718221   4.260   7.028   6.778  0.1945 -0.3450 -0.2641
  113MOL    H7818222   4.143   7.233   6.723  0.7824 -0.4738  0.2893
  113MOL    H7918223   4.176   7.237   6.556 -1.0329  1.8110  0.3493
  113MOL    H8018224   4.059   7.023   6.518 -0.7148  1.1534 -0.8942
  113MOL    H8118225   3.994   7.028   6.678 -1.3517  0.0262 -2.7308
  113MOL    C8218226   4.241   6.847   6.623 -0.3720  0.0034 -0.6038
  113MOL    C8318227   4.284   6.751   6.739  0.6275  0.3639 -0.0837
  113MOL    C8418228   4.326   6.614   6.690  0.0089 -0.3160 -0.4543
  113MOL    O8518229   4.262   6.557   6.600 -0.3061  0.0342  0.1897
  113MOL    H8618230   4.318   6.847   6.546 -0.1504 -1.0917 -0.3908
  113MOL    H8718231   4.158   6.804   6.567 -0.8831  1.3268 -0.8759
  113MOL    H8818232   4.204   6.733   6.811  1.9407  0.3128  1.3823
  113MOL    H8918233   4.369   6.789   6.795 -1.7187  1.3512  2.9312
  113MOL    C9018234   4.446   6.546   6.757 -0.1055  0.6126  0.2549
  113MOL    C9118235   4.496   6.427   6.667 -0.6579 -0.0019  0.8288
  113MOL    C9218236   4.584   6.470   6.551 -0.0122 -0.1212 -0.1839
  113MOL    O9318237   4.698   6.518   6.577  0.6637  0.0724  0.6091
  113MOL    H9418238   4.408   6.513   6.853  2.3867  0.7501  1.3292
  113MOL    H9518239   4.516   6.625   6.782 -3.2514  2.6989  2.9364
  113MOL    H9618240   4.411   6.366   6.637 -0.4451  1.0116 -1.9925
  113MOL    H9718241   4.566   6.370   6.729 -0.6697 -0.7620  0.1459
  113MOL    C9818242   4.530   6.450   6.411 -0.4527  0.1094  0.2533
  113MOL    C9918243   4.642   6.424   6.308 -0.1498 -0.1358  0.1578
  113MOL   C10018244   4.695   6.561   6.255  0.2410 -0.0758 -0.0372
  113MOL   O10118245   4.647   6.670   6.279  0.4967  0.1403 -0.1629
  113MOL   H10218246   4.468   6.537   6.392 -1.3433 -0.7395 -0.7986
  113MOL   H10318247   4.466   6.361   6.414  2.6076 -2.1775  0.8509
  113MOL   H10418248   4.599   6.374   6.222 -1.2046 -1.1728  1.2656
  113MOL   H10518249   4.711   6.350   6.350 -2.7849 -1.4231  2.3785
  113MOL   C10618250   4.805   6.545   6.148 -0.3716 -0.0510  0.8216
  113MOL   C10718251   4.767   6.596   6.009 -0.5099  0.2795  0.0918
  113MOL   C10818252   4.819   6.739   5.988  0.7643  0.8320  0.3920
  113MOL   O10918253   4.923   6.758   5.931 -1.3260 -0.0511 -0.8852
  113MOL   H11018254   4.851   6.446   6.141  1.1963  0.6291  1.3942
  113MOL   H11118255   4.890   6.606   6.178  0.0845 -0.5412  0.5345
  113MOL   H11218256   4.659   6.599   6.001 -0.7386 -2.2718  1.5829
  113MOL   H11318257   4.810   6.540   5.926  0.0101  0.0520  0.5119
  113MOL   C11418258   4.731   6.852   6.043 -0.5341  0.2445 -0.4002
  113MOL   C11518259   4.784   6.995   6.014 -0.2098  0.0054 -0.2182
  113MOL   C11618260   4.785   7.094   6.127 -0.2279 -0.1867 -0.9877
  113MOL   O11718261   4.803   7.055   6.241  0.6185 -0.5412 -0.0319
  113MOL   H11818262   4.724   6.846   6.152  1.2007  1.7846 -0.1760
  113MOL   H11918263   4.627   6.846   6.009 -0.3010 -2.3814 -0.8148
  113MOL   H12018264   4.721   7.035   5.934 -2.1092 -1.5480  0.4496
  113MOL   H12118265   4.891   6.992   5.994  0.2874 -1.9523  2.4882
  113MOL   C12218266   4.779   7.245   6.087  0.2541  0.2978  0.9054
  113MOL   C12318267   4.868   7.330   6.175 -0.1714 -0.1822 -0.1597
  113MOL   C12418268   4.892   7.469   6.125 -0.2243 -0.3847 -0.1050
  113MOL   O12518269   4.796   7.544   6.099  1.1318  0.2061  0.7309
  113MOL   H12618270   4.674   7.276   6.088  0.8582  2.4519 -0.1690
  113MOL   H12718271   4.809   7.239   5.982 -0.1116  0.5691  0.7821
  113MOL   H12818272   4.964   7.280   6.163 -0.3189 -0.7871  1.0095
  113MOL   H12918273   4.837   7.323   6.279 -0.6331 -0.3058 -0.3022
  113MOL   C13018274   5.030   7.514   6.080  0.2107 -0.6010 -0.9336
  113MOL   C13118275   5.035   7.656   6.016 -0.0809 -0.9192  0.2435
  113MOL   C13218276   5.168   7.719   6.008 -0.4431 -0.7083  0.4743
  113MOL   O13318277   5.263   7.660   5.956 -0.0502 -0.3820  0.1453
  113MOL   H13418278   5.067   7.441   6.009 -0.2857 -1.8398  0.0523
  113MOL   H13518279   5.106   7.500   6.157  2.4791  0.2505 -2.9633
  113MOL   H13618280   4.969   7.722   6.075  0.2618 -0.7535  0.4426
  113MOL   H13718281   4.989   7.655   5.918  0.4534 -0.4602 -0.0142
  113MOL   C13818282   5.176   7.859   6.065 -0.0018 -0.4922 -0.2519
  113MOL   C13918283   5.315   0.058   6.039 -0.1278 -0.4634 -0.4225
  113MOL   C14018284   5.342   0.185   6.114  0.6427  0.3711 -0.8222
  113MOL   O14118285   5.287   0.209   6.225 -0.1684  0.2518  0.7029
  113MOL   H14218286   5.137   7.852   6.167 -1.7424 -1.0546 -0.9394
  113MOL   H14318287   5.106   0.061   6.009 -0.2884 -0.4006  0.2040
  113MOL   H14418288   5.325   0.072   5.931 -0.7544  1.7345 -0.2213
  113MOL   H14518289   5.391   7.848   6.074 -0.8967 -0.1684  1.9073
  113MOL   C14618290   5.434   0.291   6.068  0.0525 -0.2317 -0.2010
  113MOL   C14718291   5.561   0.262   6.153  0.6440 -0.4800 -0.2060
  113MOL   C14818292   5.667   0.188   6.076  0.1923  0.8513 -0.0458
  113MOL   O14918293   5.647   0.150   5.962 -0.3579  0.0624  0.4288
  113MOL   H15018294   5.396   0.391   6.091  0.2496 -0.1330 -0.3006
  113MOL   H15118295   5.448   0.295   5.960  1.5664  1.1965  0.0317
  113MOL   H15218296   5.530   0.207   6.242  2.0564 -0.2716  0.4237
  113MOL   H15318297   5.614   0.351   6.187  0.4189 -0.2846 -0.3653
  113MOL   C15418298   5.795   0.149   6.155 -0.2750 -0.8200  0.0826
  113MOL   C15518299   5.836   7.855   6.156  0.5842 -0.1877 -0.1798
  113MOL   C15618300   5.860   7.798   6.293 -0.1465  0.0150  0.5081
  113MOL   O15718301   5.977   7.763   6.332  0.6355  0.1034  0.3102
  113MOL   H15818302   5.803   0.176   6.260 -0.0556  0.9110 -0.3634
  113MOL   H15918303   5.878   0.201   6.106  0.3160 -0.9211  0.9648
  113MOL   H16018304   5.918   7.839   6.086 -1.2585 -1.7467 -2.0613
  113MOL   H16118305   5.748   7.804   6.115  0.1238  0.0019  0.5594
  113MOL   H16218306   5.769   7.804   6.353 -0.2679  0.3817  0.2918
  114MOL     C118307   7.172   2.381   7.275  0.4609 -0.3494  0.9159
  114MOL     C218308   7.178   2.269   7.385 -0.2015  0.5327 -0.4722
  114MOL     C318309   7.256   2.313   7.510 -0.3403  0.5962 -0.3965
  114MOL     O418310   7.375   2.316   7.523 -0.0784  0.7096 -0.4481
  114MOL     H518311   7.107   2.351   7.193  0.7343  1.1828  0.1040
  114MOL     H618312   7.113   2.465   7.314  1.4971  0.3809  0.9402
  114MOL     H718313   7.226   2.184   7.336  1.8330  3.2857 -3.4582
  114MOL     H818314   7.079   2.240   7.419  0.0285  0.1871 -0.0924
  114MOL     H918315   7.266   2.421   7.238  0.4819 -0.8200  0.4706
  114MOL    C1018316   7.162   2.362   7.619  0.4935  0.0889 -0.1978
  114MOL    C1118317   7.237   2.465   7.704  0.6367  0.5038  0.8631
  114MOL    C1218318   7.259   2.597   7.627  0.1552  0.0717 -0.4932
  114MOL    O1318319   7.230   2.615   7.508  0.2529  0.4049 -0.2462
  114MOL    H1418320   7.125   2.277   7.676  0.7267 -1.0267 -1.6709
  114MOL    H1518321   7.077   2.423   7.589  1.0909 -0.5378 -3.3541
  114MOL    H1618322   7.337   2.428   7.729  0.9254  0.6078 -0.1220
  114MOL    H1718323   7.181   2.483   7.796 -0.3775  0.3682  0.2765
  114MOL    C1818324   7.323   2.711   7.712 -0.2606  0.2190  0.1392
  114MOL    C1918325   7.308   2.849   7.643  0.9963 -0.4311 -0.5787
  114MOL    C2018326   7.177   2.917   7.675 -0.4982 -0.4784 -0.1580
  114MOL    O2118327   7.149   2.947   7.791 -0.0051  0.5150 -0.1292
  114MOL    H2218328   7.430   2.696   7.727 -0.0995 -2.1296 -2.9958
  114MOL    H2318329   7.266   2.703   7.805  0.8736 -0.2361  0.8066
  114MOL    H2418330   7.321   2.841   7.535 -0.6748 -0.8817 -0.7669
  114MOL    H2518331   7.387   2.916   7.677 -0.1933  1.2470 -1.0519
  114MOL    C2618332   7.083   2.946   7.554  0.2909  0.1143 -0.2404
  114MOL    C2718333   6.999   3.078   7.560 -0.4920 -0.2506 -0.3781
  114MOL    C2818334   6.887   3.076   7.461  0.8732 -0.5201  0.1725
  114MOL    O2918335   6.849   2.975   7.396  0.3815  0.2470 -0.4561
  114MOL    H3018336   7.006   2.869   7.556 -0.2864  0.7022  0.3727
  114MOL    H3118337   7.130   2.938   7.456 -0.7489 -0.6043 -0.6913
  114MOL    H3218338   7.083   3.147   7.549 -1.3005  0.6549 -0.9920
  114MOL    H3318339   6.958   3.100   7.659 -1.0247  0.2784 -0.7064
  114MOL    C3418340   6.821   3.210   7.440  0.0634 -0.7238 -0.4125
  114MOL    C3518341   6.754   3.218   7.300 -0.6372  0.3891  0.4441
  114MOL    C3618342   6.601   3.238   7.295  0.5255 -0.1588  0.5933
  114MOL    O3718343   6.525   3.214   7.392 -0.4227  0.3943  0.7264
  114MOL    H3818344   6.898   3.286   7.454 -1.3094  0.2881  1.8923
  114MOL    H3918345   6.751   3.229   7.521 -0.4381 -2.9532 -0.2933
  114MOL    H4018346   6.783   3.129   7.243 -0.4919  0.5465  0.2729
  114MOL    H4118347   6.796   3.305   7.250 -1.2837  0.1355 -0.5586
  114MOL    C4218348   6.528   3.281   7.164  1.0080  0.0050 -0.4460
  114MOL    C4318349   6.416   3.386   7.198  1.3218 -0.3898  0.0141
  114MOL    C4418350   6.359   3.483   7.086 -0.6333 -0.6065  0.2135
  114MOL    O4518351   6.409   3.482   6.976  0.1929  0.0428  0.2388
  114MOL    H4618352   6.475   3.197   7.120 -3.8036  1.4123  2.2494
  114MOL    H4718353   6.614   3.312   7.105  1.3565  0.2190  0.1683
  114MOL    H4818354   6.450   3.444   7.284  0.0989  1.3623 -0.6686
  114MOL    H4918355   6.330   3.330   7.236  2.2878 -0.5917  1.9747
  114MOL    C5018356   6.260   3.603   7.124 -0.5290 -0.0385 -0.1507
  114MOL    C5118357   6.185   3.653   6.997 -0.3368 -0.7540 -0.0284
  114MOL    C5218358   6.035   3.624   6.998  0.0734  0.2909  0.2305
  114MOL    O5318359   5.995   3.537   7.069  0.2330  0.2534 -0.3501
  114MOL    H5418360   6.320   3.683   7.165  1.9816 -2.1517  0.4046
  114MOL    H5518361   6.185   3.581   7.200 -1.7144  0.0383 -1.2721
  114MOL    H5618362   6.232   3.625   6.903 -1.8488 -3.6821  0.0486
  114MOL    H5718363   6.186   3.762   6.999  0.0705 -0.7613  0.6038
  114MOL    C5818364   5.948   3.717   6.912  0.3898 -0.1338 -0.9624
  114MOL    C5918365   5.831   3.777   6.996  0.1282  0.3267  0.0254
  114MOL    C6018366   5.834   3.926   6.997  0.3687 -0.6993 -0.9735
  114MOL    O6118367   5.933   3.999   6.989 -0.2119 -0.2664 -0.0346
  114MOL    H6218368   5.895   3.667   6.832 -0.0244 -0.3748 -0.5414
  114MOL    H6318369   6.007   3.798   6.869  1.4373  0.0504  0.7635
  114MOL    H6418370   5.838   3.735   7.096 -2.8988 -1.0863 -0.2938
  114MOL    H6518371   5.736   3.740   6.956  1.0279 -0.1197 -1.7584
  114MOL    C6618372   5.708   4.000   7.031  0.2355  0.3301 -0.0230
  114MOL    C6718373   5.685   4.133   6.951 -0.2173  0.4212 -0.0304
  114MOL    C6818374   5.713   4.260   7.031 -0.8517  0.1452  0.1529
  114MOL    O6918375   5.646   4.290   7.131  0.3974 -0.4177  0.6153
  114MOL    H7018376   5.704   4.016   7.139  0.5615  0.7308 -0.0687
  114MOL    H7118377   5.634   3.925   7.003  1.6401 -0.7507 -0.8575
  114MOL    H7218378   5.587   4.142   6.903 -0.2752 -2.4256 -0.5695
  114MOL    H7318379   5.750   4.135   6.864 -0.6816  0.2272 -0.3853
  114MOL    C7418380   5.833   4.355   6.993 -0.0869  0.5274  0.9836
  114MOL    C7518381   5.778   4.492   6.967 -0.2076  0.4677  0.5770
  114MOL    C7618382   5.853   4.596   7.050  0.0158 -0.1262 -0.1545
  114MOL    O7718383   5.829   4.595   7.169 -0.2901 -0.1661 -0.1979
  114MOL    H7818384   5.897   4.325   6.910 -0.7234 -1.0772  1.0462
  114MOL    H7918385   5.896   4.358   7.081  2.1781  2.0025 -0.6511
  114MOL    H8018386   5.673   4.499   6.994 -0.1540 -1.9463  1.5118
  114MOL    H8118387   5.796   4.514   6.861  3.6219  0.2463  1.0927
  114MOL    C8218388   5.965   4.675   6.988  0.5256  0.4265  0.3765
  114MOL    C8318389   6.089   4.648   7.073  0.9754  0.2586 -0.5121
  114MOL    C8418390   6.176   4.542   7.003  0.3749  0.1699 -0.1075
  114MOL    O8518391   6.144   4.475   6.909  0.1333  0.1395 -0.1746
  114MOL    H8618392   5.941   4.781   6.993  1.2220  0.5608  0.8231
  114MOL    H8718393   5.965   4.648   6.882 -1.8628 -0.4600  0.5637
  114MOL    H8818394   6.067   4.615   7.175  0.7980  1.6524 -0.0874
  114MOL    H8918395   6.137   4.745   7.085  0.5330  0.5037 -0.7091
  114MOL    C9018396   6.328   4.522   7.043 -0.3047 -0.1084  0.3583
  114MOL    C9118397   6.349   4.439   7.170  0.2013 -0.3579 -0.1356
  114MOL    C9218398   6.402   4.513   7.292 -0.1269 -0.2530  0.6818
  114MOL    O9318399   6.508   4.580   7.284  0.1011 -0.5240 -0.3113
  114MOL    H9418400   6.381   4.617   7.040 -0.0732 -0.2726 -1.2865
  114MOL    H9518401   6.354   4.451   6.964 -1.9191 -0.3307  0.0084
  114MOL    H9618402   6.425   4.364   7.149  3.1839  2.6933 -0.7938
  114MOL    H9718403   6.252   4.395   7.194  0.0931 -0.5250 -0.8647
  114MOL    C9818404   6.313   4.520   7.419 -0.1818 -0.1281  0.2150
  114MOL    C9918405   6.397   4.551   7.546 -0.3338  0.1910 -0.7341
  114MOL   C10018406   6.358   4.690   7.598 -0.4213 -0.3066 -0.9136
  114MOL   O10118407   6.250   4.710   7.656  0.3839 -0.3845 -0.3323
  114MOL   H10218408   6.268   4.422   7.434 -1.7695  0.7020  0.9855
  114MOL   H10318409   6.241   4.600   7.399 -1.5488 -1.7313 -1.4372
  114MOL   H10418410   6.505   4.549   7.539 -0.2587  1.0825  0.1751
  114MOL   H10518411   6.371   4.479   7.624 -0.0310  0.6964 -0.1683
  114MOL   C10618412   6.460   4.803   7.596  0.3669  0.4947 -0.7173
  114MOL   C10718413   6.411   4.939   7.652  0.0948 -0.0606  0.0846
  114MOL   C10818414   6.520   5.027   7.707  0.1258  0.3744  0.1526
  114MOL   O10918415   6.628   5.023   7.658 -0.3899  0.0357  0.1848
  114MOL   H11018416   6.495   4.820   7.495 -1.1147 -0.7351 -1.4709
  114MOL   H11118417   6.541   4.768   7.660  0.8164 -1.1400 -2.1607
  114MOL   H11218418   6.349   4.923   7.741  0.1153  0.6816  0.2310
  114MOL   H11318419   6.342   4.990   7.585  1.1959  2.8167  1.0848
  114MOL   C11418420   6.478   5.130   7.812  0.4940 -0.0087 -0.0996
  114MOL   C11518421   6.594   5.224   7.841 -0.7231  0.3532 -0.2186
  114MOL   C11618422   6.642   5.226   0.125  0.2589  0.1084 -0.2170
  114MOL   O11718423   6.597   5.144   0.206 -0.4815  0.5053 -0.0733
  114MOL   H11818424   6.421   5.087   0.034  1.3958  0.2077  0.6555
  114MOL   H11918425   6.396   5.190   7.773 -0.3257 -1.0385  0.0369
  114MOL   H12018426   6.546   5.322   7.834  0.8664  1.1321 -0.5591
  114MOL   H12118427   6.685   5.229   7.780 -0.2102  2.4348  0.6628
  114MOL   C12218428   6.728   5.346   0.155 -0.2379 -0.0360  0.2587
  114MOL   C12318429   6.787   5.345   0.297  0.5687  0.2390 -0.9609
  114MOL   C12418430   6.907   5.432   0.321 -0.4818  0.7837  0.7118
  114MOL   O12518431   6.956   5.498   0.232 -0.4995 -0.0082  0.0535
  114MOL   H12618432   6.682   5.441   0.127  1.4141  0.3084 -1.3489
  114MOL   H12718433   6.807   5.334   0.081  1.1077  2.2781  1.2996
  114MOL   H12818434   6.820   5.244   0.319  0.1432  0.4628  0.7932
  114MOL   H12918435   6.725   5.372   0.383 -1.3732  2.3785 -2.9674
  114MOL   C13018436   6.973   5.422   0.461 -0.3094 -0.3049 -0.4384
  114MOL   C13118437   7.124   5.443   0.443  0.5175 -0.1555  0.0841
  114MOL   C13218438   7.189   5.537   0.546  0.1569  0.5476 -0.1120
  114MOL   O13318439   7.257   5.629   0.509 -0.0074 -0.4980 -0.2294
  114MOL   H13418440   6.955   5.321   0.497  2.3763 -1.1947 -1.4146
  114MOL   H13518441   6.930   5.493   0.531 -1.2231  0.3295 -1.6227
  114MOL   H13618442   7.152   5.486   0.347 -0.2068  0.9585  0.3586
  114MOL   H13718443   7.178   5.349   0.438  1.9018  0.6484 -0.2501
  114MOL   C13818444   7.175   5.500   0.698 -0.7619 -0.5634  1.3095
  114MOL   C13918445   7.268   5.589   0.786 -0.6654 -0.0551 -0.2658
  114MOL   C14018446   7.220   5.591   0.933  0.2538 -0.1653 -0.0762
  114MOL   O14118447   7.199   5.483   0.997 -0.0026 -0.1740 -0.1969
  114MOL   H14218448   7.224   5.402   0.701 -1.1688 -0.8174  0.0822
  114MOL   H14318449   7.069   5.484   0.716 -0.5629 -1.5029  1.6673
  114MOL   H14418450   7.251   5.693   0.759 -2.1980 -0.4472 -0.8573
  114MOL   H14518451   7.375   5.571   0.780 -0.4673  0.7928  0.6011
  114MOL   C14618452   7.208   5.719   1.005 -0.1488 -0.7208  0.6972
  114MOL   C14718453   7.215   5.713   1.159 -0.0191 -0.2116  0.3293
  114MOL   C14818454   7.076   5.713   1.226  0.6204 -0.0660 -0.0003
  114MOL   O14918455   7.008   5.818   1.231  0.0099  0.0448 -0.3147
  114MOL   H15018456   7.114   5.766   0.980  0.2595  0.5234  1.4831
  114MOL   H15118457   7.295   5.780   0.982  0.8931 -1.8257  1.6313
  114MOL   H15218458   7.273   5.800   1.190 -0.3267  0.8165 -1.8825
  114MOL   H15318459   7.269   5.624   1.192 -0.8194 -0.7747  0.1259
  114MOL   C15418460   7.033   5.579   1.293 -0.7085 -0.9598 -0.5180
  114MOL   C15518461   6.881   5.585   1.319 -0.0206 -0.3221 -0.4411
  114MOL   C15618462   6.846   5.640   1.458 -0.2929 -0.1349  0.8054
  114MOL   O15718463   6.731   5.639   1.502 -0.3968  0.5440  0.3915
  114MOL   H15818464   7.093   5.551   1.379 -0.9170 -3.4503 -1.1583
  114MOL   H15918465   7.038   5.500   1.219 -1.4622 -2.2206  0.7595
  114MOL   H16018466   6.836   5.486   1.323 -2.0134  0.6158  1.7940
  114MOL   H16118467   6.835   5.646   1.242  0.7582  1.2389  0.3055
  114MOL   H16218468   6.919   5.680   1.528 -0.6147  1.2520  0.3516
  115MOL     C118469   7.366   6.571   2.590 -0.6637 -0.3757 -0.7955
  115MOL     C218470   7.409   6.715   2.631  0.5841  0.0051  0.3026
  115MOL     C318471   7.548   6.745   2.580 -0.4154  0.8726 -0.1346
  115MOL     O418472   7.572   6.785   2.466  0.1491  0.8149 -0.0966
  115MOL     H518473   7.382   6.546   2.486  2.9216  0.4237 -0.4809
  115MOL     H618474   7.422   6.490   2.635  3.4980  1.2529 -2.8463
  115MOL     H718475   7.393   6.743   2.735 -0.4304  1.9167 -0.3415
  115MOL     H818476   7.362   6.797   2.577  0.0703  0.3829  1.3182
  115MOL     H918477   7.258   6.553   2.589 -0.3955 -1.9745 -2.8374
  115MOL    C1018478   7.664   6.731   2.689 -0.3778  0.1576 -0.0273
  115MOL    C1118479   7.799   6.676   2.639 -0.1389  0.1360  0.2407
  115MOL    C1218480   7.809   6.529   2.678  0.7134 -0.1700  0.1922
  115MOL    O1318481   7.711   6.458   2.702  0.1747  0.0813 -0.0431
  115MOL    H1418482   7.632   6.682   2.781 -0.4710 -0.1480 -0.2218
  115MOL    H1518483   7.690   6.830   2.724  0.6351 -1.0149  2.6403
  115MOL    H1618484   0.020   6.734   2.685 -1.2660  1.6157  0.3784
  115MOL    H1718485   7.800   6.686   2.530 -0.7308 -0.9522  0.1309
  115MOL    C1818486   0.097   6.481   2.696  0.7195  0.1091 -0.1217
  115MOL    C1918487   0.106   6.326   2.702  0.4569  0.0888  0.0722
  115MOL    C2018488   0.114   6.275   2.844  0.4111  0.6685  0.3685
  115MOL    O2118489   0.220   6.232   2.891  0.1700  0.5782  0.0191
  115MOL    H2218490   0.138   6.525   2.787 -2.4419 -0.4660  1.6377
  115MOL    H2318491   0.150   6.524   2.610 -1.2795 -0.0581 -1.4732
  115MOL    H2418492   0.186   6.289   2.638 -1.8017  0.6157 -3.2308
  115MOL    H2518493   0.016   6.277   2.664  0.7834  0.8373 -1.7457
  115MOL    C2618494   7.839   6.267   2.917 -0.4409  0.2370  0.2528
  115MOL    C2718495   7.845   6.209   3.057  0.7144 -0.5598 -0.0135
  115MOL    C2818496   7.702   6.221   3.118 -0.4539  0.7158 -0.0262
  115MOL    O2918497   7.623   6.304   3.074  0.5325  0.0062  0.0681
  115MOL    H3018498   7.776   6.196   2.864 -0.1571 -0.5335  0.9461
  115MOL    H3118499   7.790   6.364   2.921 -2.4856 -0.8117  1.6184
  115MOL    H3218500   0.044   6.268   3.128  0.9659 -1.6296  0.6834
  115MOL    H3318501   0.011   6.103   3.055  0.9770 -0.5751  2.3626
  115MOL    C3418502   7.667   6.145   3.242 -0.2509  0.0840 -0.0770
  115MOL    C3518503   7.526   6.074   3.227 -0.1870  0.5659  0.8841
  115MOL    C3618504   7.547   5.934   3.172  0.6722 -0.7463 -1.3523
  115MOL    O3718505   7.616   5.856   3.229  0.0072  0.4656  0.9019
  115MOL    H3818506   7.663   6.213   3.327 -0.2164  1.0162 -0.8054
  115MOL    H3918507   7.750   6.077   3.261 -0.0144  0.4767  0.2909
  115MOL    H4018508   7.459   6.133   3.165 -0.3763  1.1196  1.5999
  115MOL    H4118509   7.473   6.072   3.322 -1.0367 -1.0996  0.3916
  115MOL    C4218510   7.471   5.894   3.044  0.0448 -0.0944  0.4781
  115MOL    C4318511   7.551   5.799   2.951 -0.3758  0.1377  0.2881
  115MOL    C4418512   7.700   5.842   2.926  0.5233 -0.2605 -0.6842
  115MOL    O4518513   7.730   5.946   2.869 -0.0636 -0.1110 -0.1739
  115MOL    H4618514   7.453   5.984   2.985  0.5196 -0.8891 -0.9105
  115MOL    H4718515   7.378   5.847   3.074 -0.0524  0.1872  0.6128
  115MOL    H4818516   7.504   5.788   2.853  0.4582  1.5420 -0.2968
  115MOL    H4918517   7.547   5.699   2.992 -0.8374  0.6810  1.5809
  115MOL    C5018518   7.813   5.740   2.961 -0.2235 -0.1410 -0.0949
  115MOL    C5118519   0.046   5.775   3.084  0.1364 -1.0489 -0.1155
  115MOL    C5218520   0.021   5.691   3.206  0.1864 -0.2084  0.0470
  115MOL    O5318521   7.833   5.571   3.210  0.3626 -0.7299  0.3187
  115MOL    H5418522   0.010   5.712   2.873  0.2303  0.1561  0.0943
  115MOL    H5518523   7.759   5.649   2.986 -2.7981  1.2412 -0.4001
  115MOL    H5618524   0.046   5.881   3.110 -0.1593 -0.8152 -1.0219
  115MOL    H5718525   0.148   5.745   3.058  0.4195 -0.1361 -0.0631
  115MOL    C5818526   0.059   5.752   3.344  0.0043 -0.0623  0.3703
  115MOL    C5918527   7.826   5.716   3.462  0.2453 -0.0031 -0.1701
  115MOL    C6018528   7.787   5.839   3.543 -0.2227  0.3265 -0.3351
  115MOL    O6118529   7.812   5.954   3.509 -0.5256 -0.4818  0.3256
  115MOL    H6218530   0.086   5.857   3.341 -2.1670  0.4997 -0.2881
  115MOL    H6318531   0.152   5.702   3.370 -1.7449 -1.8868  3.5765
  115MOL    H6418532   0.016   5.652   3.536 -2.9500  0.1613  2.1946
  115MOL    H6518533   7.734   5.675   3.420  0.4367  0.0202 -0.6134
  115MOL    C6618534   7.699   5.809   3.663 -0.1627 -0.0167 -0.4863
  115MOL    C6718535   7.679   5.934   3.751 -0.7310  0.1975 -0.2463
  115MOL    C6818536   7.727   5.913   3.898 -0.3108  0.3938  0.3848
  115MOL    O6918537   7.670   5.835   3.974  0.2398 -0.4390  0.1857
  115MOL    H7018538   7.739   5.725   3.720 -1.0993 -0.4403 -0.4466
  115MOL    H7118539   7.600   5.779   3.630 -0.1209 -1.6235  0.7761
  115MOL    H7218540   7.575   5.965   3.743 -0.6762  0.3633 -0.3259
  115MOL    H7318541   7.725   6.024   3.710 -0.7955 -0.3256 -1.5050
  115MOL    C7418542   7.843   6.004   3.956  0.2862 -0.4689  0.4711
  115MOL    C7518543   0.115   5.926   3.981  0.6321  0.1604 -0.5739
  115MOL    C7618544   0.170   5.853   3.857 -0.3467 -0.2467 -0.0939
  115MOL    O7718545   0.225   5.926   3.769 -0.5204 -0.2068  0.1012
  115MOL    H7818546   7.822   6.044   4.056 -1.2987 -0.2841  0.0797
  115MOL    H7918547   0.013   6.081   3.885 -0.4465  0.2080  0.8916
  115MOL    H8018548   0.085   5.851   4.055 -0.2437  0.7684 -0.2955
  115MOL    H8118549   0.194   5.985   4.027  0.6858  0.1296 -0.6280
  115MOL    C8218550   0.156   5.694   3.849 -0.1216 -0.2605 -0.4626
  115MOL    C8318551   0.286   5.630   3.800  0.6179  0.4159  0.2064
  115MOL    C8418552   0.392   5.628   3.918  0.4216 -0.3836 -0.4507
  115MOL    O8518553   0.373   5.671   4.029 -0.0568  0.3482 -0.1157
  115MOL    H8618554   0.087   5.661   3.771 -1.8511 -0.5872  1.1843
  115MOL    H8718555   0.120   5.662   3.946 -0.1149 -0.2624 -0.4606
  115MOL    H8818556   0.319   5.683   3.710 -0.6393  0.0175 -0.4957
  115MOL    H8918557   0.264   5.529   3.768 -1.9589  0.2605  2.3391
  115MOL    C9018558   0.538   5.588   3.877 -0.1332 -0.1637 -0.2678
  115MOL    C9118559   0.640   5.672   3.955  0.4170 -0.7631  0.4030
  115MOL    C9218560   0.711   5.584   4.065  0.1232 -0.4270 -0.0224
  115MOL    O9318561   0.661   5.481   4.107  0.2631 -0.5350 -0.2181
  115MOL    H9418562   0.543   5.614   3.771  0.3410 -3.1516 -1.0259
  115MOL    H9518563   0.566   5.483   3.884  2.7092  0.5016 -0.9891
  115MOL    H9618564   0.590   5.750   4.012  0.3510  0.3337 -1.1165
  115MOL    H9718565   0.715   5.707   3.884  0.8141 -2.0933  0.1455
  115MOL    C9818566   0.851   5.631   4.106 -0.4757 -0.0692  0.3837
  115MOL    C9918567   0.920   5.572   4.225 -0.2998 -0.5470 -0.4435
  115MOL   C10018568   1.029   5.462   4.198  0.2518  0.0283 -0.3670
  115MOL   O10118569   1.062   5.436   4.085  0.1579 -0.3103  0.0685
  115MOL   H10218570   0.845   5.739   4.114 -0.5254  0.0654 -1.2313
  115MOL   H10318571   0.909   5.618   4.014  0.6890  1.0861  0.9518
  115MOL   H10418572   0.847   5.520   4.287  1.4308 -2.7527 -0.2164
  115MOL   H10518573   0.972   5.645   4.288  0.7260 -0.0425 -1.8519
  115MOL   C10618574   1.095   5.394   4.321 -0.8997 -1.4402  0.2207
  115MOL   C10718575   1.223   5.470   4.359  1.0382  0.2521 -0.0432
  115MOL   C10818576   1.195   5.586   4.457 -0.6960  0.2016  0.3181
  115MOL   O10918577   1.081   5.598   4.508  0.3242 -0.3957 -0.3094
  115MOL   H11018578   1.120   5.290   4.299  1.6485 -0.2978 -2.6967
  115MOL   H11118579   1.022   5.395   4.401 -2.8635 -5.8260 -1.3139
  115MOL   H11218580   1.272   5.503   4.268 -0.2114  3.0932  0.2776
  115MOL   H11318581   1.285   5.397   4.413 -1.4183 -1.5204  0.4723
  115MOL   C11418582   1.299   5.693   4.491  0.2898 -0.2791  0.3212
  115MOL   C11518583   1.242   5.827   4.543  0.3467  0.8537  0.1271
  115MOL   C11618584   1.224   5.836   4.696  0.1182 -0.1651  0.0018
  115MOL   O11718585   1.275   5.752   4.774 -0.1622 -0.2898  0.6138
  115MOL   H11818586   1.350   5.712   4.396 -0.1484  0.0440  0.1497
  115MOL   H11918587   1.368   5.654   4.566  0.7684  1.5979  0.9105
  115MOL   H12018588   1.148   5.831   4.489 -0.1728 -0.2210  0.9452
  115MOL   H12118589   1.303   5.903   4.493 -0.8573  1.2403 -0.7870
  115MOL   C12218590   1.145   5.961   4.748 -0.6506  0.8525  0.4946
  115MOL   C12318591   1.195   6.018   4.875  0.0854  0.1019  0.3206
  115MOL   C12418592   1.214   6.166   4.880 -0.1343  0.2538 -0.3262
  115MOL   O12518593   1.149   6.241   4.809  0.6068  0.0952  0.1579
  115MOL   H12618594   1.042   5.930   4.768 -0.6002 -0.2183 -0.8287
  115MOL   H12718595   1.139   6.043   4.676 -1.0027  0.9019  0.5769
  115MOL   H12818596   1.297   5.980   4.884 -0.2654 -1.3802 -1.5842
  115MOL   H12918597   1.140   5.981   4.961  0.9476 -1.2045  0.3308
  115MOL   C13018598   1.311   6.226   4.985 -0.1132  0.2946  0.3310
  115MOL   C13118599   1.250   6.279   5.111 -0.6735 -0.0136 -0.3043
  115MOL   C13218600   1.347   6.352   5.210  1.0151  0.5344  0.5355
  115MOL   O13318601   1.470   6.353   5.197  0.4578  0.0050  0.6084
  115MOL   H13418602   1.375   6.296   4.931 -0.4760  0.1297 -0.3196
  115MOL   H13518603   1.377   6.143   5.011 -1.5517 -0.9152  0.1712
  115MOL   H13618604   1.190   6.204   5.165 -0.7491 -0.1632 -0.5973
  115MOL   H13718605   1.184   6.360   5.080  0.0906 -0.1102 -2.2156
  115MOL   C13818606   1.287   6.426   5.327 -0.0417 -0.7804  0.4764
  115MOL   C13918607   1.263   6.323   5.442 -0.9330  0.1327  0.0530
  115MOL   C14018608   1.121   6.286   5.474  0.3719 -0.4424 -0.8444
  115MOL   O14118609   1.044   6.280   5.378  0.0642  0.0667 -0.3467
  115MOL   H14218610   1.196   6.479   5.299  1.1302  0.0000 -1.9512
  115MOL   H14318611   1.369   6.494   5.350 -0.1598 -1.4407  3.0658
  115MOL   H14418612   1.291   6.371   5.536 -1.9617 -3.3756  2.2531
  115MOL   H14518613   1.336   6.242   5.446  0.7878  1.5414 -1.4872
  115MOL   C14618614   1.078   6.281   5.627 -0.5716  0.3622 -0.1058
  115MOL   C14718615   0.936   6.224   5.640  0.0016  0.3031 -0.6901
  115MOL   C14818616   0.901   6.196   5.787  0.5018  0.4300 -0.1873
  115MOL   O14918617   0.970   6.220   5.880 -0.2697 -0.4696 -1.1207
  115MOL   H15018618   1.070   6.379   5.673 -1.4483 -0.5561  1.7597
  115MOL   H15118619   1.148   6.214   5.678 -0.4310 -0.1426 -0.9361
  115MOL   H15218620   0.933   6.131   5.583  0.2998  0.1860 -0.5194
  115MOL   H15318621   0.857   6.291   5.607 -0.5365 -0.6321 -1.3351
  115MOL   C15418622   0.761   6.127   5.799 -0.4739 -0.7463  0.5013
  115MOL   C15518623   0.751   6.045   5.921  0.0937  0.8346  0.0965
  115MOL   C15618624   0.612   6.035   5.974 -0.0409  0.3893  0.1249
  115MOL   O15718625   0.520   6.019   5.892 -0.0549 -0.1762 -0.1373
  115MOL   H15818626   0.739   6.066   5.711  1.1409 -0.5657 -0.0338
  115MOL   H15918627   0.698   6.215   5.814  0.6139 -0.0529  1.0230
  115MOL   H16018628   0.794   6.104   6.001 -1.1264 -2.4886  3.3640
  115MOL   H16118629   0.804   5.951   5.932 -1.9626 -0.1585  1.8364
  115MOL   H16218630   0.609   6.044   6.083  1.7091  1.5265  0.1092
  116MOL     C118631   1.299   3.876   1.488  0.4446 -0.0378  0.7526
  116MOL     C218632   1.439   3.866   1.441 -0.2334  0.2625 -0.0906
  116MOL     C318633   1.520   3.975   1.507  0.4687 -0.0199  0.1658
  116MOL     O418634   1.470   4.078   1.533  0.0599 -0.9629  0.1533
  116MOL     H518635   1.298   3.892   1.595 -0.5646  1.2056  0.5703
  116MOL     H618636   1.268   3.965   1.432  3.4984  0.7338  0.1809
  116MOL     H718637   1.440   3.877   1.332 -0.0508 -1.3944 -0.2724
  116MOL     H818638   1.482   3.767   1.456 -1.9400 -0.6220 -0.9066
  116MOL     H918639   1.237   3.790   1.464 -0.1099  1.0259 -1.8085
  116MOL    C1018640   1.672   3.953   1.527 -0.3365  0.2882  0.2142
  116MOL    C1118641   1.734   4.062   1.608  0.6279  0.1230 -0.0474
  116MOL    C1218642   1.861   4.017   1.680 -0.2880 -0.5203 -0.1135
  116MOL    O1318643   1.932   3.926   1.633  0.0719 -0.6251  0.7084
  116MOL    H1418644   1.709   3.968   1.426 -3.2920  3.0718 -0.5578
  116MOL    H1518645   1.707   3.853   1.551 -0.3129  0.4949  1.0897
  116MOL    H1618646   1.671   4.112   1.682  0.5721 -0.2097  0.1310
  116MOL    H1718647   1.752   4.138   1.532  3.5791 -1.3796 -0.9211
  116MOL    C1818648   1.915   4.088   1.806  1.4242  0.4304  0.1241
  116MOL    C1918649   2.045   4.039   1.875 -0.2328 -0.0075  0.7046
  116MOL    C2018650   2.166   4.129   1.861 -0.0540  0.5879  0.5818
  116MOL    O2118651   2.262   4.078   1.813  0.3531 -0.2606  0.3395
  116MOL    H2218652   1.836   4.094   1.881  0.2794 -0.9866 -0.9140
  116MOL    H2318653   1.922   4.194   1.782 -0.3654  0.1550 -1.8144
  116MOL    H2418654   2.087   3.948   1.833  1.2944  1.1570 -0.3436
  116MOL    H2518655   2.031   4.022   1.982 -1.8021 -0.1109  0.4895
  116MOL    C2618656   2.166   4.276   1.909  0.1890 -0.3959 -0.2921
  116MOL    C2718657   2.143   4.382   1.803 -0.3447  0.5133  0.4814
  116MOL    C2818658   2.202   4.512   1.852  0.0023 -0.2147  0.2135
  116MOL    O2918659   2.135   4.605   1.896  0.3027  0.6459 -0.5527
  116MOL    H3018660   2.253   4.295   1.972  0.9695  0.0223 -1.4878
  116MOL    H3118661   2.087   4.284   1.984 -0.0620  0.6687 -0.6569
  116MOL    H3218662   2.036   4.397   1.792 -0.3091  0.0325 -0.5501
  116MOL    H3318663   2.179   4.353   1.704 -2.8259  1.3027 -0.6765
  116MOL    C3418664   2.358   4.521   1.859 -0.3421  0.3391  0.1803
  116MOL    C3518665   2.412   4.581   1.990  0.0767  0.7345 -0.6507
  116MOL    C3618666   2.488   4.484   2.078  0.3452  0.0139 -0.0685
  116MOL    O3718667   2.483   4.363   2.060 -0.1495  0.3641  0.4345
  116MOL    H3818668   2.403   4.591   1.787 -0.9395 -0.4272 -0.9521
  116MOL    H3918669   2.399   4.425   1.828 -3.7619 -0.9444 -0.5191
  116MOL    H4018670   2.318   4.597   2.041  0.1907 -0.8927  0.0873
  116MOL    H4118671   2.477   4.668   1.978 -1.1433  1.6170 -0.9931
  116MOL    C4218672   2.589   4.543   2.185  0.2933  0.3210 -0.1619
  116MOL    C4318673   2.585   4.446   2.309  0.0816  0.1256 -0.0813
  116MOL    C4418674   2.717   4.364   2.326  0.5168 -0.8559 -0.2130
  116MOL    O4518675   2.823   4.397   2.275 -0.1031  0.4379 -0.2951
  116MOL    H4618676   2.564   4.646   2.213 -1.5455  0.1858 -1.2345
  116MOL    H4718677   2.687   4.555   2.138 -0.1270 -0.8999 -1.3805
  116MOL    H4818678   2.498   4.380   2.308  0.5105 -0.4371 -0.0994
  116MOL    H4918679   2.561   4.512   2.392 -0.8072  0.1212 -0.3216
  116MOL    C5018680   2.697   4.232   2.392 -0.3029 -0.2687 -0.0528
  116MOL    C5118681   2.633   4.137   2.281 -0.0277 -0.1422 -0.3504
  116MOL    C5218682   2.490   4.094   2.299  0.2115  0.0465 -0.7052
  116MOL    O5318683   2.423   4.135   2.397  0.2064 -0.1944 -0.0394
  116MOL    H5418684   2.639   4.237   2.484 -0.5212 -0.9801 -0.1479
  116MOL    H5518685   2.793   4.196   2.430 -0.4523 -1.1349 -0.4910
  116MOL    H5618686   2.694   4.047   2.265 -0.0381  0.0522 -1.5547
  116MOL    H5718687   2.643   4.189   2.185  0.7893  1.7568  0.7496
  116MOL    C5818688   2.434   3.980   2.214  0.5596 -0.1631  0.8871
  116MOL    C5918689   2.283   3.988   2.216  0.1583 -0.1468  0.1153
  116MOL    C6018690   2.219   3.880   2.296  0.3630 -0.4773 -0.0406
  116MOL    O6118691   2.273   3.769   2.299  0.3464 -0.6206 -0.3866
  116MOL    H6218692   2.470   3.893   2.269 -1.4782 -0.7198  1.3591
  116MOL    H6318693   2.475   3.976   2.112 -0.4483 -0.0529  0.4772
  116MOL    H6418694   2.249   3.970   2.114 -2.0144 -1.4266  1.0459
  116MOL    H6518695   2.234   4.080   2.246 -1.0076 -0.2607 -1.4361
  116MOL    C6618696   2.095   3.907   2.382  0.0500 -0.5257 -0.1322
  116MOL    C6718697   2.100   3.844   2.521 -0.8995 -0.1255 -0.2315
  116MOL    C6818698   1.970   3.768   2.548 -0.2385 -0.9448  0.3961
  116MOL    O6918699   1.866   3.796   2.483 -0.0593  0.3678 -0.2244
  116MOL    H7018700   2.017   3.869   2.317 -0.7542  0.5600  0.1758
  116MOL    H7118701   2.078   4.013   2.398 -0.6348 -0.6802  0.1437
  116MOL    H7218702   2.129   3.909   2.603  2.8496  0.6654 -2.0678
  116MOL    H7318703   2.170   3.760   2.516  0.4952  0.9593  0.4106
  116MOL    C7418704   1.979   3.655   2.649 -0.7206  0.5416 -0.6069
  116MOL    C7518705   1.855   3.563   2.658 -0.3091  0.3071 -0.2614
  116MOL    C7618706   1.735   3.626   2.726 -0.0956 -0.4176 -0.4651
  116MOL    O7718707   1.749   3.696   2.825  0.8025  0.3088  0.0947
  116MOL    H7818708   2.004   3.698   2.746 -1.9303 -1.7641  0.7787
  116MOL    H7918709   2.061   3.586   2.628 -1.1043 -0.6991  1.7429
  116MOL    H8018710   1.881   3.478   2.721 -1.4228  0.1669  0.0182
  116MOL    H8118711   1.831   3.530   2.557 -1.3862  1.6482 -0.4690
  116MOL    C8218712   1.594   3.581   2.678 -0.0435  0.1420  0.8119
  116MOL    C8318713   1.475   3.612   2.777 -0.5680  0.6198  0.6455
  116MOL    C8418714   1.343   3.559   2.729 -0.5959  0.4064  0.1436
  116MOL    O8518715   1.328   3.456   2.654 -0.3473  0.4645 -0.2907
  116MOL    H8618716   1.599   3.472   2.677 -0.3782  0.1278  0.8998
  116MOL    H8718717   1.581   3.619   2.576 -1.6783 -3.3631 -0.3790
  116MOL    H8818718   1.465   3.718   2.799  1.2798  1.0498 -0.4353
  116MOL    H8918719   1.498   3.557   2.869 -1.5678  1.8845  1.6732
  116MOL    C9018720   1.228   3.635   2.790 -0.2066  0.4265 -0.3521
  116MOL    C9118721   1.138   3.529   2.851 -0.5270 -0.0508  0.4008
  116MOL    C9218722   1.044   3.586   2.961  0.1205  0.9213  0.2696
  116MOL    O9318723   1.082   3.672   3.038  0.0534  0.1202  0.4111
  116MOL    H9418724   1.174   3.710   2.733  0.2414  0.8965 -0.1555
  116MOL    H9518725   1.274   3.684   2.876  0.2231  2.6789 -1.8224
  116MOL    H9618726   1.192   3.442   2.888  0.4505 -0.3983 -1.7580
  116MOL    H9718727   1.082   3.470   2.779  0.8951 -1.4316  0.3905
  116MOL    C9818728   0.897   3.542   2.963 -0.2030  0.1819  0.6212
  116MOL    C9918729   0.815   3.646   2.886 -0.1789  0.3361  0.5048
  116MOL   C10018730   0.706   3.569   2.821  0.8514 -0.0450  0.2572
  116MOL   O10118731   0.633   3.491   2.881 -0.0600 -0.0618  0.1568
  116MOL   H10218732   0.869   3.535   3.068 -0.5389  1.9926  0.6563
  116MOL   H10318733   0.891   3.441   2.922  1.4082  0.3595 -0.1027
  116MOL   H10418734   0.875   3.688   2.806 -1.1648 -2.1059 -1.5898
  116MOL   H10518735   0.776   3.725   2.950 -1.4443 -0.7879  1.1383
  116MOL   C10618736   0.690   3.599   2.670 -0.1525 -0.4638  0.0195
  116MOL   C10718737   0.777   3.499   2.579 -0.8212 -0.1267 -0.5972
  116MOL   C10818738   0.903   3.573   2.527  0.2220  0.0425  0.1311
  116MOL   O10918739   0.966   3.649   2.592 -0.3546 -0.3474 -0.0753
  116MOL   H11018740   0.710   3.705   2.652 -1.3488 -0.3735 -0.8411
  116MOL   H11118741   0.587   3.574   2.644 -1.4474  2.0531  2.4348
  116MOL   H11218742   0.720   3.457   2.497 -3.4681 -0.1204  1.1510
  116MOL   H11318743   0.810   3.418   2.644  2.0437  1.1371 -0.3975
  116MOL   C11418744   0.945   3.532   2.389  0.3780 -0.3469  0.2007
  116MOL   C11518745   1.017   3.641   2.315  0.1085 -0.4392  0.2144
  116MOL   C11618746   1.143   3.585   2.259 -0.0897  0.3063  0.5286
  116MOL   O11718747   1.146   3.502   2.172 -0.0907  0.0256 -0.2436
  116MOL   H11818748   0.862   3.485   2.338  1.2187 -1.7276  0.0743
  116MOL   H11918749   1.008   3.446   2.412  0.8914 -0.9505 -3.2300
  116MOL   H12018750   1.047   3.721   2.381  1.1913  0.3277 -1.1779
  116MOL   H12118751   0.943   3.669   2.239  0.3230  1.8297  0.8265
  116MOL   C12218752   1.268   3.643   2.312 -0.9078 -0.6182 -0.2260
  116MOL   C12318753   1.396   3.617   2.226  0.1818  0.2355  0.2844
  116MOL   C12418754   1.495   3.730   2.245 -0.6516 -0.0488 -0.1654
  116MOL   O12518755   1.576   3.731   2.341  0.1226  0.4047 -0.5937
  116MOL   H12618756   1.283   3.602   2.412  1.2061  0.8623  0.1113
  116MOL   H12718757   1.261   3.751   2.322  3.3143 -0.2338 -0.5385
  116MOL   H12818758   1.376   3.614   2.119  2.5864 -1.2635 -0.1519
  116MOL   H12918759   1.441   3.519   2.239  1.2714  0.4123 -1.9344
  116MOL   C13018760   1.485   3.847   2.155  0.4904  0.4620 -0.0584
  116MOL   C13118761   1.613   3.893   2.089  0.4514  0.1580  0.4290
  116MOL   C13218762   1.662   4.026   2.142  0.0397 -0.3253 -0.0994
  116MOL   O13318763   1.642   4.131   2.082  0.0754  0.1410 -0.3244
  116MOL   H13418764   1.446   3.937   2.203  1.9599 -0.3958  2.9265
  116MOL   H13518765   1.407   3.824   2.084 -1.6034  0.4721  2.1765
  116MOL   H13618766   1.602   3.883   1.981 -0.0663 -2.4216  0.6889
  116MOL   H13718767   1.696   3.825   2.107  0.7560  0.1805 -0.8630
  116MOL   C13818768   1.725   4.031   2.279 -0.7761 -0.6565  0.8414
  116MOL   C13918769   1.782   4.168   2.320  0.4658  0.1504 -0.9441
  116MOL   C14018770   1.918   4.205   2.264 -0.2177 -0.6751  0.3900
  116MOL   O14118771   1.979   4.131   2.189  0.0863 -0.1214 -0.2163
  116MOL   H14218772   1.808   3.960   2.272  0.9168  1.2184  1.2949
  116MOL   H14318773   1.655   3.990   2.351 -2.0218  1.4810  0.8714
  116MOL   H14418774   1.780   4.188   2.427 -1.0257  0.7721 -1.0859
  116MOL   H14518775   1.714   4.239   2.274  0.3969  0.7937  0.1390
  116MOL   C14618776   1.985   4.330   2.324 -0.4550  0.7549  0.5026
  116MOL   C14718777   2.013   4.429   2.212 -0.3312 -0.3389  0.2513
  116MOL   C14818778   1.933   4.556   2.229  0.1679 -0.4480  0.3201
  116MOL   O14918779   1.814   4.550   2.256  0.2907 -0.5581 -0.0634
  116MOL   H15018780   2.070   4.286   2.376 -0.6513 -1.0252 -0.6570
  116MOL   H15118781   1.921   4.364   2.406 -1.4807 -2.6278  1.1884
  116MOL   H15218782   1.993   4.385   2.115 -0.3494 -0.1892  0.1865
  116MOL   H15318783   2.118   4.459   2.219 -1.1257  2.5892  0.5257
  116MOL   C15418784   1.999   4.689   2.203  0.5257 -0.3853 -0.5488
  116MOL   C15518785   1.933   4.781   2.105 -0.8366 -0.6968  0.2700
  116MOL   C15618786   2.030   4.874   2.036  0.0229  0.3218  0.0323
  116MOL   O15718787   2.122   4.931   2.101 -0.1893 -0.1161  0.1030
  116MOL   H15818788   2.103   4.662   2.186  1.1911  1.9173 -0.2683
  116MOL   H15918789   2.008   4.748   2.294  1.3508 -0.9037 -0.2921
  116MOL   H16018790   1.859   4.848   2.149 -0.0607  1.2090 -1.2121
  116MOL   H16118791   1.886   4.722   2.026  0.0132  0.7906 -1.4065
  116MOL   H16218792   2.015   4.879   1.928  0.9625 -0.3982 -0.1396
  117MOL     C118793   2.210   5.876   1.653  0.1020  0.1096 -0.6165
  117MOL     C218794   2.156   5.806   1.521 -0.2247  0.0906  0.9501
  117MOL     C318795   2.268   5.758   1.432  0.1818 -0.9820  1.2077
  117MOL     O418796   2.297   5.826   1.330 -0.0439  0.0452 -0.1317
  117MOL     H518797   2.280   5.805   1.696  1.8516  0.5827 -2.6272
  117MOL     H618798   2.254   5.972   1.627 -2.0642  1.4409  0.4277
  117MOL     H718799   2.094   5.881   1.471 -1.8267 -0.1058  2.5762
  117MOL     H818800   2.088   5.727   1.552 -1.1601  0.3859 -0.3264
  117MOL     H918801   2.121   5.887   1.716  0.4609  1.6193 -0.3634
  117MOL    C1018802   2.328   5.621   1.456 -0.0471 -0.6266 -0.4450
  117MOL    C1118803   2.279   5.524   1.345  0.3311 -0.0012 -0.2329
  117MOL    C1218804   2.233   5.393   1.392 -0.4384  0.0811  0.3804
  117MOL    O1318805   2.185   5.369   1.500 -0.5146  0.4073  0.4916
  117MOL    H1418806   2.277   5.591   1.548  1.8005  3.1936  1.9728
  117MOL    H1518807   2.436   5.629   1.471 -0.2190  2.2181 -0.4897
  117MOL    H1618808   2.351   5.512   1.264 -0.2601 -1.3032 -0.5857
  117MOL    H1718809   2.196   5.563   1.286 -0.7802  0.9460  1.8781
  117MOL    C1818810   2.244   5.280   1.288  0.4476  0.4818  0.1350
  117MOL    C1918811   2.134   5.302   1.180  0.7801  0.1584  0.7634
  117MOL    C2018812   2.098   5.182   1.095  0.1996 -0.5377 -0.5297
  117MOL    O2118813   2.167   5.151   1.005  0.4638  0.0762  0.3942
  117MOL    H2218814   2.216   5.182   1.328  1.2802 -0.8301 -2.3980
  117MOL    H2318815   2.329   5.263   1.222 -0.6052  2.3954 -1.7436
  117MOL    H2418816   2.149   5.396   1.126 -1.0898 -0.4931 -0.9527
  117MOL    H2518817   2.044   5.332   1.235  0.9121  1.2961  0.3767
  117MOL    C2618818   1.970   5.110   1.134 -0.1554  0.0927 -0.3395
  117MOL    C2718819   1.923   4.992   1.042  0.5356 -0.1265  0.2503
  117MOL    C2818820   1.888   4.870   1.125  0.0507 -0.4017 -0.4202
  117MOL    O2918821   1.956   4.833   1.225  0.3575  0.5546 -0.2059
  117MOL    H3018822   1.885   5.176   1.142 -2.6993 -2.8340 -1.9032
  117MOL    H3118823   1.991   5.075   1.235  2.5900  1.2745 -0.4654
  117MOL    H3218824   1.998   4.944   0.979  0.0129 -0.8000  0.1345
  117MOL    H3318825   1.837   5.028   0.985  0.4109  0.1517  0.6142
  117MOL    C3418826   1.767   4.791   1.087 -0.4432  0.1893 -0.4603
  117MOL    C3518827   1.774   4.643   1.125  0.3662  0.5034  0.1114
  117MOL    C3618828   1.882   4.567   1.044 -0.7829  0.0709 -0.5461
  117MOL    O3718829   1.940   4.622   0.946  0.6698  0.6729 -0.0373
  117MOL    H3818830   1.756   4.800   0.979  2.4768 -0.1512 -0.8085
  117MOL    H3918831   1.678   4.828   1.139  1.3927  1.2925  2.0107
  117MOL    H4018832   1.674   4.604   1.107  0.7398 -0.0601 -0.7863
  117MOL    H4118833   1.791   4.629   1.232  0.6668  0.9176  0.1180
  117MOL    C4218834   1.916   4.428   1.098 -0.3382 -0.5102  0.0222
  117MOL    C4318835   1.858   4.315   1.007 -0.6662  0.1870  0.1115
  117MOL    C4418836   1.797   4.189   1.079  0.8129 -0.4175  1.0648
  117MOL    O4518837   1.849   4.152   1.185  0.0417 -0.3333 -0.6795
  117MOL    H4618838   1.887   4.425   1.203 -0.2676  0.3338  0.0675
  117MOL    H4718839   2.024   4.413   1.095 -0.5850 -2.3374 -0.5672
  117MOL    H4818840   1.931   4.275   0.936 -0.1794  2.2255 -0.5806
  117MOL    H4918841   1.774   4.355   0.951  0.9136  0.7587 -1.9253
  117MOL    C5018842   1.672   4.121   1.015  0.7194 -0.1598 -0.2786
  117MOL    C5118843   1.637   3.991   1.091 -0.1520  0.0113  0.0123
  117MOL    C5218844   1.515   3.932   1.024 -0.1751  0.5763  0.5523
  117MOL    O5318845   1.397   3.965   1.048  0.3338  0.2278  0.1137
  117MOL    H5418846   1.688   4.107   0.908 -0.3842  0.9371 -0.5964
  117MOL    H5518847   1.586   4.187   1.021 -0.9380 -2.1936 -1.4871
  117MOL    H5618848   1.615   4.002   1.197 -1.4041 -1.4695 -0.0739
  117MOL    H5718849   1.717   3.918   1.082 -1.7655 -1.4984 -2.4588
  117MOL    C5818850   1.548   3.825   0.917  0.4967 -0.2748 -0.0133
  117MOL    C5918851   1.418   3.763   0.857 -0.0284  0.1043  0.1437
  117MOL    C6018852   1.421   3.762   0.705 -0.4980  0.3223  0.2503
  117MOL    O6118853   1.487   3.843   0.638 -1.1187  0.3994  1.1216
  117MOL    H6218854   1.617   3.749   0.951  1.5514  0.8300  0.3617
  117MOL    H6318855   1.590   3.868   0.826 -2.4914  0.3803 -1.1549
  117MOL    H6418856   1.325   3.802   0.896  0.3932  2.0005 -0.7031
  117MOL    H6518857   1.424   3.663   0.902  0.7609 -0.5750 -1.4264
  117MOL    C6618858   1.332   3.660   0.628 -0.8043  0.7411 -0.7031
  117MOL    C6718859   1.330   3.692   0.476  0.0758  0.4006  0.3763
  117MOL    C6818860   1.356   3.566   0.398 -0.0536 -0.2154  0.0843
  117MOL    O6918861   1.277   3.469   0.413 -0.1660  0.2228 -0.3360
  117MOL    H7018862   1.234   3.651   0.673  0.0035  0.0556  0.9646
  117MOL    H7118863   1.373   3.559   0.634 -0.1249  1.1191  1.2941
  117MOL    H7218864   1.396   3.776   0.456  0.8185  0.1370  1.6661
  117MOL    H7318865   1.229   3.727   0.455  0.3238 -0.1654 -1.8286
  117MOL    C7418866   1.485   3.553   0.316 -0.2823 -0.8975 -0.0818
  117MOL    C7518867   1.513   3.413   0.260  0.7621 -0.6101  1.2709
  117MOL    C7618868   1.602   3.331   0.346 -0.1550  0.5159 -0.0058
  117MOL    O7718869   1.634   3.360   0.460 -0.0952  0.3420 -0.7006
  117MOL    H7818870   1.573   3.584   0.373  0.9928 -1.2720 -1.8031
  117MOL    H7918871   1.489   3.629   0.238 -0.2299 -0.8130  0.0036
  117MOL    H8018872   1.555   3.406   0.159 -1.4241 -1.7876  0.3828
  117MOL    H8118873   1.418   3.363   0.241  1.1987 -0.8020 -0.4964
  117MOL    C8218874   1.652   3.201   0.281 -0.1673 -0.1253  0.5028
  117MOL    C8318875   1.799   3.177   0.311 -0.5204 -0.5598 -0.3904
  117MOL    C8418876   1.894   3.287   0.263 -0.3244 -0.1481 -0.1590
  117MOL    O8518877   1.865   3.355   0.160 -0.1865  0.6544 -0.0444
  117MOL    H8618878   1.645   3.189   0.173 -0.9726  1.1151  0.4084
  117MOL    H8718879   1.599   3.113   0.318 -0.3935 -0.1022  0.2373
  117MOL    H8818880   1.830   3.083   0.266 -4.0342 -1.9411 -0.0958
  117MOL    H8918881   1.819   3.177   0.418  0.7418  2.9286 -0.5440
  117MOL    C9018882   2.032   3.292   0.340 -0.1036 -0.5525 -0.3808
  117MOL    C9118883   2.130   3.409   0.297 -0.4443 -0.0425 -0.2858
  117MOL    C9218884   2.129   3.525   0.397 -0.1241  0.6746  0.4998
  117MOL    O9318885   2.061   3.623   0.372 -0.3334 -0.7246  0.4560
  117MOL    H9418886   2.082   3.197   0.324  0.6549 -0.2234 -0.0051
  117MOL    H9518887   2.021   3.289   0.449  0.4605  0.3269 -0.2905
  117MOL    H9618888   2.110   3.450   0.197  1.6775 -1.2052 -1.2226
  117MOL    H9718889   2.229   3.364   0.288 -0.9479 -0.7385 -2.8924
  117MOL    C9818890   2.232   3.518   0.512 -0.1602 -0.2379  0.0856
  117MOL    C9918891   2.275   3.652   0.580 -0.7355 -0.0800 -0.1188
  117MOL   C10018892   2.380   3.652   0.693  0.7598 -0.0716  0.9335
  117MOL   O10118893   2.445   3.547   0.710 -0.0750 -0.2419 -0.7423
  117MOL   H10218894   2.313   3.469   0.459 -0.1128  1.0458 -1.0291
  117MOL   H10318895   2.205   3.443   0.587  1.0354 -1.5791 -0.8068
  117MOL   H10418896   2.186   3.692   0.628 -0.9216 -1.0244  0.3166
  117MOL   H10518897   2.318   3.723   0.509  0.9008 -2.0268 -1.1494
  117MOL   C10618898   2.416   3.785   0.766  0.6017  0.0361  0.5589
  117MOL   C10718899   2.509   3.761   0.888 -0.1366  0.1829  0.0110
  117MOL   C10818900   2.647   3.830   0.890  0.4550 -0.5980  0.4128
  117MOL   O10918901   2.661   3.949   0.867  0.3950  0.4152 -0.2170
  117MOL   H11018902   2.324   3.825   0.808  0.3573  0.6622 -0.5747
  117MOL   H11118903   2.464   3.857   0.700  0.4329  1.5954  2.1022
  117MOL   H11218904   2.517   3.655   0.912 -2.2128 -0.2567 -1.1462
  117MOL   H11318905   2.457   3.794   0.979 -1.5027 -2.8157  0.3783
  117MOL   C11418906   2.766   3.743   0.926 -0.4305 -0.0244 -0.5979
  117MOL   C11518907   2.903   3.814   0.903  1.0433  0.4982  1.4705
  117MOL   C11618908   2.950   3.790   0.767 -0.2272  0.1305 -0.0055
  117MOL   O11718909   2.890   3.717   0.688 -0.4110  0.0002 -0.3203
  117MOL   H11818910   2.759   3.645   0.877  0.7091 -0.2604 -0.3067
  117MOL   H11918911   2.766   3.724   1.033  0.5971  3.1028  0.0057
  117MOL   H12018912   2.977   3.790   0.979  1.4841  0.8227  1.1466
  117MOL   H12118913   2.890   3.920   0.927  0.3620  0.4267  1.4078
  117MOL   C12218914   3.080   3.859   0.725  0.2480 -0.1512  0.1721
  117MOL   C12318915   3.087   3.854   0.566  0.6545 -0.2867 -0.4458
  117MOL   C12418916   3.199   3.938   0.515  0.1793 -0.8177 -0.6077
  117MOL   O12518917   3.259   4.015   0.585 -0.5137 -0.2911 -0.2400
  117MOL   H12618918   3.166   3.810   0.770  0.8083  0.6299 -0.0423
  117MOL   H12718919   3.090   3.957   0.772  0.6986  0.7715 -1.8166
  117MOL   H12818920   2.998   3.908   0.535  0.2984  0.3061  1.5339
  117MOL   H12918921   3.094   3.752   0.526  1.1030 -0.0515 -0.9731
  117MOL   C13018922   3.239   3.916   0.370 -0.2172  0.3455  0.5463
  117MOL   C13118923   3.343   4.023   0.335  0.3141 -1.4684  0.2469
  117MOL   C13218924   3.280   4.146   0.270  0.1134 -0.7202 -0.0512
  117MOL   O13318925   3.285   4.255   0.329 -0.1494  0.0684 -0.1019
  117MOL   H13418926   3.152   3.909   0.305  0.3883  1.2487 -0.3817
  117MOL   H13518927   3.290   3.819   0.373  0.0843  0.5101  0.7266
  117MOL   H13618928   3.410   3.983   0.259 -0.9800 -0.4457 -1.4451
  117MOL   H13718929   3.411   4.051   0.415 -0.5351 -1.1026  0.8492
  117MOL   C13818930   3.234   4.125   0.128  0.1377  0.0982  0.2866
  117MOL   C13918931   3.154   4.240   0.074  0.0494 -0.1410  0.4571
  117MOL   C14018932   3.003   4.223   0.100  0.2462  0.1073 -0.2946
  117MOL   O14118933   2.944   4.134   0.042 -0.2237 -0.0258  0.0454
  117MOL   H14218934   3.178   4.032   0.123 -1.6866  1.0526  2.3917
  117MOL   H14318935   3.327   4.111   0.071  1.5283  2.5690  1.8504
  117MOL   H14418936   3.186   4.238   7.828  0.9200  0.2257  0.7089
  117MOL   H14518937   3.189   4.336   0.112  0.1543 -0.0738  0.2000
  117MOL   C14618938   2.928   4.306   0.201  1.0716 -0.1622 -0.3324
  117MOL   C14718939   2.794   4.242   0.243 -0.1392 -0.4513  0.0628
  117MOL   C14818940   2.809   4.131   0.352 -0.3246  0.4685 -1.1724
  117MOL   O14918941   2.909   4.125   0.427 -0.1551  0.2991 -0.6172
  117MOL   H15018942   2.921   4.408   0.162  0.9974  0.0107  0.1317
  117MOL   H15118943   2.994   4.323   0.286 -1.6958 -1.4705  2.1750
  117MOL   H15218944   2.736   4.215   0.155 -2.6937  1.1038  1.2060
  117MOL   H15318945   2.721   4.313   0.283 -1.0616 -1.3611  0.0011
  117MOL   C15418946   2.685   4.034   0.347  0.0013 -0.3979 -0.0832
  117MOL   C15518947   2.660   3.941   0.467 -0.0209 -0.7890 -0.2392
  117MOL   C15618948   2.683   3.793   0.444  0.1025  0.2549  0.7188
  117MOL   O15718949   2.587   3.715   0.440  0.0175  0.2824 -0.0005
  117MOL   H15818950   2.684   3.973   0.257  0.5058 -0.4043 -0.0866
  117MOL   H15918951   2.601   4.104   0.353  1.3748  1.2295  0.4765
  117MOL   H16018952   2.551   3.945   0.479 -0.0144 -1.2279 -0.0046
  117MOL   H16118953   2.703   3.978   0.560  2.2541  2.3186 -2.4402
  117MOL   H16218954   2.790   3.772   0.445  0.2449  1.0275  2.1190
  118MOL     C118955   4.703   2.870   2.926 -0.3156 -0.5159 -0.3027
  118MOL     C218956   4.855   2.848   2.891  0.6448  0.3773  0.6532
  118MOL     C318957   4.876   2.859   2.735 -0.0382  0.5436  0.0054
  118MOL     O418958   4.813   2.936   2.657 -0.1176  0.5264  0.3128
  118MOL     H518959   4.670   2.851   3.028 -0.5850 -1.3477 -0.5421
  118MOL     H618960   4.672   2.973   2.909 -0.3609 -0.3695  0.6548
  118MOL     H718961   4.876   2.746   2.921  0.3508 -0.0455 -0.5619
  118MOL     H818962   4.902   2.918   2.961 -2.8546  2.0954  1.4157
  118MOL     H918963   4.634   2.806   2.870 -1.7983 -0.7317  1.7189
  118MOL    C1018964   4.977   2.765   2.683  0.3623  0.1579 -0.2043
  118MOL    C1118965   5.065   2.819   2.572 -0.1365 -0.1373  0.4862
  118MOL    C1218966   5.207   2.846   2.618 -1.1298 -0.0540 -0.0910
  118MOL    O1318967   5.242   2.861   2.734  0.9366 -0.0241 -0.3508
  118MOL    H1418968   4.938   2.672   2.641  1.2498 -0.1198 -0.4153
  118MOL    H1518969   5.038   2.724   2.763 -1.7080  1.7749  2.2751
  118MOL    H1618970   5.016   2.901   2.518 -1.1049 -1.2212 -0.3027
  118MOL    H1718971   5.058   2.748   2.490 -4.1325  1.6119 -0.8577
  118MOL    C1818972   5.306   2.882   2.503 -0.1498 -1.2047  0.5913
  118MOL    C1918973   5.453   2.903   2.553  0.7262  0.2518  0.0798
  118MOL    C2018974   5.543   2.782   2.543  0.3773  0.8264 -1.0036
  118MOL    O2118975   5.505   2.673   2.509  0.0628  0.0252  0.2349
  118MOL    H2218976   5.264   2.970   2.454  1.0913 -1.0942 -0.2952
  118MOL    H2318977   5.302   2.807   2.425  1.6109  1.2027 -1.8929
  118MOL    H2418978   5.454   2.939   2.656 -1.3680  0.8913 -0.1039
  118MOL    H2518979   5.508   2.980   2.498  2.7643 -1.0000  0.2914
  118MOL    C2618980   5.678   2.810   2.603  0.0771 -0.6323 -0.3541
  118MOL    C2718981   5.786   2.705   2.570 -0.0889 -0.3843 -0.4653
  118MOL    C2818982   5.838   2.729   2.430  0.0368  0.0107  1.4052
  118MOL    O2918983   5.770   2.777   2.335  0.1780  0.3479  0.4235
  118MOL    H3018984   5.673   2.812   2.712 -1.2731 -1.7328 -0.3861
  118MOL    H3118985   5.709   2.911   2.575  1.8638 -1.2584 -0.6466
  118MOL    H3218986   5.733   2.610   2.576 -1.1573  0.2188 -0.1175
  118MOL    H3318987   5.856   2.704   2.654 -0.5815 -0.4685 -0.0556
  118MOL    C3418988   5.984   2.692   2.403  0.4781  0.2383  0.3993
  118MOL    C3518989   6.006   2.583   2.307  0.3266  0.0387  0.2098
  118MOL    C3618990   6.102   2.627   2.200  0.1660  0.5813  0.1161
  118MOL    O3718991   6.060   2.632   2.082 -0.0689 -0.1845 -0.4553
  118MOL    H3818992   6.033   2.686   2.499  0.5069 -0.4896  0.3436
  118MOL    H3918993   6.013   2.792   2.370  0.8001 -0.4592 -1.5120
  118MOL    H4018994   5.915   2.547   2.258  0.1980  0.3869  0.1951
  118MOL    H4118995   6.031   2.488   2.355  1.3413  0.0285 -0.3376
  118MOL    C4218996   6.243   2.675   2.239  0.6285  0.3233 -0.1940
  118MOL    C4318997   6.322   2.738   2.121  0.1276  0.1970 -0.4800
  118MOL    C4418998   6.410   2.861   2.163 -0.6036  0.1785  0.2311
  118MOL    O4518999   6.386   2.933   2.257 -0.8706 -0.7738 -0.1329
  118MOL    H4619000   6.313   2.606   2.287  1.1356  1.2112  0.3624
  118MOL    H4719001   6.224   2.746   2.320  3.4099 -1.0048  1.7134
  118MOL    H4819002   6.247   2.775   2.052 -0.3796 -0.8232 -0.4790
  118MOL    H4919003   6.376   2.656   2.074 -0.3127 -0.8853  0.8644
  118MOL    C5019004   6.522   2.890   2.062 -0.2598 -1.1064 -0.3839
  118MOL    C5119005   6.617   2.998   2.114 -0.0729 -0.4133  0.2663
  118MOL    C5219006   6.719   3.037   2.009 -0.4214 -0.7430  0.9126
  118MOL    O5319007   6.732   2.979   1.898 -0.1783 -0.5606 -0.4699
  118MOL    H5419008   6.478   2.935   1.973 -0.3900 -0.4755  0.0006
  118MOL    H5519009   6.578   2.801   2.034  0.3922 -0.5554 -0.8265
  118MOL    H5619010   6.655   2.959   2.208 -1.0986  0.8873  1.2348
  118MOL    H5719011   6.565   3.092   2.129  1.7558  0.9746 -1.7754
  118MOL    C5819012   6.809   3.153   2.035  0.3089  0.2217 -0.8829
  118MOL    C5919013   6.738   3.287   2.005 -0.2329  0.2310  0.1875
  118MOL    C6019014   6.786   3.351   1.877  0.4925  0.2271 -0.7006
  118MOL    O6119015   6.898   3.325   1.833  0.5840 -0.1440  0.3339
  118MOL    H6219016   6.905   3.135   1.987  0.7411  1.1494 -0.3729
  118MOL    H6319017   6.835   3.151   2.140  0.3629 -2.2100 -0.9158
  118MOL    H6419018   6.764   3.364   2.077 -0.6689  1.9054 -1.4186
  118MOL    H6519019   6.631   3.270   2.023 -0.1627 -0.1213  0.2694
  118MOL    C6619020   6.687   3.441   1.812  0.0287  0.0385  0.7206
  118MOL    C6719021   6.752   3.523   1.695  0.5638 -1.5324  0.1835
  118MOL    C6819022   6.656   3.559   1.586  0.5994  0.0059 -0.5328
  118MOL    O6919023   6.541   3.522   1.585  0.7613  0.1401 -0.6997
  118MOL    H7019024   6.643   3.510   1.884 -0.1074 -1.5599  2.1957
  118MOL    H7119025   6.603   3.377   1.788  2.5594 -3.1372  0.0094
  118MOL    H7219026   6.844   3.473   1.665  0.1163 -3.2749  1.6486
  118MOL    H7319027   6.781   3.624   1.726 -0.3233 -1.2656  0.1675
  118MOL    C7419028   6.696   3.661   1.480 -0.1846  0.4887 -0.3068
  118MOL    C7519029   6.798   3.600   1.376 -0.3555 -0.3578 -0.3312
  118MOL    C7619030   6.932   3.675   1.359  0.0587  0.0522 -0.1041
  118MOL    O7719031   6.939   3.799   1.354  0.2782  0.5463  0.3612
  118MOL    H7819032   6.749   3.745   1.525 -1.4633  1.2451 -0.1981
  118MOL    H7919033   6.615   3.703   1.421 -0.6755  1.2519  0.8910
  118MOL    H8019034   6.758   3.611   1.276  1.0467 -2.2470 -1.1214
  118MOL    H8119035   6.822   3.496   1.396 -0.2898 -0.4170 -0.7194
  118MOL    C8219036   7.053   3.593   1.323  0.3802 -0.4772 -0.0897
  118MOL    C8319037   7.185   3.665   1.348 -0.3521  0.4873  0.3168
  118MOL    C8419038   7.293   3.566   1.376  0.7812 -0.1710  0.1438
  118MOL    O8519039   7.284   3.501   1.479 -0.2599 -0.0128 -0.3177
  118MOL    H8619040   7.031   3.555   1.223  1.1635 -2.3030  0.4115
  118MOL    H8719041   7.037   3.512   1.394 -0.2338 -0.2278  0.0560
  118MOL    H8819042   7.179   3.728   1.437 -2.1121  3.0504 -1.5229
  118MOL    H8919043   7.207   3.734   1.267 -1.1802 -0.9677 -1.1830
  118MOL    C9019044   7.399   3.549   1.265  0.0740 -0.3196  0.0132
  118MOL    C9119045   7.507   3.446   1.306 -0.8982 -0.7057 -0.0414
  118MOL    C9219046   7.635   3.470   1.231 -0.0155  0.5913  0.6642
  118MOL    O9319047   7.649   3.426   1.117 -0.0853 -0.2899  0.3902
  118MOL    H9419048   7.448   3.645   1.257 -1.4298  0.3878 -0.9903
  118MOL    H9519049   7.350   3.539   1.168 -1.2783 -1.3283  0.7725
  118MOL    H9619050   7.477   3.344   1.281  0.1001 -1.5103  1.9641
  118MOL    H9719051   7.519   3.459   1.413  0.2659  1.0450 -0.3702
  118MOL    C9819052   7.752   3.534   1.307 -0.0729  0.0116  0.1588
  118MOL    C9919053   7.849   3.624   1.234 -1.0988 -0.3561  0.3887
  118MOL   C10019054   7.790   3.716   1.124 -0.1527  0.2579  0.9513
  118MOL   O10119055   7.687   3.785   1.146 -0.0054 -0.3241 -0.4704
  118MOL   H10219056   7.813   3.463   1.362 -1.3079 -0.3049  1.1430
  118MOL   H10319057   7.699   3.590   1.385  1.0584  0.5867  0.5290
  118MOL   H10419058   0.074   3.568   1.192 -0.9432  0.5878 -0.5961
  118MOL   H10519059   0.032   3.688   1.312 -0.7154 -3.2176  2.6196
  118MOL   C10619060   7.855   3.708   0.985  0.2972  0.2633  0.3581
  118MOL   C10719061   7.775   3.772   0.872  0.2099 -0.8093  0.1801
  118MOL   C10819062   7.850   3.777   0.745  0.1515 -0.0666 -0.0301
  118MOL   O10919063   0.109   3.738   0.736  0.1796 -0.0351 -1.0228
  118MOL   H11019064   0.025   3.606   0.961 -2.7762 -0.4023 -0.6833
  118MOL   H11119065   0.083   3.771   1.006  0.7594 -0.0859 -0.5052
  118MOL   H11219066   7.751   3.875   0.899 -0.5944 -0.8428 -0.4042
  118MOL   H11319067   7.682   3.721   0.846 -0.1796 -0.7304  1.3663
  118MOL   C11419068   7.766   3.828   0.632 -0.1671 -0.8154 -0.4275
  118MOL   C11519069   7.841   3.790   0.497 -0.4514 -0.2182 -0.3458
  118MOL   C11619070   7.777   3.690   0.409 -0.3576  0.6088 -0.3894
  118MOL   O11719071   7.668   3.641   0.425  0.1283  0.1065 -0.2203
  118MOL   H11819072   7.749   3.934   0.653  3.3029 -0.2646 -0.0891
  118MOL   H11919073   7.665   3.789   0.642 -0.8214  0.8768 -0.2252
  118MOL   H12019074   0.079   3.743   0.518 -0.2704  0.7733  1.1729
  118MOL   H12119075   7.852   3.880   0.436 -2.3091  0.7928  0.7650
  118MOL   C12219076   0.015   3.648   0.304  0.5633  1.1156  0.2805
  118MOL   C12319077   0.006   3.499   0.282 -0.1729  0.3808  0.4231
  118MOL   C12419078   7.777   3.468   0.162 -0.9840 -0.2735 -0.5078
  118MOL   O12519079   7.766   3.543   0.063  0.5259  0.0389  0.4362
  118MOL   H12619080   0.116   3.691   0.304  0.5405  1.1701  1.0034
  118MOL   H12719081   7.820   3.702   0.226 -0.0068  0.1157 -0.0193
  118MOL   H12819082   7.816   3.445   0.363  3.1594 -2.6815  0.5223
  118MOL   H12919083   0.104   3.459   0.258 -0.6169  0.0573 -0.8714
  118MOL   C13019084   7.711   3.325   0.166  0.1228 -0.4594  0.3615
  118MOL   C13119085   7.581   3.320   0.081 -0.0548  0.2221  0.1030
  118MOL   C13219086   7.604   3.236   7.814  0.3262 -0.3948  0.2968
  118MOL   O13319087   7.717   3.201   7.788  0.1586 -0.1919 -0.1412
  118MOL   H13419088   7.675   3.302   0.266  0.7089  1.3100  0.9931
  118MOL   H13519089   7.794   3.259   0.143 -0.4154 -0.8199 -0.5782
  118MOL   H13619090   7.553   3.424   0.063 -0.6640 -0.1259 -0.9632
  118MOL   H13719091   7.495   3.280   0.135 -0.9525  0.3388 -1.2215
  118MOL   C13819092   7.484   3.197   7.730  0.3406 -0.5268  0.1813
  118MOL   C13919093   7.519   3.139   7.589 -0.1064 -0.2104 -0.4858
  118MOL   C14019094   7.406   3.154   7.490 -0.5341 -0.1535  0.0228
  118MOL   O14119095   7.297   3.209   7.519 -0.6042  0.1055 -0.8909
  118MOL   H14219096   7.406   3.272   7.730 -0.2626 -1.1282 -1.2647
  118MOL   H14319097   7.445   3.113   7.788  1.0308 -0.5472  0.6281
  118MOL   H14419098   7.531   3.031   7.592  1.3199 -0.0200  1.5683
  118MOL   H14519099   7.611   3.182   7.550 -0.6234  1.9014  0.5505
  118MOL   C14619100   7.422   3.103   7.347  0.2412 -0.2831 -0.4358
  118MOL   C14719101   7.325   3.175   7.240  0.0953 -0.0476  0.1249
  118MOL   C14819102   7.204   3.090   7.201 -0.9542  0.2506 -0.5609
  118MOL   O14919103   7.202   2.968   7.210 -0.4606 -0.7957 -0.3789
  118MOL   H15019104   7.419   2.994   7.353 -0.0312 -0.2410  0.2322
  118MOL   H15119105   7.525   3.127   7.322  0.5049  0.1745  0.9837
  118MOL   H15219106   7.375   3.191   7.144  1.2061  1.8275  0.9744
  118MOL   H15319107   7.279   3.271   7.264  0.0285 -0.5198  1.9291
  118MOL   C15419108   7.076   3.165   7.168  0.1045 -0.4427  0.0248
  118MOL   C15519109   7.098   3.219   7.028  0.8178 -0.3515 -0.0984
  118MOL   C15619110   6.961   3.258   6.960 -0.3666 -0.4461  0.7295
  118MOL   O15719111   6.867   3.304   7.023 -0.3492  0.1491  0.4927
  118MOL   H15819112   7.050   3.244   7.238 -0.9977 -1.5727  0.9089
  118MOL   H15919113   6.994   3.095   7.153  0.2394 -0.6427  0.2261
  118MOL   H16019114   7.142   3.143   6.963  1.2653 -1.4031  1.3956
  118MOL   H16119115   7.174   3.297   7.024 -0.7958  1.3132  0.8193
  118MOL   H16219116   6.959   3.245   6.851 -2.1278  0.5609  0.6290
  119MOL     C119117   0.198   1.076   1.452 -0.5788  0.1923 -0.5124
  119MOL     C219118   0.076   1.079   1.354  0.7091 -0.6750  0.1017
  119MOL     C319119   0.022   1.225   1.328  0.9350  0.1548  0.1831
  119MOL     O419120   0.083   1.324   1.373 -0.1667  0.1475 -0.2604
  119MOL     H519121   0.281   1.124   1.399 -0.1073  0.7159  0.6872
  119MOL     H619122   0.169   1.136   1.538 -1.3074  1.4648 -1.6276
  119MOL     H719123   7.852   1.026   1.401 -0.3675  0.2730 -0.7247
  119MOL     H819124   0.100   1.031   1.260  0.2569 -0.1318 -0.2940
  119MOL     H919125   0.233   0.981   1.493  1.3194  0.5953 -1.1154
  119MOL    C1019126   7.764   1.241   1.230 -0.0797  0.0608  0.0438
  119MOL    C1119127   7.789   1.171   1.096 -0.3903  0.0089  0.4055
  119MOL    C1219128   7.685   1.205   0.993  0.7653  0.6149  0.3630
  119MOL    O1319129   7.569   1.191   1.029  1.0296 -0.1120 -0.3952
  119MOL    H1419130   7.761   1.349   1.213 -1.9368 -0.1164 -0.8749
  119MOL    H1519131   7.663   1.222   1.266 -1.0920 -2.5128 -3.8819
  119MOL    H1619132   7.790   1.062   1.099  2.2695  0.0543  1.8545
  119MOL    H1719133   0.015   1.209   1.040 -1.5498  2.0367 -0.0620
  119MOL    C1819134   7.729   1.241   0.856 -0.9362  0.8464  0.2120
  119MOL    C1919135   7.611   1.202   0.765  0.2252 -0.2958 -0.0618
  119MOL    C2019136   7.641   1.252   0.622  0.3775  0.0417  0.2202
  119MOL    O2119137   7.735   1.210   0.559 -0.1099  0.0746 -0.2724
  119MOL    H2219138   7.823   1.195   0.824 -0.8302  1.4754 -0.3970
  119MOL    H2319139   7.756   1.347   0.852  1.4489  0.3066  1.3908
  119MOL    H2419140   7.519   1.251   0.796 -1.7704 -2.8883 -1.7363
  119MOL    H2519141   7.589   1.096   0.753  0.6674 -0.6490  1.9180
  119MOL    C2619142   7.569   1.379   0.580 -0.3305  0.9165  0.5825
  119MOL    C2719143   7.631   1.436   0.450  0.0035 -0.1985  0.3307
  119MOL    C2819144   7.694   1.574   0.488 -0.1111  0.1615  0.2412
  119MOL    O2919145   7.626   1.664   0.536  0.4577  0.2597  0.0029
  119MOL    H3019146   7.554   1.451   0.661 -0.1142  0.8585  0.6728
  119MOL    H3119147   7.466   1.352   0.556 -0.3035  1.1307  0.2338
  119MOL    H3219148   7.557   1.459   0.373 -0.2244 -0.7204  0.3929
  119MOL    H3319149   7.700   1.374   0.394  0.0639 -0.2468  0.4588
  119MOL    C3419150   7.844   1.582   0.459  0.1742 -0.1560  0.3767
  119MOL    C3519151   0.064   1.482   0.541 -0.1420  0.1539  0.1384
  119MOL    C3619152   0.196   1.528   0.598 -0.6808  0.0455  0.4511
  119MOL    O3719153   0.208   1.645   0.638  0.2914 -0.2709  0.3287
  119MOL    H3819154   0.016   1.686   0.465 -1.9828  0.5324  0.1193
  119MOL    H3919155   7.838   1.555   0.354  1.7577 -1.2047  0.5432
  119MOL    H4019156   0.075   1.388   0.487  0.3673  0.8961 -1.0740
  119MOL    H4119157   0.002   1.451   0.625  0.4293  1.3093  1.0134
  119MOL    C4219158   0.307   1.428   0.575  0.0955  0.9383 -0.2199
  119MOL    C4319159   0.392   1.410   0.705  0.3069  0.0367  0.2288
  119MOL    C4419160   0.327   1.331   0.821  0.5208  0.3994  0.4807
  119MOL    O4519161   0.224   1.265   0.805  0.0340  0.2891  0.5227
  119MOL    H4619162   0.376   1.459   0.496  0.1901 -1.8272 -1.2852
  119MOL    H4719163   0.262   1.334   0.543  1.6125 -0.3087  1.1776
  119MOL    H4819164   0.416   1.508   0.746  0.3811 -0.3645  1.1718
  119MOL    H4919165   0.483   1.360   0.670 -1.0074 -1.7942 -0.6551
  119MOL    C5019166   0.392   1.348   0.957  0.7673 -0.4535  0.7648
  119MOL    C5119167   0.334   1.259   1.070 -0.9208 -0.1644  0.3010
  119MOL    C5219168   0.406   1.129   1.088  0.6723 -0.4300 -0.3906
  119MOL    O5319169   0.524   1.128   1.126  0.2037  0.5359  0.7397
  119MOL    H5419170   0.384   1.453   0.987 -0.7110  0.0683 -1.2865
  119MOL    H5519171   0.497   1.326   0.938  1.5640  1.1690  3.0976
  119MOL    H5619172   0.226   1.246   1.065 -0.9744 -0.6768  2.3331
  119MOL    H5719173   0.345   1.305   1.168 -1.1415 -0.9212  0.6897
  119MOL    C5819174   0.334   0.999   1.072 -0.4939 -0.1319 -0.1996
  119MOL    C5919175   0.423   0.878   1.130 -0.2605  0.0913 -0.2065
  119MOL    C6019176   0.348   0.784   1.230 -0.0847 -0.8477 -0.0959
  119MOL    O6119177   0.235   0.799   1.266  0.7856  0.2125  0.2690
  119MOL    H6219178   0.324   0.997   0.964 -0.8756 -2.8901 -0.1556
  119MOL    H6319179   0.233   1.004   1.115 -0.2116 -3.0884  0.9522
  119MOL    H6419180   0.510   0.914   1.185  0.9001 -0.1303 -1.8610
  119MOL    H6519181   0.461   0.819   1.047 -0.4266  1.5251 -1.3294
  119MOL    C6619182   0.427   0.664   1.287  0.4475  0.4497  0.8637
  119MOL    C6719183   0.335   0.574   1.375 -0.2921  0.8064 -0.0119
  119MOL    C6819184   0.322   0.611   1.526  0.5911  0.4881  0.6512
  119MOL    O6919185   0.382   0.706   1.580 -0.1775 -0.3782 -0.5925
  119MOL    H7019186   0.513   0.701   1.342  1.1180  0.1126  0.0343
  119MOL    H7119187   0.471   0.612   1.203  0.1814  1.0461  0.3496
  119MOL    H7219188   0.389   0.479   1.378  0.2279  1.0939 -0.1590
  119MOL    H7319189   0.235   0.567   1.333 -0.9638 -1.2668  1.8424
  119MOL    C7419190   0.230   0.521   1.608  0.5051  0.6168  0.2148
  119MOL    C7519191   0.294   0.439   1.719 -0.4432  0.1181  0.3883
  119MOL    C7619192   0.194   0.354   1.796  0.1880  0.5594  0.3872
  119MOL    O7719193   0.077   0.336   1.754 -0.2152  0.4298  0.1035
  119MOL    H7819194   0.182   0.449   1.543  0.9236 -1.1062  1.7801
  119MOL    H7919195   0.152   0.586   1.648 -1.6549  0.4850 -3.5484
  119MOL    H8019196   0.345   0.509   1.785  0.9816  0.1685 -0.7211
  119MOL    H8119197   0.368   0.368   1.682  2.5792  3.0122  0.6561
  119MOL    C8219198   0.243   0.287   1.923 -0.0891  0.5129 -0.4611
  119MOL    C8319199   0.224   0.133   1.934  0.7513 -0.2380  0.0924
  119MOL    C8419200   0.302   0.046   1.834  0.2145 -0.6173  0.2140
  119MOL    O8519201   0.401   0.087   1.783  0.0626 -0.1471  0.6507
  119MOL    H8619202   0.184   0.339   1.998 -2.8468 -2.4904 -0.4389
  119MOL    H8719203   0.347   0.315   1.938 -0.0979 -0.3444  1.3498
  119MOL    H8819204   0.124   0.096   1.914  0.8576  0.1939 -1.3222
  119MOL    H8919205   0.244   0.100   2.036  0.8997  2.2718  0.9073
  119MOL    C9019206   0.258   7.763   1.817  0.4160  0.4225 -0.3048
  119MOL    C9119207   0.376   7.672   1.824 -0.2788  0.3001 -0.5330
  119MOL    C9219208   0.429   7.654   1.967 -0.2570  0.3051 -0.8114
  119MOL    O9319209   0.372   7.698   2.061 -0.3063  0.2012 -0.3870
  119MOL    H9419210   0.217   7.760   1.717  0.0263  1.8175 -0.2003
  119MOL    H9519211   0.179   7.742   1.889  0.7677  1.6817  0.4684
  119MOL    H9619212   0.458   7.710   1.764  0.2310 -0.2101 -0.1725
  119MOL    H9719213   0.340   7.578   1.781  1.6647 -0.2769 -0.9472
  119MOL    C9819214   0.562   7.572   1.989  0.4040 -0.4804 -0.4731
  119MOL    C9919215   0.661   7.655   2.074 -0.3192 -0.0208  0.3054
  119MOL   C10019216   0.759   7.742   1.996  0.0206 -0.2951 -0.4059
  119MOL   O10119217   0.735   7.781   1.880  0.2151 -0.4587 -0.0439
  119MOL   H10219218   0.620   7.567   1.896 -0.2970 -1.5668 -0.8494
  119MOL   H10319219   0.541   7.469   2.016  1.4200 -1.1031 -2.0082
  119MOL   H10419220   0.716   7.575   2.124 -2.2807 -1.3196  0.4775
  119MOL   H10519221   0.622   7.718   2.154 -0.5070  2.0107 -1.3396
  119MOL   C10619222   0.893   7.774   2.060  0.5976  0.3049 -0.2209
  119MOL   C10719223   0.969   0.029   1.993  0.2289  0.8914 -0.1045
  119MOL   C10819224   1.073   7.836   1.897 -0.3340  0.5188  0.2727
  119MOL   O10919225   1.178   7.781   1.933 -0.3271 -0.3574  0.4358
  119MOL   H11019226   0.941   7.677   2.072 -1.8148 -0.4835  4.3203
  119MOL   H11119227   0.864   7.810   2.159 -0.2027 -1.9512  0.3923
  119MOL   H11219228   1.018   0.086   2.072  0.3500  1.1077 -0.3351
  119MOL   H11319229   0.900   0.104   1.954 -0.4840  1.3554  1.9444
  119MOL   C11419230   1.046   7.843   1.748  0.2446  0.0480  0.4292
  119MOL   C11519231   1.162   7.805   1.653  0.3615  0.1035 -0.2544
  119MOL   C11619232   1.171   0.057   1.543  0.5335  0.2082  0.7016
  119MOL   O11719233   1.186   0.177   1.572 -0.0054  0.1750  0.0574
  119MOL   H11819234   0.996   0.079   1.731 -0.4037 -0.1407  1.2362
  119MOL   H11919235   0.972   7.767   1.722 -0.4584  0.8199  0.1736
  119MOL   H12019236   1.141   7.708   1.607  0.3026 -0.6088  1.2539
  119MOL   H12119237   1.259   7.792   1.701  0.6881  1.2402 -0.5887
  119MOL   C12219238   1.169   0.000   1.401  0.1270  0.9699 -0.3979
  119MOL   C12319239   1.228   0.094   1.290 -0.7403  0.6575  0.7508
  119MOL   C12419240   1.162   0.087   1.153 -0.0337 -0.7167 -0.1924
  119MOL   O12519241   1.061   0.018   1.141 -0.2466  0.2061 -0.0497
  119MOL   H12619242   1.065   7.843   1.375  0.8818 -2.2573 -1.6364
  119MOL   H12719243   1.201   7.755   1.409 -2.2227  0.3271  1.0207
  119MOL   H12819244   1.335   0.080   1.277 -1.1616 -0.4707 -1.7563
  119MOL   H12919245   1.224   0.198   1.324 -2.3330  0.9293 -0.1978
  119MOL   C13019246   1.211   0.178   1.040  0.4290 -0.4233 -0.4123
  119MOL   C13119247   1.103   0.207   0.941 -0.2248 -0.5230  0.6124
  119MOL   C13219248   1.116   0.130   0.812 -0.2061  0.0199  0.5019
  119MOL   O13319249   1.199   0.168   0.731 -0.7827 -0.0902 -0.2170
  119MOL   H13419250   1.306   0.146   0.999  0.4195 -0.0214 -0.7459
  119MOL   H13519251   1.242   0.271   1.087 -2.3407 -0.2109  1.0959
  119MOL   H13619252   1.111   0.307   0.900 -0.4053 -0.6700  0.2115
  119MOL   H13719253   1.001   0.199   0.977 -0.2726 -0.9892  0.3759
  119MOL   C13819254   1.004   0.030   0.779 -0.0926 -0.1643 -0.0863
  119MOL   C13919255   1.030   7.825   0.641  0.4645  0.7062 -0.0212
  119MOL   C14019256   1.117   7.698   0.652 -0.2049  0.2144  0.0111
  119MOL   O14119257   1.172   7.664   0.759 -0.0217  0.0934  0.3311
  119MOL   H14219258   0.911   0.087   0.776 -0.3218 -0.4098  1.9737
  119MOL   H14319259   0.986   7.812   0.853 -2.3785  0.1169 -0.3008
  119MOL   H14419260   1.084   0.030   0.572  3.0650 -0.6126  0.7173
  119MOL   H14519261   0.936   7.802   0.591 -1.2001  1.2963  2.7375
  119MOL   C14619262   1.120   7.603   0.523  0.4073 -0.9499 -0.0913
  119MOL   C14719263   1.209   7.481   0.545 -0.5125  0.2060  0.0620
  119MOL   C14819264   1.301   7.464   0.431  0.1700  0.1041 -0.3245
  119MOL   O14919265   1.256   7.440   0.321  0.1093  0.8917 -0.1216
  119MOL   H15019266   1.133   7.654   0.427 -1.6390 -0.0061  0.1099
  119MOL   H15119267   1.020   7.562   0.515  0.2592 -0.6748  0.3680
  119MOL   H15219268   1.161   7.387   0.573  0.8870 -0.2898  0.7929
  119MOL   H15319269   1.279   7.507   0.625 -0.1184  1.1138 -0.5666
  119MOL   C15419270   1.446   7.493   0.447  0.6216 -0.3194  0.2032
  119MOL   C15519271   1.527   7.527   0.316 -0.6157 -0.2010  0.7462
  119MOL   C15619272   1.623   7.414   0.274  0.0600 -0.4334  0.5373
  119MOL   O15719273   1.701   7.354   0.354  0.3856 -0.0375  0.2075
  119MOL   H15819274   1.494   7.413   0.505  1.2670  0.5854  0.9330
  119MOL   H15919275   1.448   7.579   0.514 -0.4643 -0.2985  0.2103
  119MOL   H16019276   1.598   7.607   0.339  0.9785 -0.6897 -2.2193
  119MOL   H16119277   1.480   7.564   0.225  1.2575 -1.2083 -0.6678
  119MOL   H16219278   1.628   7.400   0.166  1.8559  0.0856  0.5289
  120MOL     C119279   6.607   6.747   6.907 -0.6869 -0.2730 -0.1032
  120MOL     C219280   6.708   6.739   6.792 -0.5715  0.1436  0.4446
  120MOL     C319281   6.663   6.830   6.678 -0.1560  0.6340 -0.6165
  120MOL     O419282   6.586   6.925   6.689 -0.0560  0.1619 -0.3445
  120MOL     H519283   6.526   6.675   6.896 -1.2858  0.4652 -0.5752
  120MOL     H619284   6.646   6.716   7.004  1.3744 -1.0569 -1.1593
  120MOL     H719285   6.727   6.637   6.757 -1.1457  0.2796 -0.2770
  120MOL     H819286   6.801   6.788   6.821  0.6960 -1.4827 -0.7812
  120MOL     H919287   6.569   6.848   6.921  0.7308  0.3483 -0.6891
  120MOL    C1019288   6.732   6.808   6.542 -0.0610  0.5568 -0.0540
  120MOL    C1119289   6.734   6.937   6.466 -0.8618  0.2728  0.2419
  120MOL    C1219290   6.848   6.940   6.365  0.2610 -0.3074  0.0290
  120MOL    O1319291   6.866   6.852   6.280 -0.6509 -0.4306 -0.6168
  120MOL    H1419292   6.678   6.735   6.482 -1.2717 -1.0664  2.8951
  120MOL    H1519293   6.833   6.777   6.569 -0.4093 -0.6087 -0.0873
  120MOL    H1619294   6.757   7.023   6.530 -3.0614  1.9311 -1.1169
  120MOL    H1719295   6.639   6.948   6.414 -0.0177 -1.3152 -1.6792
  120MOL    C1819296   6.950   7.053   6.380 -0.2809 -0.2906  0.4421
  120MOL    C1919297   6.956   7.150   6.259  0.5233 -0.6486  0.2198
  120MOL    C2019298   7.062   7.248   6.256 -0.2417 -0.3420  0.0405
  120MOL    O2119299   7.105   7.291   6.364 -0.2270  1.0134 -0.1848
  120MOL    H2219300   7.046   7.003   6.392  0.0080 -0.3812 -1.9189
  120MOL    H2319301   6.943   7.112   6.471  2.2068  0.3673  0.2405
  120MOL    H2419302   6.857   7.197   6.260  1.0003  0.3981 -0.5065
  120MOL    H2519303   6.949   7.101   6.162  3.1821 -2.6548  0.9899
  120MOL    C2619304   7.115   7.290   6.117 -0.1601  0.6401  0.0566
  120MOL    C2719305   7.042   7.411   6.068  0.5791 -0.3752 -1.1085
  120MOL    C2819306   6.957   7.384   5.946  0.4586 -0.2188 -0.0428
  120MOL    O2919307   6.903   7.284   5.914 -0.4221  0.2059  0.7993
  120MOL    H3019308   7.127   7.201   6.056  0.9011  0.9773 -0.2222
  120MOL    H3119309   7.217   7.321   6.140 -0.3014  0.0539  1.5794
  120MOL    H3219310   7.112   7.493   6.050 -0.3166  0.1999 -2.0515
  120MOL    H3319311   6.982   7.457   6.147  3.7346  2.2773 -0.1483
  120MOL    C3419312   6.945   7.498   5.846  0.5273  0.0625 -0.2634
  120MOL    C3519313   6.874   7.456   5.713  0.1773 -0.0084  0.0219
  120MOL    C3619314   6.891   7.554   5.604  0.2931 -0.5583 -0.6010
  120MOL    O3719315   6.947   7.658   5.624 -0.0565 -0.3483 -0.1365
  120MOL    H3819316   7.040   7.542   5.817 -1.0282  3.0526 -1.0977
  120MOL    H3919317   6.881   7.571   5.897  1.3189 -0.5650  1.6730
  120MOL    H4019318   6.765   7.453   5.710  0.1724  0.9241 -1.1215
  120MOL    H4119319   6.916   7.360   5.684  0.7274  0.3385 -0.3382
  120MOL    C4219320   6.831   7.528   5.471 -0.4523 -0.0806  0.1706
  120MOL    C4319321   6.936   7.521   5.361  0.3678 -0.3122  0.2955
  120MOL    C4419322   6.883   7.485   5.224 -0.6184  0.0367  0.3254
  120MOL    O4519323   6.770   7.438   5.213  0.7069 -0.2946 -0.0359
  120MOL    H4619324   6.765   7.610   5.441  1.6175  1.7065  0.3847
  120MOL    H4719325   6.775   7.435   5.474 -1.8258  0.7331  0.4340
  120MOL    H4819326   7.013   7.450   5.390 -1.3423 -2.6552 -0.7663
  120MOL    H4919327   6.994   7.613   5.352  0.7647 -0.6939 -1.3157
  120MOL    C5019328   6.970   7.501   5.101  0.0545  0.0087 -0.7506
  120MOL    C5119329   6.889   7.534   4.966  0.8541 -0.0543 -0.4318
  120MOL    C5219330   6.817   7.669   4.959 -0.1648  0.4699 -0.0932
  120MOL    O5319331   6.797   7.740   5.061 -0.3854 -0.2112  0.1008
  120MOL    H5419332   7.007   7.398   5.094  0.0734 -0.0715  0.4416
  120MOL    H5519333   7.050   7.571   5.124  0.8354 -0.9093 -0.6224
  120MOL    H5619334   6.807   7.464   4.951 -0.3346  1.3476 -0.6110
  120MOL    H5719335   6.949   7.531   4.875  0.0530 -0.3845 -0.9550
  120MOL    C5819336   6.763   7.724   4.830  1.0928  0.2775 -0.2556
  120MOL    C5919337   6.840   7.845   4.785  1.0454 -0.3393  0.5733
  120MOL    C6019338   6.958   7.820   4.692 -0.8381  0.4822  1.0466
  120MOL    O6119339   7.006   7.713   4.659 -0.0612  0.1263 -0.3754
  120MOL    H6219340   6.657   7.744   4.844  0.8233 -0.8139 -0.6628
  120MOL    H6319341   6.778   7.640   4.762  1.1734  1.3926 -1.6261
  120MOL    H6419342   6.875   0.048   4.867 -0.5753  1.7133 -0.2258
  120MOL    H6519343   6.773   0.055   4.734  0.0572 -1.2155  0.6633
  120MOL    C6619344   7.032   0.087   4.646 -0.7664  0.0697  0.0763
  120MOL    C6719345   7.131   0.145   4.743 -0.5229  0.4904 -0.2131
  120MOL    C6819346   7.183   0.282   4.690 -0.0480 -0.2121 -0.1357
  120MOL    O6919347   7.106   0.375   4.674 -0.3930 -0.3396  0.2023
  120MOL    H7019348   6.962   0.165   4.616 -1.3798 -0.4505  0.1500
  120MOL    H7119349   7.086   0.056   4.556 -1.3728 -0.8226  0.0225
  120MOL    H7219350   7.220   0.083   4.748 -1.3492 -0.7941 -1.0358
  120MOL    H7319351   7.090   0.160   4.843  1.2455  0.8200  0.4778
  120MOL    C7419352   7.333   0.288   4.645  0.6753  1.1037  0.8332
  120MOL    C7519353   7.376   0.437   4.634 -0.8964 -0.1791 -0.0071
  120MOL    C7619354   7.423   0.490   4.767  0.0049 -0.3215  0.3211
  120MOL    O7719355   7.523   0.441   4.810 -0.8053 -0.2335 -0.0674
  120MOL    H7819356   7.364   0.240   4.553 -0.0776  1.5630  0.3424
  120MOL    H7919357   7.395   0.240   4.721  0.1473  1.0421  1.2341
  120MOL    H8019358   7.292   0.493   4.593 -2.5612 -1.4630  1.5726
  120MOL    H8119359   7.463   0.439   4.568 -2.4613 -2.4129 -2.2182
  120MOL    C8219360   7.334   0.593   4.838 -0.4166  0.1695 -0.4407
  120MOL    C8319361   7.396   0.633   4.965  0.1925 -0.1908 -0.4225
  120MOL    C8419362   7.330   0.751   5.034  0.1842  0.3245 -0.0499
  120MOL    O8519363   7.219   0.796   5.000 -0.0109  0.4281  0.2411
  120MOL    H8619364   7.231   0.562   4.858 -0.0448 -0.7668  0.0382
  120MOL    H8719365   7.335   0.685   4.779  0.3293  0.3053 -0.2261
  120MOL    H8819366   7.502   0.653   4.955  0.2128  0.1696  0.4324
  120MOL    H8919367   7.387   0.546   5.030  1.8723 -0.9156 -1.1231
  120MOL    C9019368   7.399   0.801   5.155  0.1462  0.1320 -0.6771
  120MOL    C9119369   7.299   0.815   5.271  0.2335  0.5555 -0.3913
  120MOL    C9219370   7.335   0.906   5.382 -0.3410 -0.5327  0.3511
  120MOL    O9319371   7.450   0.958   5.388 -0.2885  0.0813 -0.1284
  120MOL    H9419372   7.443   0.898   5.134  1.0190  0.0220  0.5608
  120MOL    H9519373   7.480   0.736   5.188 -2.3671 -1.5248  2.5194
  120MOL    H9619374   7.282   0.712   5.303  0.2869  0.2491 -1.3308
  120MOL    H9719375   7.197   0.844   5.243  0.4433  0.5361 -1.1837
  120MOL    C9819376   7.229   0.926   5.482 -0.9074 -0.1418  0.0729
  120MOL    C9919377   7.253   1.035   5.586 -0.0018 -0.9114 -0.5771
  120MOL   C10019378   7.134   1.109   5.625 -0.0184  0.7374 -0.4520
  120MOL   O10119379   7.102   1.212   5.568  0.0546 -0.1271 -0.6280
  120MOL   H10219380   7.210   0.827   5.524 -0.9881 -0.0391  0.2796
  120MOL   H10319381   7.143   0.952   5.422 -1.0415  1.3004  0.8834
  120MOL   H10419382   7.314   1.115   5.545 -2.3446  0.8632 -0.7303
  120MOL   H10519383   7.295   1.000   5.680 -1.0258 -2.4695 -0.6700
  120MOL   C10619384   7.054   1.061   5.746  0.1989 -0.6283  0.4053
  120MOL   C10719385   7.021   0.918   5.753  0.3252 -0.5831  0.5834
  120MOL   C10819386   6.920   0.873   5.857  0.2052  0.1522 -0.4322
  120MOL   O10919387   6.931   0.898   5.975 -0.1366 -0.0974  0.0031
  120MOL   H11019388   6.966   1.125   5.747  0.6306 -0.0130 -0.4028
  120MOL   H11119389   7.111   1.089   5.834  0.8386 -5.1666  1.5876
  120MOL   H11219390   7.107   0.852   5.755 -0.1434 -1.2035  0.2864
  120MOL   H11319391   6.984   0.893   5.654  2.0133  1.0696 -0.4998
  120MOL   C11419392   6.801   0.802   5.802 -0.3646 -1.0006  0.3281
  120MOL   C11519393   6.684   0.790   5.912  0.5238  0.4187 -0.2314
  120MOL   C11619394   6.713   0.681   6.014  0.5957  0.5679 -0.4754
  120MOL   O11719395   6.780   0.585   5.988  0.1288 -0.0544  0.1068
  120MOL   H11819396   6.834   0.712   5.751 -2.2873 -1.1807 -0.6325
  120MOL   H11919397   6.773   0.870   5.722  2.4448  0.1401  0.2448
  120MOL   H12019398   6.593   0.778   5.853  2.4388 -0.4502 -3.1463
  120MOL   H12119399   6.667   0.889   5.955  0.6806 -0.3054  1.5502
  120MOL   C12219400   6.657   0.701   6.157 -0.0178  0.3826  0.1846
  120MOL   C12319401   6.724   0.607   6.260  0.3436  1.0422 -0.1008
  120MOL   C12419402   6.651   0.472   6.261  0.3748 -0.3636 -0.4351
  120MOL   O12519403   6.526   0.466   6.268  0.0763 -0.0051 -0.0078
  120MOL   H12619404   6.550   0.681   6.149  0.6782 -3.6950 -0.1950
  120MOL   H12719405   6.659   0.808   6.178 -2.2832  0.2761  1.1584
  120MOL   H12819406   6.720   0.646   6.362  2.0497  1.3822 -0.1393
  120MOL   H12919407   6.827   0.587   6.230 -0.1795 -1.3580 -0.3702
  120MOL   C13019408   6.737   0.349   6.226 -0.2093 -0.4079 -0.1078
  120MOL   C13119409   6.674   0.225   6.295 -0.1467  0.2866 -0.3833
  120MOL   C13219410   6.774   0.109   6.296 -0.2470 -0.0335 -0.9669
  120MOL   O13319411   6.893   0.128   6.320 -0.7524  0.4504  0.0194
  120MOL   H13419412   6.837   0.368   6.264  0.1333  2.7502 -2.3820
  120MOL   H13519413   6.749   0.335   6.119  0.4829 -0.2973 -0.0444
  120MOL   H13619414   6.585   0.201   6.237 -1.4584  0.6078  1.4523
  120MOL   H13719415   6.645   0.236   6.399 -1.0640  0.6758 -0.6677
  120MOL   C13819416   6.719   7.826   6.262  0.3018 -0.0129 -0.3005
  120MOL   C13919417   6.671   7.805   6.116 -0.0667 -0.0129  0.1951
  120MOL   C14019418   6.671   7.659   6.066  0.3792 -0.3007  0.8226
  120MOL   O14119419   6.730   7.576   6.135 -0.3787  0.6539 -0.5790
  120MOL   H14219420   6.640   7.813   6.336  0.3699  1.8501  0.1306
  120MOL   H14319421   6.799   7.756   6.284 -0.2486 -0.3739  0.5932
  120MOL   H14419422   6.742   0.000   6.053 -1.0334 -0.2090 -1.0902
  120MOL   H14519423   6.573   7.851   6.102  0.0843 -0.3580 -2.2798
  120MOL   C14619424   6.596   7.625   5.940  0.3800 -0.1430  0.0121
  120MOL   C14719425   6.547   7.481   5.929  0.2048 -0.4488  0.4674
  120MOL   C14819426   6.446   7.476   5.821 -0.3767  0.0325 -0.2343
  120MOL   O14919427   6.462   7.544   5.718 -0.5441 -0.5114  0.3504
  120MOL   H15019428   6.663   7.659   5.861  0.5354 -0.8774 -0.1700
  120MOL   H15119429   6.511   7.693   5.933  0.8125  0.1619 -3.0425
  120MOL   H15219430   6.497   7.458   6.022  0.4691  0.6624  0.8927
  120MOL   H15319431   6.627   7.410   5.907  0.8878  0.9876 -1.8681
  120MOL   C15419432   6.329   7.384   5.840 -0.9358 -0.2832 -0.0873
  120MOL   C15519433   6.212   7.420   5.750 -0.0221  0.6297  0.5376
  120MOL   C15619434   6.214   7.363   5.607  0.2022 -0.5283 -0.2280
  120MOL   O15719435   6.227   7.241   5.600 -0.2290 -0.8336 -0.1333
  120MOL   H15819436   6.301   7.374   5.945  1.9764 -1.2647  0.6357
  120MOL   H15919437   6.356   7.282   5.812 -0.4402 -0.4279  0.8912
  120MOL   H16019438   6.209   7.527   5.731 -0.0614  0.7436  1.1878
  120MOL   H16119439   6.116   7.392   5.793 -0.0503 -1.5114 -0.8321
  120MOL   H16219440   6.200   7.436   5.527 -0.0116  0.8646  1.0376
  121MOL     C119441   4.996   7.737   7.499  0.2400  0.0971 -0.8543
  121MOL     C219442   5.134   7.804   7.532 -0.1680 -0.0018 -0.2048
  121MOL     C319443   5.205   7.858   7.406 -0.1054  0.0243  0.4316
  121MOL     O419444   5.152   0.004   7.295 -0.2860 -0.0330  0.3251
  121MOL     H519445   4.935   7.716   7.587 -1.4199 -2.6252 -2.5861
  121MOL     H619446   4.936   7.804   7.438 -0.6503  0.8465  0.7911
  121MOL     H719447   5.207   7.741   7.584  0.9419 -0.9095 -2.7763
  121MOL     H819448   5.112   0.037   7.587  0.7133  0.7939 -1.1467
  121MOL     H919449   4.999   7.638   7.453 -1.1959 -0.5494  0.3912
  121MOL    C1019450   5.357   0.005   7.420 -0.5948 -0.0591 -0.2613
  121MOL    C1119451   5.404   0.108   7.320  0.0568  0.1501  0.4407
  121MOL    C1219452   5.516   0.202   7.376 -0.0095 -0.4575  1.0289
  121MOL    O1319453   5.592   0.164   7.463  0.3195 -0.4040  0.0403
  121MOL    H1419454   5.392   7.762   7.407  2.8511  0.8469  1.3365
  121MOL    H1519455   5.382   0.047   7.518  1.2551 -2.3772  0.2950
  121MOL    H1619456   5.321   0.173   7.293  1.0922  1.1654 -0.3492
  121MOL    H1719457   5.432   0.067   7.223 -1.1415  1.2055 -0.3711
  121MOL    C1819458   5.534   0.340   7.315 -0.9133 -0.6190 -0.0063
  121MOL    C1919459   5.675   0.397   7.316 -0.7654 -0.1215 -0.0231
  121MOL    C2019460   5.765   0.339   7.206  0.0908  0.0263  0.3171
  121MOL    O2119461   5.745   0.229   7.155 -0.5578 -0.3071 -0.7989
  121MOL    H2219462   5.464   0.408   7.364 -0.0527  1.4077 -1.5204
  121MOL    H2319463   5.499   0.329   7.212 -0.4404  0.3230 -0.2769
  121MOL    H2419464   5.716   0.388   7.416 -2.8139 -0.9669  0.7901
  121MOL    H2519465   5.665   0.505   7.311 -1.7740 -0.1849  0.3271
  121MOL    C2619466   5.874   0.426   7.160  0.1903  0.3469  0.1258
  121MOL    C2719467   5.952   0.356   7.051 -0.3534 -0.0150 -0.3694
  121MOL    C2819468   5.907   0.409   6.918 -1.2324  0.5832  0.3031
  121MOL    O2919469   5.888   0.330   6.824  0.1228  0.2679 -0.5650
  121MOL    H3019470   5.940   0.437   7.247  0.4066  0.0244  0.0046
  121MOL    H3119471   5.836   0.523   7.130 -0.7257 -0.2546 -0.6655
  121MOL    H3219472   5.957   0.247   7.045  0.9232 -0.0965  1.8728
  121MOL    H3319473   6.057   0.379   7.070 -0.5044 -0.2428  0.7566
  121MOL    C3419474   5.912   0.559   6.907 -0.2678 -0.0123  0.9139
  121MOL    C3519475   5.881   0.612   6.766 -0.4253  0.1229 -0.3402
  121MOL    C3619476   5.733   0.645   6.739  0.0316  0.1338 -0.3998
  121MOL    O3719477   5.643   0.588   6.799 -0.6317  0.4865 -0.3736
  121MOL    H3819478   6.017   0.584   6.924  0.2687  0.5419 -2.6174
  121MOL    H3919479   5.844   0.615   6.970  1.8695  2.1828  1.3478
  121MOL    H4019480   5.916   0.542   6.690 -0.2175  1.6946 -1.7077
  121MOL    H4119481   5.941   0.702   6.754 -1.8696  1.2180  0.4195
  121MOL    C4219482   5.704   0.767   6.644 -0.2771 -0.2479  0.2981
  121MOL    C4319483   5.550   0.777   6.592 -0.3671 -0.9804 -0.7208
  121MOL    C4419484   5.488   0.912   6.630 -0.6068 -0.2689 -0.1764
  121MOL    O4519485   5.547   0.999   6.689 -0.3792  0.4507  0.0743
  121MOL    H4619486   5.775   0.763   6.562 -1.0077  0.8445 -0.3906
  121MOL    H4719487   5.733   0.853   6.705  1.8749  0.2038 -1.3280
  121MOL    H4819488   5.486   0.698   6.632 -2.5846  1.7950  1.3408
  121MOL    H4919489   5.546   0.769   6.483  0.3124 -2.1135 -0.6808
  121MOL    C5019490   5.341   0.929   6.577 -0.4271 -0.5106  0.2490
  121MOL    C5119491   5.315   1.063   6.517  0.3203  0.0684  0.5840
  121MOL    C5219492   5.313   1.069   6.366 -0.6005 -0.0693 -0.0587
  121MOL    O5319493   5.311   0.960   6.304 -0.2333 -0.1869 -0.2733
  121MOL    H5419494   5.282   0.911   6.667 -1.7655 -1.8391 -0.8620
  121MOL    H5519495   5.322   0.856   6.498  0.4550  1.0769 -1.4672
  121MOL    H5619496   5.393   1.132   6.550  0.6184 -1.1711  2.5718
  121MOL    H5719497   5.220   1.106   6.549  0.8739  2.5616 -0.9693
  121MOL    C5819498   5.325   1.210   6.298 -0.3726 -0.4196 -0.0923
  121MOL    C5919499   5.328   1.212   6.147  0.4148 -0.1126  0.2736
  121MOL    C6019500   5.364   1.351   6.094 -0.2529  0.4987 -0.1764
  121MOL    O6119501   5.394   1.449   6.162 -0.3891  0.3721 -0.0782
  121MOL    H6219502   5.404   1.274   6.337  0.3193 -0.2723 -1.6653
  121MOL    H6319503   5.233   1.257   6.332 -1.1580 -2.1236  0.1826
  121MOL    H6419504   5.235   1.181   6.099 -0.2243  0.9736  0.8164
  121MOL    H6519505   5.415   1.150   6.123  0.3696 -0.5014  1.0886
  121MOL    C6619506   5.375   1.361   5.947  0.3225 -0.5091  0.6290
  121MOL    C6719507   5.451   1.479   5.886 -0.1540 -0.7429  0.0506
  121MOL    C6819508   5.599   1.473   5.888 -0.2463  0.2158  0.4666
  121MOL    O6919509   5.660   1.362   5.897  0.0727  0.0774 -0.3231
  121MOL    H7019510   5.273   1.383   5.914  1.1298  2.1762 -0.2109
  121MOL    H7119511   5.406   1.263   5.910 -2.4016 -1.6263  1.1939
  121MOL    H7219512   5.427   1.571   5.939  0.7699 -0.5444  0.1304
  121MOL    H7319513   5.418   1.510   5.787  1.8263  0.7551 -0.1767
  121MOL    C7419514   5.662   1.607   5.877  0.3683 -0.4930 -0.3221
  121MOL    C7519515   5.816   1.605   5.866  0.7532  1.0136  0.0110
  121MOL    C7619516   5.859   1.725   5.785  0.0653  0.9866  0.0126
  121MOL    O7719517   5.889   1.713   5.666  0.4911  0.0605 -0.2507
  121MOL    H7819518   5.635   1.663   5.967 -2.2665 -0.1554 -1.2831
  121MOL    H7919519   5.615   1.663   5.796  1.3536  0.8193 -0.0000
  121MOL    H8019520   5.842   1.519   5.804 -0.3205  1.4057 -1.0024
  121MOL    H8119521   5.863   1.604   5.965  1.2040  0.4888 -0.2054
  121MOL    C8219522   5.864   1.860   5.849  0.1148 -0.3434  0.9401
  121MOL    C8319523   5.881   1.983   5.754  0.9142 -0.1907 -0.2270
  121MOL    C8419524   5.802   2.102   5.807  0.2058  0.1133  0.7343
  121MOL    O8519525   5.701   2.085   5.870  0.3417  0.6153  0.1626
  121MOL    H8619526   5.962   1.862   5.896  1.1623 -1.4236 -1.1278
  121MOL    H8719527   5.780   1.876   5.918 -0.2549  2.1214 -0.0210
  121MOL    H8819528   5.856   1.964   5.650  1.0215 -1.7901  0.0235
  121MOL    H8919529   5.988   2.002   5.766  0.7170  0.8349 -0.0338
  121MOL    C9019530   5.855   2.243   5.797  0.6399  0.0174  0.1474
  121MOL    C9119531   5.774   2.345   5.878 -0.4640 -0.6893  0.0722
  121MOL    C9219532   5.774   2.475   5.799 -0.5276  0.0805 -0.6683
  121MOL    O9319533   5.881   2.526   5.769  0.3028 -0.1155  0.4353
  121MOL    H9419534   5.847   2.264   5.690  0.3843  0.0275  0.1684
  121MOL    H9519535   5.957   2.262   5.829  1.4637 -3.0199 -0.5118
  121MOL    H9619536   5.819   2.358   5.977  1.2786  1.5046 -0.9708
  121MOL    H9719537   5.669   2.317   5.886 -0.3416 -1.8451 -1.9598
  121MOL    C9819538   5.647   2.552   5.768 -0.5319  0.3975 -0.4811
  121MOL    C9919539   5.607   2.560   5.618 -0.0311 -0.1086 -0.8351
  121MOL   C10019540   5.528   2.436   5.571  0.0900 -0.3967 -0.4954
  121MOL   O10119541   5.568   2.323   5.599  0.7906  0.8661 -0.0099
  121MOL   H10219542   5.658   2.655   5.804 -0.9770 -0.2770  1.6570
  121MOL   H10319543   5.567   2.516   5.832  1.6512  1.2220  2.8800
  121MOL   H10419544   5.699   2.561   5.559 -1.5361  0.9250 -3.2726
  121MOL   H10519545   5.557   2.650   5.581 -1.0099 -0.7659 -1.1271
  121MOL   C10619546   5.392   2.463   5.505  0.2116 -0.5361  0.4680
  121MOL   C10719547   5.346   2.356   5.408 -0.1565  0.1183  0.2702
  121MOL   C10819548   5.453   2.320   5.305  0.1103 -0.0150  0.1277
  121MOL   O10919549   5.552   2.391   5.284 -0.1901 -0.3955 -0.4779
  121MOL   H11019550   5.389   2.559   5.453  0.3641 -1.7490 -1.8241
  121MOL   H11119551   5.316   2.460   5.583  1.6093 -1.2361  1.8253
  121MOL   H11219552   5.268   2.402   5.347  0.6929 -0.0860 -0.9900
  121MOL   H11319553   5.296   2.276   5.461 -0.2862  0.1980  0.2694
  121MOL   C11419554   5.422   2.190   5.227  0.3335  0.7093 -0.5872
  121MOL   C11519555   5.532   2.141   5.127 -0.0427 -0.3295 -0.3543
  121MOL   C11619556   5.489   2.038   5.023 -0.5358  0.1291  0.9189
  121MOL   O11719557   5.374   2.037   4.987  0.1997 -0.3144  0.1190
  121MOL   H11819558   5.333   2.211   5.168 -0.2417 -1.5810 -0.6009
  121MOL   H11919559   5.393   2.112   5.297  0.7881  0.5885 -0.5318
  121MOL   H12019560   5.611   2.089   5.182  0.1531 -1.2355 -1.4963
  121MOL   H12119561   5.574   2.232   5.083  0.7551 -0.6164 -0.1984
  121MOL   C12219562   5.601   1.963   4.947  0.0764 -0.3327 -0.3900
  121MOL   C12319563   5.566   1.827   4.891 -0.0389 -0.0373 -0.0017
  121MOL   C12419564   5.471   1.835   4.773 -0.3334 -0.1701  0.8163
  121MOL   O12519565   5.505   1.889   4.662  0.2173  0.2840 -0.2892
  121MOL   H12619566   5.694   1.954   5.004  1.2677  1.2055 -2.0706
  121MOL   H12719567   5.630   2.020   4.859  0.5975 -2.6954 -1.7960
  121MOL   H12819568   5.522   1.757   4.963 -0.3138 -0.4024 -0.5241
  121MOL   H12919569   5.655   1.783   4.847  0.5382  0.6321  0.4950
  121MOL   C13019570   5.342   1.758   4.778 -0.1115 -0.2124  0.1113
  121MOL   C13119571   5.237   1.809   4.669  0.5178  0.3415 -0.5010
  121MOL   C13219572   5.157   1.932   4.726 -0.2409  0.2589 -0.0780
  121MOL   O13319573   5.050   1.912   4.782  0.3438 -0.0651 -0.1771
  121MOL   H13419574   5.303   1.773   4.878  1.0897  0.4558  0.4834
  121MOL   H13519575   5.359   1.650   4.771  0.0475 -0.1349 -0.7700
  121MOL   H13619576   5.156   1.740   4.642  1.0426  0.1302 -1.5577
  121MOL   H13719577   5.289   1.838   4.578  1.0845 -0.4386 -0.4325
  121MOL   C13819578   5.208   2.070   4.695 -0.2481  0.0146  0.4972
  121MOL   C13919579   5.105   2.179   4.732 -0.4239 -1.2174  0.1664
  121MOL   C14019580   5.167   2.314   4.756 -0.0876 -0.8539 -0.1511
  121MOL   O14119581   5.158   2.397   4.669  0.3350 -0.4175  0.1579
  121MOL   H14219582   5.215   2.082   4.587 -0.1667 -0.5101  0.4477
  121MOL   H14319583   5.300   2.087   4.750 -0.4866  1.5370  0.4574
  121MOL   H14419584   5.048   2.155   4.822  0.4608  1.5017  1.5108
  121MOL   H14519585   5.027   2.185   4.656 -0.9490  1.5826  0.8631
  121MOL   C14619586   5.224   2.355   4.891  0.3436  1.2582  0.4117
  121MOL   C14719587   5.113   2.368   5.003  0.3293  0.2471  0.0502
  121MOL   C14819588   5.128   2.480   5.104  0.6623 -0.1076  0.1235
  121MOL   O14919589   5.235   2.517   5.157 -0.6608 -0.0744  0.3564
  121MOL   H15019590   5.263   2.456   4.876  1.0228  0.9118 -0.1965
  121MOL   H15119591   5.308   2.287   4.904 -0.3426  0.3001 -0.1180
  121MOL   H15219592   5.107   2.273   5.056 -1.6690  0.5329  0.3734
  121MOL   H15319593   5.018   2.392   4.954  1.6949  1.3215 -2.1237
  121MOL   C15419594   5.002   2.560   5.137  0.5803  0.9602  0.0675
  121MOL   C15519595   5.031   2.689   5.216 -0.2995 -0.0326 -0.2675
  121MOL   C15619596   4.978   2.698   5.355  0.8356 -0.4457  0.1926
  121MOL   O15719597   4.859   2.684   5.382  0.9235  0.3419 -0.0114
  121MOL   H15819598   4.924   2.504   5.188  0.2204 -0.0331 -1.5428
  121MOL   H15919599   4.968   2.582   5.035  0.1641 -0.5856 -0.1267
  121MOL   H16019600   4.971   2.766   5.167  0.8027 -0.0120 -1.6207
  121MOL   H16119601   5.137   2.715   5.215  0.2094 -1.9905  0.6934
  121MOL   H16219602   5.052   2.731   5.429 -0.8518  2.8541  0.5036
  122MOL     C119603   2.324   2.148   7.414  0.2387  0.5944  0.1070
  122MOL     C219604   2.212   2.162   7.524 -0.0935  0.1952  0.1885
  122MOL     C319605   2.196   2.300   7.558  0.2285  0.6257 -0.0685
  122MOL     O419606   2.120   2.371   7.491  0.2399 -0.7631  0.2046
  122MOL     H519607   2.361   2.231   7.353 -0.3133  0.5300 -0.3163
  122MOL     H619608   2.409   2.096   7.459 -0.5204 -0.8895 -0.1519
  122MOL     H719609   2.241   2.094   7.604 -2.9334 -1.1076  0.1965
  122MOL     H819610   2.119   2.119   7.484 -0.1185  0.8777 -0.5056
  122MOL     H919611   2.303   2.077   7.335  1.0784  0.7344 -0.2522
  122MOL    C1019612   2.282   2.352   7.671  0.1751  0.5239 -0.2236
  122MOL    C1119613   2.256   2.498   7.706  0.0380  0.6585  0.5169
  122MOL    C1219614   2.355   2.595   7.644  1.4161 -0.0853  0.0643
  122MOL    O1319615   2.420   2.552   7.550  0.5586 -0.3598  0.0116
  122MOL    H1419616   2.387   2.337   7.647 -0.1695  0.3345 -1.6886
  122MOL    H1519617   2.262   2.296   7.762  1.1700 -0.4588 -0.5930
  122MOL    H1619618   2.263   2.511   7.814  1.0931  1.1528  0.4022
  122MOL    H1719619   2.162   2.541   7.669  0.2914  1.1644  0.4474
  122MOL    C1819620   2.381   2.730   7.709 -0.4095 -0.5683  0.2241
  122MOL    C1919621   2.525   2.783   7.668 -0.0989 -0.5479  0.3121
  122MOL    C2019622   2.597   2.864   7.773 -0.0491 -0.2907  0.2872
  122MOL    O2119623   2.578   2.855   0.033 -0.2331  0.0184  0.1579
  122MOL    H2219624   2.378   2.731   7.818  0.7305  1.9335  0.2791
  122MOL    H2319625   2.299   2.791   7.671 -1.0723 -1.6656 -0.1193
  122MOL    H2419626   2.524   2.837   7.573 -0.4021 -4.2142 -1.8486
  122MOL    H2519627   2.587   2.698   7.641  0.9882  0.9189 -1.9536
  122MOL    C2619628   2.686   2.975   7.713  0.4406  0.3382 -0.0260
  122MOL    C2719629   2.805   3.011   7.800 -0.7647  0.0509 -0.5126
  122MOL    C2819630   2.785   3.132   0.040 -0.5281 -0.0246 -0.0246
  122MOL    O2919631   2.783   3.247   7.858  0.5334 -0.1841  0.0077
  122MOL    H3019632   2.621   3.060   7.693  3.0102  2.3835  0.0695
  122MOL    H3119633   2.735   2.938   7.623  0.8194 -0.2891  0.4329
  122MOL    H3219634   2.882   3.038   7.728 -1.0672  2.0491 -0.1069
  122MOL    H3319635   2.849   2.928   7.855  0.1261  0.5606 -0.4515
  122MOL    C3419636   2.783   3.090   0.188 -0.5698  0.1214 -0.6980
  122MOL    C3519637   2.641   3.091   0.235 -0.0519  0.0488  0.0798
  122MOL    C3619638   2.606   3.205   0.324 -0.7024 -0.3256 -0.0184
  122MOL    O3719639   2.640   3.325   0.296 -0.4029 -0.0950  0.1182
  122MOL    H3819640   2.845   3.154   0.252 -1.7224 -0.0112  0.5696
  122MOL    H3919641   2.825   2.991   0.206 -0.5965  0.2547  0.1030
  122MOL    H4019642   2.615   2.991   0.272 -3.5756  0.3951 -1.3097
  122MOL    H4119643   2.575   3.105   0.150 -2.3929 -0.9947  1.6401
  122MOL    C4219644   2.537   3.166   0.458  0.1444  0.1079 -0.3615
  122MOL    C4319645   2.543   3.278   0.565 -0.1466 -0.0636  0.1349
  122MOL    C4419646   2.594   3.216   0.698  0.5439  0.6813 -0.1978
  122MOL    O4519647   2.520   3.137   0.757  0.0476 -0.4954 -0.1077
  122MOL    H4619648   2.579   3.073   0.496 -2.5058 -1.4927 -1.2055
  122MOL    H4719649   2.430   3.158   0.439 -0.1498  0.8249  0.8902
  122MOL    H4819650   2.451   3.333   0.581  0.4013  1.3327 -1.3714
  122MOL    H4919651   2.623   3.346   0.536 -1.2434  1.7416  1.2613
  122MOL    C5019652   2.729   3.263   0.749  0.4424 -0.1028 -0.4606
  122MOL    C5119653   2.767   3.200   0.883  0.7038 -0.3441 -0.0049
  122MOL    C5219654   2.849   3.070   0.874  0.1582 -0.1196 -0.8260
  122MOL    O5319655   2.966   3.079   0.845  0.1862  0.2582 -0.1119
  122MOL    H5419656   2.730   3.372   0.756  0.5431 -0.2143  1.8318
  122MOL    H5519657   2.807   3.234   0.679 -0.1287  0.0767 -1.1674
  122MOL    H5619658   2.682   3.174   0.946  1.1831  1.4007  1.3955
  122MOL    H5719659   2.820   3.274   0.944 -1.5271  2.8548 -1.8381
  122MOL    C5819660   2.780   2.938   0.903  0.1335  0.3002  0.3696
  122MOL    C5919661   2.826   2.822   0.815 -0.2502  0.9192 -0.2088
  122MOL    C6019662   2.773   2.835   0.669 -0.5162  0.1185  0.0736
  122MOL    O6119663   2.749   2.939   0.610  0.0686 -0.3497  0.3884
  122MOL    H6219664   2.671   2.946   0.897  0.0313 -1.3637 -0.5565
  122MOL    H6319665   2.797   2.906   1.006 -0.7147 -1.1186  0.0874
  122MOL    H6419666   2.776   2.739   0.865  1.4667 -0.4900 -0.8009
  122MOL    H6519667   2.934   2.824   0.799 -0.4398  1.1833 -1.4955
  122MOL    C6619668   2.778   2.711   0.585  0.5605 -0.2550 -0.1155
  122MOL    C6719669   2.778   2.727   0.432 -0.2631  0.6265  0.1007
  122MOL    C6819670   2.744   2.603   0.349 -0.2740 -0.8502  0.3293
  122MOL    O6919671   2.734   2.497   0.404 -0.2140 -0.3193 -0.2539
  122MOL    H7019672   2.691   2.652   0.612  1.0394 -0.9633 -0.0968
  122MOL    H7119673   2.863   2.651   0.618  0.6116  0.7247  1.5843
  122MOL    H7219674   2.880   2.750   0.400  0.2329 -0.5850  0.7599
  122MOL    H7319675   2.713   2.808   0.400 -0.8803  0.1467  0.1472
  122MOL    C7419676   2.736   2.620   0.193  0.3174  0.1635 -0.3192
  122MOL    C7519677   2.635   2.525   0.131  0.6210  0.2589 -0.9318
  122MOL    C7619678   2.693   2.394   0.086  0.9851  0.0641  0.1625
  122MOL    O7719679   2.811   2.366   0.090 -0.3575 -0.5471 -0.0916
  122MOL    H7819680   2.835   2.608   0.149  1.0073  2.4071  0.5328
  122MOL    H7919681   2.705   2.721   0.164  0.6619  0.3196 -0.1437
  122MOL    H8019682   2.584   2.584   0.055 -0.0160  3.4242  1.8024
  122MOL    H8119683   2.560   2.502   0.206 -0.0380  0.5670 -1.4944
  122MOL    C8219684   2.586   2.296   0.031 -0.5498  0.6359 -1.1746
  122MOL    C8319685   2.654   2.165   7.823  0.1904  0.2807 -0.1314
  122MOL    C8419686   2.538   2.061   7.804  0.0174 -0.0789 -0.1714
  122MOL    O8519687   2.417   2.084   7.826 -1.0380 -0.2595  0.4853
  122MOL    H8619688   2.520   2.343   7.817  0.3480 -0.4542 -2.7081
  122MOL    H8719689   2.523   2.276   0.118  0.5316 -0.9903 -0.7235
  122MOL    H8819690   2.732   2.128   0.030  1.1281  1.8706 -0.3285
  122MOL    H8919691   2.708   2.187   7.731 -2.1382  0.1721 -1.5543
  122MOL    C9019692   2.582   1.919   7.784 -0.2869  0.8009  0.1438
  122MOL    C9119693   2.476   1.810   7.758 -0.1973  1.0511 -0.1410
  122MOL    C9219694   2.523   1.665   7.742  0.4477 -1.1603  0.2059
  122MOL    O9319695   2.507   1.610   7.631 -0.3032  0.3390  0.0808
  122MOL    H9419696   2.645   1.891   0.009 -0.8235 -0.4923  0.1309
  122MOL    H9519697   2.645   1.929   7.695  0.6167  0.1477  0.7068
  122MOL    H9619698   2.416   1.834   7.670 -0.5916 -0.2271 -0.2324
  122MOL    H9719699   2.406   1.814   7.842 -1.5739 -0.0565 -1.2078
  122MOL    C9819700   2.597   1.604   7.853  0.8422  0.4270  0.1808
  122MOL    C9919701   2.502   1.516   0.087 -0.9532 -0.5239  0.1645
  122MOL   C10019702   2.401   1.600   0.168 -0.0874 -0.6818 -0.2393
  122MOL   O10119703   2.431   1.652   0.277 -0.2463 -0.3828 -0.4648
  122MOL   H10219704   2.650   1.681   0.050 -0.2451  0.2152  1.5091
  122MOL   H10319705   2.681   1.556   7.802 -0.5825 -0.2459 -1.5892
  122MOL   H10419706   2.565   1.463   0.158  0.4097  0.8437  0.0232
  122MOL   H10519707   2.440   1.446   0.032 -0.4453 -0.6072 -0.3095
  122MOL   C10619708   2.258   1.607   0.110  0.2189 -0.8870  0.5946
  122MOL   C10719709   2.144   1.608   0.220 -0.9119 -0.0595  0.6693
  122MOL   C10819710   2.088   1.462   0.235  0.5934 -0.0857  0.7317
  122MOL   O10919711   2.142   1.372   0.178 -0.1517 -0.4489  0.3120
  122MOL   H11019712   2.246   1.533   0.031 -1.8319  0.6523 -0.5598
  122MOL   H11119713   2.249   1.700   0.055  2.0253 -1.0738 -0.0652
  122MOL   H11219714   2.059   1.668   0.187 -0.3901 -0.1793 -0.9286
  122MOL   H11319715   2.177   1.655   0.313  2.2002 -1.4296  0.3265
  122MOL   C11419716   1.957   1.444   0.312  0.1087  0.1838 -0.1446
  122MOL   C11519717   1.848   1.388   0.215 -0.2762 -0.7160  0.5481
  122MOL   C11619718   1.705   1.381   0.277  0.1937  0.5226 -0.3782
  122MOL   O11719719   1.688   1.409   0.396  0.3925  0.3946 -0.2384
  122MOL   H11819720   1.931   1.543   0.349 -1.1346 -0.5938  1.1131
  122MOL   H11919721   1.966   1.382   0.401  0.4234  0.7310  0.2090
  122MOL   H12019722   1.865   1.292   0.166 -0.8765  0.0336 -1.1511
  122MOL   H12119723   1.847   1.458   0.132 -0.0892  1.7968  2.5850
  122MOL   C12219724   1.595   1.334   0.187  0.6319  0.6941 -0.1352
  122MOL   C12319725   1.467   1.280   0.248  0.2316  0.2081  0.2927
  122MOL   C12419726   1.341   1.301   0.169 -0.2799 -0.0420  0.3714
  122MOL   O12519727   1.339   1.365   0.067 -0.4224  0.7711 -0.3531
  122MOL   H12619728   1.629   1.265   0.110  1.4472  0.7087  0.2071
  122MOL   H12719729   1.565   1.427   0.141  1.5421  0.1349 -1.8997
  122MOL   H12819730   1.460   1.317   0.350  1.6413  0.5501  0.2836
  122MOL   H12919731   1.476   1.172   0.266  1.8702  0.4437  1.0036
  122MOL   C13019732   1.213   1.237   0.213 -0.7534  0.3508  0.1730
  122MOL   C13119733   1.093   1.301   0.151 -0.3976  0.4110  0.3614
  122MOL   C13219734   1.072   1.448   0.199  0.2276  0.0904  0.2813
  122MOL   O13319735   1.061   1.473   0.321  0.0255 -0.0505  0.1862
  122MOL   H13419736   1.213   1.239   0.322 -0.4601  0.7465  0.1671
  122MOL   H13519737   1.216   1.133   0.181  5.1231  0.2466  0.5240
  122MOL   H13619738   1.000   1.256   0.186 -0.3163  0.4659  0.6441
  122MOL   H13719739   1.100   1.292   0.042 -0.7182  1.6241  0.2273
  122MOL   C13819740   1.054   1.558   0.099  0.2435  0.6160  0.0472
  122MOL   C13919741   1.087   1.696   0.154  0.0618  0.5362 -0.1486
  122MOL   C14019742   1.098   1.808   0.058  0.1002 -1.1662 -0.6179
  122MOL   O14119743   1.064   1.805   7.798  0.0495  0.4263  0.1018
  122MOL   H14219744   0.952   1.549   0.062  0.4109 -2.6086  0.2418
  122MOL   H14319745   1.118   1.548   0.011  1.6523  0.7659  1.0365
  122MOL   H14419746   1.179   1.693   0.213 -0.3509 -2.0770  0.4166
  122MOL   H14519747   1.002   1.728   0.215  1.8662  0.3472  2.5756
  122MOL   C14619748   1.151   1.941   0.130  0.3166 -0.5749  0.1161
  122MOL   C14719749   1.062   2.062   0.117 -0.1025 -0.5317  0.1236
  122MOL   C14819750   0.938   2.054   0.206  0.8819 -0.4805 -0.1075
  122MOL   O14919751   0.880   1.946   0.225  0.0802 -0.3442 -0.1136
  122MOL   H15019752   1.245   1.969   0.082  0.6439 -2.0302 -0.1040
  122MOL   H15119753   1.161   1.923   0.237 -0.7757 -1.0826  0.1347
  122MOL   H15219754   1.027   2.074   0.015 -2.3360  2.1267  1.1521
  122MOL   H15319755   1.124   2.150   0.131  3.1297 -2.7189  0.2020
  122MOL   C15419756   0.884   2.186   0.262  0.1053  0.0217 -0.1232
  122MOL   C15519757   0.772   2.174   0.377 -0.7130 -0.4233  1.7197
  122MOL   C15619758   0.807   2.239   0.512 -0.4840  0.5173  0.2278
  122MOL   O15719759   0.739   2.230   0.607  0.0534 -0.2054  0.2672
  122MOL   H15819760   0.851   2.237   0.172  2.2893  0.8989 -0.4664
  122MOL   H15919761   0.970   2.248   0.288  0.0492  1.6611 -3.5553
  122MOL   H16019762   0.753   2.068   0.393  1.2520 -1.0156  0.2594
  122MOL   H16119763   0.677   2.214   0.341 -1.2900 -3.0066  0.2288
  122MOL   H16219764   0.885   2.315   0.512  0.1618 -0.1229 -1.7683
  123MOL     C119765   5.917   5.806   2.991 -0.1145 -0.4015 -0.2064
  123MOL     C219766   5.947   5.955   3.018 -0.5356 -0.1333 -0.0471
  123MOL     C319767   5.913   6.000   3.165  0.7091  0.0889 -0.1910
  123MOL     O419768   5.846   5.931   3.238 -0.6341  0.4692 -0.0762
  123MOL     H519769   5.892   5.808   2.885  2.5056  0.2500 -0.8451
  123MOL     H619770   5.997   5.734   3.011 -0.8007 -1.3833 -0.9539
  123MOL     H719771   5.870   6.013   2.969 -0.1321 -0.5826 -1.2333
  123MOL     H819772   6.036   5.997   2.972 -0.0416 -2.6082 -1.4506
  123MOL     H919773   5.825   5.780   3.043  0.2904  0.0102  0.7444
  123MOL    C1019774   5.960   6.138   3.199  0.0082 -0.4902 -0.4231
  123MOL    C1119775   5.905   6.190   3.331 -1.2875 -0.0968 -0.6765
  123MOL    C1219776   5.984   6.139   3.453 -0.1428  0.5661 -0.3524
  123MOL    O1319777   6.100   6.104   3.450  0.2840  0.2183 -0.3962
  123MOL    H1419778   5.936   6.204   3.116 -0.0100  0.7767  0.5676
  123MOL    H1519779   6.068   6.147   3.190 -0.0485  1.4987  0.6351
  123MOL    H1619780   5.799   6.170   3.343 -0.8798 -0.7532  2.2128
  123MOL    H1719781   5.922   6.297   3.342 -1.8962 -0.2112  1.5835
  123MOL    C1819782   5.896   6.151   3.584  0.1117  0.2341 -0.0720
  123MOL    C1919783   5.963   6.084   3.709  0.0496  0.5427  0.3184
  123MOL    C2019784   5.902   6.128   3.839 -0.3981  0.5107 -0.6250
  123MOL    O2119785   5.779   6.122   3.871  0.5090 -0.2758  0.0892
  123MOL    H2219786   5.801   6.101   3.563  0.0328  0.8395 -1.2102
  123MOL    H2319787   5.888   6.256   3.611 -0.5426 -0.2983  1.8985
  123MOL    H2419788   6.071   6.096   3.700  0.2461  0.6151  2.6217
  123MOL    H2519789   5.949   5.976   3.705  3.4636  0.0864 -1.4787
  123MOL    C2619790   6.011   6.192   3.921  0.1411 -0.3341 -0.4615
  123MOL    C2719791   5.967   6.244   4.053 -0.1133  0.2905  0.2480
  123MOL    C2819792   5.989   6.132   4.152 -0.2048  0.1975  0.3091
  123MOL    O2919793   6.101   6.082   4.168  0.3203 -0.0918 -0.0514
  123MOL    H3019794   6.047   6.280   3.868 -0.9178  1.4431  1.7383
  123MOL    H3119795   6.098   6.126   3.926 -1.3186 -2.1547  1.8652
  123MOL    H3219796   5.862   6.275   4.047  0.3736  2.0679  0.5681
  123MOL    H3319797   6.017   6.339   4.075  1.6056 -0.5629  0.1229
  123MOL    C3419798   5.858   6.069   4.216 -0.3037 -0.5404 -0.0405
  123MOL    C3519799   5.776   6.162   4.315  0.1546  0.8721 -0.0942
  123MOL    C3619800   5.784   6.126   4.463  0.1552  0.0914  0.3007
  123MOL    O3719801   5.853   6.030   4.503  0.4577  0.0261 -0.6504
  123MOL    H3819802   5.893   5.974   4.256  1.4115  0.7313  1.5358
  123MOL    H3919803   5.782   6.047   4.141  0.8410 -2.3475 -0.6953
  123MOL    H4019804   5.668   6.160   4.298  0.2103  0.6574 -0.4191
  123MOL    H4119805   5.810   6.266   4.305  0.7208  0.7924  0.9918
  123MOL    C4219806   5.702   6.223   4.554 -0.5671  0.5487 -0.5108
  123MOL    C4319807   5.605   6.149   4.650  0.4253  0.0930  0.6647
  123MOL    C4419808   5.493   6.229   4.702  0.2654  0.2201 -0.1209
  123MOL    O4519809   5.378   6.216   4.654 -0.4010 -0.2680 -0.4078
  123MOL    H4619810   5.634   6.281   4.491 -2.1487 -0.5428  0.1639
  123MOL    H4719811   5.765   6.295   4.607 -0.4644  0.1025 -0.0301
  123MOL    H4819812   5.655   6.102   4.735 -0.5791 -1.5092  0.3861
  123MOL    H4919813   5.574   6.058   4.599  0.8656  0.9344 -1.1495
  123MOL    C5019814   5.524   6.327   4.820 -0.1961 -0.1513  0.0768
  123MOL    C5119815   5.425   6.440   4.844  0.0875 -0.3979  0.5505
  123MOL    C5219816   5.386   6.464   4.991 -0.6559  0.0000 -0.0273
  123MOL    O5319817   5.464   6.433   5.082  0.1638  0.0227  0.9583
  123MOL    H5419818   5.623   6.370   4.801  0.0174 -0.1228  1.2459
  123MOL    H5519819   5.523   6.267   4.911  1.4700 -0.9270 -0.4111
  123MOL    H5619820   5.333   6.433   4.786 -0.1182  0.2380  0.7904
  123MOL    H5719821   5.479   6.529   4.810  0.3455 -0.9763 -0.5535
  123MOL    C5819822   5.250   6.519   5.021 -0.0687  0.0720 -0.7542
  123MOL    C5919823   5.225   6.555   5.170  0.2839 -0.4615 -0.5050
  123MOL    C6019824   5.270   6.693   5.200  0.3531 -0.8705 -0.2366
  123MOL    O6119825   5.336   6.760   5.126  0.3793 -0.1664 -0.1614
  123MOL    H6219826   5.181   6.436   5.002  0.4364 -0.0659 -2.0034
  123MOL    H6319827   5.215   6.591   4.948 -2.4837 -0.0909  0.1914
  123MOL    H6419828   5.282   6.485   5.231  1.3407  0.1862 -0.7352
  123MOL    H6519829   5.118   6.549   5.193  0.7762  0.3039  2.1301
  123MOL    C6619830   5.243   6.733   5.339  0.3986 -0.5339 -0.5071
  123MOL    C6719831   5.311   6.863   5.379  0.3651 -0.8554 -0.0087
  123MOL    C6819832   5.344   6.860   5.527  0.1014  0.0312  0.4253
  123MOL    O6919833   5.279   6.788   5.602 -0.6322 -0.3639  0.3541
  123MOL    H7019834   5.255   6.655   5.413 -2.0036  0.0172  0.5160
  123MOL    H7119835   5.136   6.754   5.347  0.8303  1.7526 -0.3069
  123MOL    H7219836   5.245   6.946   5.357  2.3603  1.1800  1.5094
  123MOL    H7319837   5.402   6.891   5.326  0.1450  0.4575  0.2983
  123MOL    C7419838   5.453   6.945   5.581  0.1281 -0.0563 -0.0271
  123MOL    C7519839   5.583   6.869   5.611  0.2917  0.0413 -0.1000
  123MOL    C7619840   5.636   6.884   5.753 -0.3506  0.6880  0.5825
  123MOL    O7719841   5.589   6.969   5.831 -0.3208  0.5305  0.0991
  123MOL    H7819842   5.423   7.006   5.666  0.1009 -0.4754  0.2704
  123MOL    H7919843   5.484   7.017   5.505  1.6426 -0.8207 -0.1583
  123MOL    H8019844   5.662   6.893   5.539 -0.0007 -1.2906 -0.8866
  123MOL    H8119845   5.565   6.763   5.590  0.5565  0.3823 -2.2399
  123MOL    C8219846   5.751   6.790   5.798 -0.1032  0.4549  0.3884
  123MOL    C8319847   5.886   6.843   5.840 -0.3495 -0.1794 -0.1568
  123MOL    C8419848   5.920   6.809   5.984  0.0470  1.6580  0.5178
  123MOL    O8519849   5.997   6.716   6.011  0.4342 -0.0607 -0.0382
  123MOL    H8619850   5.765   6.729   5.709  0.3554  2.0517 -0.6494
  123MOL    H8719851   5.719   6.723   5.879  0.4464  0.0968  0.3094
  123MOL    H8819852   5.893   6.948   5.815  0.9802 -0.3559 -0.5808
  123MOL    H8919853   5.958   6.798   5.772  1.1945 -0.9358  1.9050
  123MOL    C9019854   5.853   6.884   6.098 -0.5735 -0.0289 -0.3980
  123MOL    C9119855   5.961   6.937   6.196  0.0009  0.3546  0.1373
  123MOL    C9219856   6.013   7.077   6.157  0.0545  0.4582  0.1337
  123MOL    O9319857   6.058   7.099   6.045  0.1381 -0.5618  0.0867
  123MOL    H9419858   5.788   6.805   6.135  0.2582 -0.1108  0.8961
  123MOL    H9519859   5.787   6.965   6.066  0.7001  0.9573 -0.5575
  123MOL    H9619860   6.040   6.865   6.217  0.9367  1.0917 -0.8092
  123MOL    H9719861   5.908   6.953   6.290  0.4482 -1.6218  0.7342
  123MOL    C9819862   6.016   7.184   6.264  0.7035 -0.5959 -1.3980
  123MOL    C9919863   6.043   7.334   6.224 -0.0851  0.9803  0.7860
  123MOL   C10019864   6.156   7.399   6.301  0.6539 -0.1716 -0.1790
  123MOL   O10119865   6.182   7.369   6.418 -0.0995  0.2454 -0.1744
  123MOL   H10219866   6.078   7.152   6.347  0.4606  0.5285 -0.7767
  123MOL   H10319867   5.920   7.186   6.315 -0.2250  0.1653 -3.1166
  123MOL   H10419868   5.950   7.392   6.225 -1.0232 -0.4949  0.7004
  123MOL   H10519869   6.075   7.336   6.119 -2.0868 -0.8143  0.0988
  123MOL   C10619870   6.236   7.505   6.229 -0.0985  0.0311  0.9233
  123MOL   C10719871   6.343   7.582   6.313  0.0745  0.3654 -0.0804
  123MOL   C10819872   6.338   7.733   6.283 -0.0848 -0.4922  0.1997
  123MOL   O10919873   6.345   7.772   6.166 -0.2853 -0.0547  0.4236
  123MOL   H11019874   6.168   7.586   6.198  0.3041 -0.0006 -0.0752
  123MOL   H11119875   6.288   7.479   6.137 -0.0898 -1.0215  1.2289
  123MOL   H11219876   6.443   7.543   6.295 -0.2204  0.4789 -1.9885
  123MOL   H11319877   6.319   7.563   6.418 -1.3696 -1.4323 -0.6981
  123MOL   C11419878   6.314   7.822   6.401  0.8921 -0.4221 -0.3410
  123MOL   C11519879   6.273   0.110   6.358  0.2715  0.1126  0.3538
  123MOL   C11619880   6.153   0.168   6.437 -0.7360 -0.2172  0.1402
  123MOL   O11719881   6.115   0.114   6.541 -0.3960  0.0488 -0.0862
  123MOL   H11819882   6.404   7.837   6.460 -0.6708  1.7950  1.6084
  123MOL   H11919883   6.229   7.784   6.457  1.1475 -1.0181 -0.3533
  123MOL   H12019884   6.242   0.110   6.253  2.2100  0.3415 -0.2359
  123MOL   H12119885   6.358   0.173   6.386 -1.2170  2.4061 -0.1181
  123MOL   C12219886   6.083   0.296   6.391  0.2796  0.1229  0.5260
  123MOL   C12319887   5.951   0.340   6.459 -0.1822 -0.6676  0.9639
  123MOL   C12419888   5.912   0.473   6.413 -0.1975 -0.4084 -0.3125
  123MOL   O12519889   5.990   0.568   6.422 -0.3704  0.0836 -0.7264
  123MOL   H12619890   6.073   0.273   6.284 -1.0042 -2.0995  1.0791
  123MOL   H12719891   6.165   0.363   6.416 -0.6206  1.4205  0.0958
  123MOL   H12819892   5.959   0.342   6.568  2.3642  1.8738  0.7931
  123MOL   H12919893   5.874   0.268   6.433  0.6040 -1.0223 -0.4469
  123MOL   C13019894   5.774   0.495   6.340  0.4835  0.2523  1.2131
  123MOL   C13119895   5.749   0.641   6.294 -0.3644  0.3811 -0.3562
  123MOL   C13219896   5.701   0.657   6.153  0.6712  0.0626 -0.0168
  123MOL   O13319897   5.763   0.610   6.058 -0.0733  0.3085  0.8130
  123MOL   H13419898   5.684   0.441   6.371  1.3459 -2.1377 -0.3284
  123MOL   H13519899   5.800   0.446   6.246  1.8828  0.1450  1.6421
  123MOL   H13619900   5.833   0.709   6.311  0.3037 -0.1034 -1.6322
  123MOL   H13719901   5.675   0.694   6.353 -0.8459  0.2038 -0.8036
  123MOL   C13819902   5.569   0.731   6.136  0.4263 -0.0395 -0.7864
  123MOL   C13919903   5.534   0.773   5.988 -0.4022  0.6634 -0.4707
  123MOL   C14019904   5.589   0.910   5.937 -0.2057  0.0080  0.8791
  123MOL   O14119905   5.561   1.020   5.982  0.0004 -0.3972 -0.1651
  123MOL   H14219906   5.548   0.814   6.204  1.0177 -0.2674 -0.3173
  123MOL   H14319907   5.493   0.656   6.159 -0.4961  0.9801 -0.4671
  123MOL   H14419908   5.427   0.794   5.984 -0.2527  0.9780 -3.7422
  123MOL   H14519909   5.552   0.686   5.925  0.4839  1.1867 -0.9518
  123MOL   C14619910   5.694   0.899   5.826 -0.2619 -0.1432 -0.3567
  123MOL   C14719911   5.753   1.030   5.775 -0.8300 -0.6846 -0.2712
  123MOL   C14819912   5.878   1.067   5.843  0.3913  0.1852  0.2738
  123MOL   O14919913   5.987   1.055   5.780 -0.0964 -0.1891 -0.1485
  123MOL   H15019914   5.651   0.848   5.740 -0.5241 -1.7470  0.6881
  123MOL   H15119915   5.769   0.827   5.861 -0.8421 -1.0204 -0.8942
  123MOL   H15219916   5.684   1.112   5.793 -0.9916 -0.8258 -0.2396
  123MOL   H15319917   5.768   1.023   5.668  0.7982  0.7164 -0.1427
  123MOL   C15419918   5.877   1.123   5.981 -0.4699 -0.0909 -0.5939
  123MOL   C15519919   5.963   1.245   5.989  0.4190 -1.0136  0.7359
  123MOL   C15619920   6.103   1.213   6.035 -0.1191 -0.3861 -0.2554
  123MOL   O15719921   6.121   1.137   6.130  0.8282  0.0176 -0.2803
  123MOL   H15819922   5.919   1.042   6.041  2.0571  1.7518  0.2437
  123MOL   H15919923   5.778   1.150   6.019 -0.8459 -0.2750 -1.4349
  123MOL   H16019924   5.926   1.321   6.058 -0.5666 -0.3965 -0.4468
  123MOL   H16119925   5.967   1.281   5.886  0.2712 -2.9521  0.0211
  123MOL   H16219926   6.180   1.259   5.972 -0.0638  0.0446  0.1244
  124MOL     C119927   1.444   3.870   3.600 -0.4033 -0.1804 -0.1917
  124MOL     C219928   1.509   3.891   3.737  0.1126  0.3979 -0.1087
  124MOL     C319929   1.455   4.017   3.811  0.1167  0.4981 -0.5956
  124MOL     O419930   1.381   4.099   3.759 -0.1865  0.6166  0.0155
  124MOL     H519931   1.345   3.836   3.629 -0.5538  0.2610 -0.1988
  124MOL     H619932   1.434   3.960   3.540 -0.0471 -0.3310 -0.4816
  124MOL     H719933   1.608   3.907   3.694  0.3773 -1.9256 -0.4582
  124MOL     H819934   1.510   3.801   3.798  0.3150 -0.4814 -1.3693
  124MOL     H919935   1.490   3.791   3.539  1.5357  1.1753 -0.5449
  124MOL    C1019936   1.469   4.025   3.964 -0.7408 -0.6130 -0.2481
  124MOL    C1119937   1.451   4.164   4.012 -0.1069 -0.0625  0.1062
  124MOL    C1219938   1.579   4.243   3.973  0.8119 -0.1133 -0.5306
  124MOL    O1319939   1.684   4.190   3.954 -0.4522 -0.0063 -0.3630
  124MOL    H1419940   1.564   3.977   3.989  0.3614  1.4173 -0.3783
  124MOL    H1519941   1.388   3.968   4.008 -1.1491  0.8067  0.8754
  124MOL    H1619942   1.442   4.174   4.120  2.9694  0.3073  0.3884
  124MOL    H1719943   1.367   4.214   3.963  2.5275  3.0934 -1.3943
  124MOL    C1819944   1.553   4.395   3.973 -1.0208 -0.3332 -0.0918
  124MOL    C1919945   1.689   4.480   3.959 -0.8287 -0.0285  0.2418
  124MOL    C2019946   1.702   4.551   3.822 -0.4209  0.1452 -0.5589
  124MOL    O2119947   1.622   4.523   3.738 -0.3097 -0.1198  0.2052
  124MOL    H2219948   1.496   4.420   4.063 -1.7438  1.4068 -0.9962
  124MOL    H2319949   1.486   4.428   3.893 -0.9110  3.3717  1.2339
  124MOL    H2419950   1.782   4.427   3.979 -2.7864 -3.3301  0.9330
  124MOL    H2519951   1.677   4.552   4.040 -0.5435 -0.0910  0.3408
  124MOL    C2619952   1.824   4.642   3.807  0.5054  0.7703  1.0572
  124MOL    C2719953   1.853   4.681   3.665  0.3103  0.5929  0.4291
  124MOL    C2819954   1.829   4.836   3.636 -0.2385  0.2278 -0.1618
  124MOL    O2919955   1.736   4.889   3.694  0.0566  0.0915 -0.3280
  124MOL    H3019956   1.915   4.587   3.831  2.0559  3.2104  0.9820
  124MOL    H3119957   1.816   4.729   3.872 -1.1260  0.9696  0.6090
  124MOL    H3219958   1.780   4.633   3.601 -1.4362  1.8142  1.4373
  124MOL    H3319959   1.949   4.642   3.634  0.8394  0.3760  2.2428
  124MOL    C3419960   1.916   4.910   3.536  0.8240  0.8823 -0.4104
  124MOL    C3519961   1.827   5.016   3.459  0.0086  0.3946  0.3253
  124MOL    C3619962   1.778   4.954   3.323  0.7800  0.3782 -0.6876
  124MOL    O3719963   1.726   4.837   3.323  0.5116 -0.0915 -0.1272
  124MOL    H3819964   1.961   4.840   3.465  2.8772  1.6224  0.1369
  124MOL    H3919965   1.994   4.970   3.583  1.5659  0.3386 -0.9264
  124MOL    H4019966   1.879   5.108   3.434  0.9383 -0.1671  0.1850
  124MOL    H4119967   1.736   5.044   3.513  0.8893  1.1185  1.4454
  124MOL    C4219968   1.760   5.037   3.204  0.4866 -0.6110 -0.4276
  124MOL    C4319969   1.667   4.981   3.091 -0.2130  0.1557  0.7136
  124MOL    C4419970   1.700   5.045   2.955  0.4515  0.5622  0.1407
  124MOL    O4519971   1.763   5.147   2.945  0.1255  0.7357 -0.1979
  124MOL    H4619972   1.859   5.055   3.162 -0.4791  1.5670 -1.8383
  124MOL    H4719973   1.718   5.133   3.236  1.6838 -0.0661 -0.4428
  124MOL    H4819974   1.561   4.999   3.106 -0.5524  1.1291 -2.4310
  124MOL    H4919975   1.674   4.872   3.087  1.1556  0.2102  1.2931
  124MOL    C5019976   1.660   4.973   2.831  0.9746 -0.2449 -0.1479
  124MOL    C5119977   1.507   4.946   2.828  0.9949  0.3782  0.0985
  124MOL    C5219978   1.451   4.970   2.690 -0.1872 -0.1446  0.5251
  124MOL    O5319979   1.495   5.067   2.618 -0.1051  0.1301  0.2088
  124MOL    H5419980   1.721   4.883   2.833  0.3455 -0.6706  2.0471
  124MOL    H5519981   1.697   5.033   2.749 -0.0610 -0.2569 -0.6353
  124MOL    H5619982   1.446   5.010   2.892  1.2490 -1.6858  2.4894
  124MOL    H5719983   1.481   4.845   2.859 -1.4086  0.6576 -0.8826
  124MOL    C5819984   1.346   4.875   2.629  0.1099  0.3036  0.6907
  124MOL    C5919985   1.270   4.920   2.499 -0.4685  0.6250  0.1840
  124MOL    C6019986   1.356   4.878   2.380 -0.4598 -0.0961 -0.0981
  124MOL    O6119987   1.359   4.760   2.344 -0.0230 -0.0914  0.6142
  124MOL    H6219988   1.281   4.848   2.711  1.3831 -0.7487  1.3662
  124MOL    H6319989   1.404   4.786   2.605 -0.0730  0.5420 -0.7116
  124MOL    H6419990   1.223   5.018   2.499 -0.7319  0.5608 -3.7552
  124MOL    H6519991   1.179   4.860   2.497  0.4460 -0.7690 -0.6429
  124MOL    C6619992   1.447   4.972   2.312  0.2172 -0.1470  0.3030
  124MOL    C6719993   1.510   4.921   2.179 -0.3879 -0.9205  0.1270
  124MOL    C6819994   1.529   5.035   2.085 -0.1843  1.3374  0.2716
  124MOL    O6919995   1.477   5.148   2.095  0.4105  0.2206  0.4830
  124MOL    H7019996   1.520   5.016   2.380 -0.5928  1.3842  0.1998
  124MOL    H7119997   1.385   5.061   2.297 -1.3734 -0.9513  1.9421
  124MOL    H7219998   1.435   4.861   2.127 -1.1666 -1.0537  1.3889
  124MOL    H7319999   1.602   4.864   2.189 -1.5190 -2.3504  2.7957
  124MOL    C7420000   1.610   4.999   1.966  0.0446 -0.3040 -0.2065
  124MOL    C7520001   1.751   5.057   1.965 -0.1124 -1.1230  0.6573
  124MOL    C7620002   1.761   5.161   1.846 -0.2064  0.1084 -0.3372
  124MOL    O7720003   1.671   5.201   1.773  0.0362  0.2093 -0.3194
  124MOL    H7820004   1.548   5.014   1.877  0.5786  3.5177 -0.0113
  124MOL    H7920005   1.626   4.892   1.963 -0.0322 -0.3072 -0.6131
  124MOL    H8020006   1.820   4.976   1.942 -0.2134 -0.4268 -2.2316
  124MOL    H8120007   1.769   5.109   2.059 -0.4303  1.1265 -0.4899
  124MOL    C8220008   1.897   5.215   1.820 -0.2553  0.3097 -0.2105
  124MOL    C8320009   1.901   5.331   1.712 -0.2357 -0.2331  0.6213
  124MOL    C8420010   1.985   5.450   1.760  0.4515  0.7979  0.0553
  124MOL    O8520011   2.092   5.437   1.822 -0.0912 -0.5041  0.1609
  124MOL    H8620012   1.970   5.136   1.804  0.0842  0.0667  2.2950
  124MOL    H8720013   1.925   5.261   1.915 -0.6055 -0.1568  0.1225
  124MOL    H8820014   1.803   5.365   1.679 -0.1286 -2.0650 -1.6956
  124MOL    H8920015   1.953   5.291   1.625  1.0126 -0.4973  1.4811
  124MOL    C9020016   1.937   5.585   1.713  0.1090  0.2370  0.1793
  124MOL    C9120017   1.798   5.609   1.759 -1.0670  0.3389  0.4702
  124MOL    C9220018   1.730   5.699   1.661  0.2626  0.3924  0.4828
  124MOL    O9320019   1.746   5.686   1.541  0.1709  0.5927 -0.0761
  124MOL    H9420020   1.944   5.591   1.604  2.4640  0.0833  0.2965
  124MOL    H9520021   1.999   5.667   1.750  2.6069 -1.1072 -0.9306
  124MOL    H9620022   1.800   5.656   1.858 -0.4462 -1.5122  1.3708
  124MOL    H9720023   1.737   5.522   1.783 -2.3824  0.7045 -1.4523
  124MOL    C9820024   1.620   5.789   1.710  0.0577  0.9237  0.1303
  124MOL    C9920025   1.537   5.848   1.600  0.1572 -0.3080  0.7371
  124MOL   C10020026   1.419   5.757   1.550 -0.0710 -0.0827  0.3860
  124MOL   O10120027   1.408   5.638   1.586 -0.0145 -0.2413  0.0901
  124MOL   H10220028   1.668   5.859   1.778  0.0916  0.4285  0.6141
  124MOL   H10320029   1.556   5.725   1.770  0.7349  0.8716  0.7947
  124MOL   H10420030   1.593   5.872   1.509 -0.1024  1.6583  1.0712
  124MOL   H10520031   1.490   5.943   1.623 -1.1051 -0.4907 -1.0219
  124MOL   C10620032   1.320   5.803   1.446 -0.0110 -0.3810 -0.0659
  124MOL   C10720033   1.185   5.731   1.448 -0.1242  0.0309  1.0896
  124MOL   C10820034   1.168   5.617   1.348  0.9211  0.7721  0.3707
  124MOL   O10920035   1.207   5.628   1.233 -0.1542 -0.2396 -1.2315
  124MOL   H11020036   1.374   5.782   1.353  1.5006  1.9898  0.2405
  124MOL   H11120037   1.299   5.909   1.459 -0.3310 -0.5074  0.4538
  124MOL   H11220038   1.112   5.797   1.400 -0.3327 -0.4897  0.6810
  124MOL   H11320039   1.160   5.697   1.549 -0.1560  0.4974  1.2420
  124MOL   C11420040   1.107   5.489   1.393  0.1454  0.1282 -0.4174
  124MOL   C11520041   1.102   5.377   1.289  1.2485  0.0376 -0.2183
  124MOL   C11620042   0.995   5.279   1.311 -0.0720  0.1470  0.2556
  124MOL   O11720043   0.888   5.306   1.374 -0.1134  0.6734  0.2348
  124MOL   H11820044   1.008   5.509   1.434  0.4270 -1.8344  1.3268
  124MOL   H11920045   1.164   5.459   1.482  0.1790  0.5367 -0.2987
  124MOL   H12020046   1.197   5.324   1.282  1.1450  0.1412 -3.1105
  124MOL   H12120047   1.089   5.424   1.191  1.8171 -0.7626 -0.6915
  124MOL   C12220048   1.021   5.137   1.275 -0.0948 -0.0373 -0.4512
  124MOL   C12320049   0.927   5.075   1.168  0.2613 -0.0637 -0.1456
  124MOL   C12420050   0.976   5.109   1.027  0.1882  0.2793 -0.1809
  124MOL   O12520051   1.056   5.196   1.001  0.2526  0.1546 -0.0245
  124MOL   H12620052   1.007   5.088   1.371  3.2745 -0.1495  0.0228
  124MOL   H12720053   1.126   5.123   1.250 -0.7997 -0.0409 -3.7775
  124MOL   H12820054   0.828   5.119   1.181  0.5994  0.3337  1.1155
  124MOL   H12920055   0.936   4.967   1.180  0.1717 -0.1196 -0.5596
  124MOL   C13020056   0.937   5.001   0.922  0.6466  1.3987 -1.5136
  124MOL   C13120057   0.944   5.053   0.777  0.1521 -0.0846  0.0671
  124MOL   C13220058   1.081   5.009   0.716  0.1854 -0.3725  0.4155
  124MOL   O13320059   1.153   4.924   0.768 -0.1179 -0.0198  0.2954
  124MOL   H13420060   0.842   4.951   0.942  0.5295  1.1090 -2.7533
  124MOL   H13520061   1.010   4.922   0.940  0.9898  2.0279 -0.0611
  124MOL   H13620062   0.931   5.161   0.787  2.4751  0.0661  1.8003
  124MOL   H13720063   0.858   5.023   0.718 -0.6099 -0.0805  1.1600
  124MOL   C13820064   1.125   5.082   0.586  0.1278  0.2606  0.9811
  124MOL   C13920065   1.118   4.985   0.456  0.9259  0.5611 -0.2415
  124MOL   C14020066   0.982   4.938   0.416  0.4886  0.2093  0.4627
  124MOL   O14120067   0.884   5.007   0.439  0.3083 -0.2223  0.2750
  124MOL   H14220068   1.224   5.125   0.601  0.1631  0.8976 -0.8933
  124MOL   H14320069   1.055   5.165   0.578 -0.7118 -0.5741 -0.7514
  124MOL   H14420070   1.183   4.897   0.458 -1.8395 -1.5717 -0.1828
  124MOL   H14520071   1.149   5.036   0.365  0.6549 -2.7055 -2.2778
  124MOL   C14620072   0.975   4.811   0.346 -0.7568 -0.2673 -0.0655
  124MOL   C14720073   0.872   4.795   0.234  0.4976 -0.2896 -0.2265
  124MOL   C14820074   0.791   4.667   0.244  0.0361 -0.3503  0.1330
  124MOL   O14920075   0.666   4.670   0.237  0.2416  0.1228 -0.3297
  124MOL   H15020076   0.943   4.739   0.421  0.2969  0.0890  0.7461
  124MOL   H15120077   1.068   4.770   0.305 -1.5135 -3.9436  1.6343
  124MOL   H15220078   0.923   4.790   0.138  1.0731 -2.0189  0.1481
  124MOL   H15320079   0.806   4.880   0.217 -0.0124 -1.0841 -2.4283
  124MOL   C15420080   0.858   4.533   0.240 -0.3561 -0.2828 -0.8129
  124MOL   C15520081   0.759   4.415   0.224 -0.4763 -0.7009  0.4027
  124MOL   C15620082   0.814   4.287   0.281  0.3319 -0.7125 -0.7539
  124MOL   O15720083   0.777   4.266   0.399 -0.2783  0.4964 -0.6180
  124MOL   H15820084   0.935   4.531   0.318  0.5293  1.3552 -1.6094
  124MOL   H15920085   0.920   4.545   0.151  1.4112 -2.5505  0.0605
  124MOL   H16020086   0.752   4.404   0.116  1.6298 -0.2176  0.1856
  124MOL   H16120087   0.662   4.447   0.261 -0.8493 -2.1051  0.6436
  124MOL   H16220088   0.872   4.220   0.218  1.4211 -2.8558  2.3821
  125MOL     C120089   3.241   5.071   5.969 -0.4756  0.6155  0.6543
  125MOL     C220090   3.369   4.992   5.953  0.0241  0.2139 -1.0790
  125MOL     C320091   3.489   5.042   6.033  0.5871  0.6284  0.3496
  125MOL     O420092   3.483   5.112   6.134  0.9545 -0.2563 -0.2279
  125MOL     H520093   3.256   5.147   6.045 -0.2940  0.6817  0.5520
  125MOL     H620094   3.214   5.125   5.878 -2.5375 -1.3710  0.0438
  125MOL     H720095   3.402   4.991   5.849 -2.7281  0.3570 -2.0158
  125MOL     H820096   3.349   4.889   5.984  1.6785  0.7088  1.7425
  125MOL     H920097   3.155   5.012   6.001  0.0686 -1.2305 -1.1899
  125MOL    C1020098   3.620   4.986   5.984  0.3974 -0.4681  0.3821
  125MOL    C1120099   3.746   5.020   6.065  0.2950  0.1207 -0.6499
  125MOL    C1220100   3.795   5.160   6.054  0.5214 -0.5512 -0.3308
  125MOL    O1320101   3.732   5.234   5.983  0.5990 -0.3561 -0.2442
  125MOL    H1420102   3.630   5.032   5.885 -0.6758 -0.4544  0.2761
  125MOL    H1520103   3.608   4.879   5.969  0.0158 -0.7165  2.3197
  125MOL    H1620104   3.825   4.950   6.035  0.0901 -0.2305 -0.3751
  125MOL    H1720105   3.729   5.011   6.173  0.0651 -1.2122 -0.7908
  125MOL    C1820106   3.916   5.214   6.130 -0.1686  0.7152  0.4549
  125MOL    C1920107   3.919   5.369   6.134  0.2445  0.0629  0.1913
  125MOL    C2020108   4.014   5.425   6.237  1.1154  0.8829  0.3611
  125MOL    O2120109   4.094   5.345   6.291 -0.8752 -0.5556  0.5621
  125MOL    H2220110   4.012   5.170   6.101  0.1702  1.8443 -0.1363
  125MOL    H2320111   3.894   5.177   6.230 -1.4714 -1.0348 -0.4483
  125MOL    H2420112   3.820   5.401   6.168 -0.3859 -0.9877 -0.6043
  125MOL    H2520113   3.932   5.419   6.037  4.0997  0.8894  1.0774
  125MOL    C2620114   4.011   5.570   6.265  0.1557 -0.8805 -0.5181
  125MOL    C2720115   4.038   5.611   6.411  0.5027 -0.0547  0.0626
  125MOL    C2820116   4.180   5.596   6.456  0.1329 -0.5313 -0.6852
  125MOL    O2920117   4.252   5.692   6.430  0.1862 -0.0528 -0.3126
  125MOL    H3020118   3.924   5.610   6.213  2.7303 -1.6676 -5.8017
  125MOL    H3120119   4.086   5.606   6.194  0.5450 -1.6271 -0.4900
  125MOL    H3220120   3.969   5.555   6.475  0.9135 -0.3634  0.2429
  125MOL    H3320121   4.007   5.713   6.431  0.4348 -0.1103  0.2490
  125MOL    C3420122   4.227   5.481   6.543 -0.5369 -0.4176  0.0047
  125MOL    C3520123   4.365   5.506   6.604 -0.4679 -0.4149  0.1268
  125MOL    C3620124   4.353   5.596   6.729 -0.4796  0.0336 -0.4298
  125MOL    O3720125   4.249   5.643   6.758 -0.6548 -0.1242 -0.0295
  125MOL    H3820126   4.237   5.389   6.486 -1.8886 -0.8074  0.3758
  125MOL    H3920127   4.149   5.458   6.616  1.3374  1.1151  2.5933
  125MOL    H4020128   4.451   5.543   6.547 -1.0424 -1.8758 -1.6929
  125MOL    H4120129   4.392   5.408   6.645  0.2305  0.0864  0.9076
  125MOL    C4220130   4.480   5.620   6.809  0.3734 -0.0770  0.0556
  125MOL    C4320131   4.458   5.727   6.919  0.1401  0.4326 -0.9461
  125MOL    C4420132   4.549   5.742   7.043 -0.1934 -0.2124  0.1181
  125MOL    O4520133   4.638   5.659   7.065  0.0581  0.2227 -0.6229
  125MOL    H4620134   4.566   5.633   6.743 -1.6334 -2.4336 -3.1681
  125MOL    H4720135   4.506   5.532   6.867  1.9946  0.1565 -0.3045
  125MOL    H4820136   4.363   5.718   6.971  1.0770 -1.6434  0.4621
  125MOL    H4920137   4.443   5.823   6.868  1.9097  0.3318 -1.6894
  125MOL    C5020138   4.521   5.857   7.136 -0.6355 -0.5956 -0.6967
  125MOL    C5120139   4.606   5.864   7.260 -0.6637 -0.0133 -0.3971
  125MOL    C5220140   4.569   5.970   7.361  0.0936 -0.3787 -0.5845
  125MOL    O5320141   4.457   6.023   7.352 -0.1460  0.1372  0.2450
  125MOL    H5420142   4.420   5.853   7.176 -1.3917  0.9970 -2.3823
  125MOL    H5520143   4.526   5.952   7.083  2.4956  0.9557  2.1408
  125MOL    H5620144   4.712   5.864   7.232 -0.6256  1.6370 -0.3402
  125MOL    H5720145   4.597   5.775   7.322 -2.9111  1.0072  0.8046
  125MOL    C5820146   4.656   6.005   7.482  0.2353 -0.6572  0.3176
  125MOL    C5920147   4.620   5.912   7.605 -0.5002 -0.3732  0.4517
  125MOL    C6020148   4.733   5.808   7.615 -0.7452 -0.1173  0.0199
  125MOL    O6120149   4.786   5.760   7.512 -0.1647  0.5245 -0.2165
  125MOL    H6220150   4.643   6.110   7.509 -0.5801 -0.7737  0.3917
  125MOL    H6320151   4.762   5.995   7.458 -0.0015 -3.7280  0.3670
  125MOL    H6420152   4.525   5.859   7.596 -0.3050 -0.4134 -1.8104
  125MOL    H6520153   4.601   5.966   7.698 -1.3792 -0.9755  0.6330
  125MOL    C6620154   4.744   5.737   7.744 -0.0280  0.6295 -0.0597
  125MOL    C6720155   4.885   5.660   7.770  0.1229 -0.5758 -0.2041
  125MOL    C6820156   4.960   5.720   0.028  1.1384 -0.8585 -0.3393
  125MOL    O6920157   4.910   5.821   0.078 -0.5238  0.0099  0.6843
  125MOL    H7020158   4.662   5.667   7.728 -0.2231  0.8222  0.0949
  125MOL    H7120159   4.714   5.806   7.823  1.5047 -0.1082  1.2088
  125MOL    H7220160   4.946   5.663   7.679 -2.4096  4.2604 -1.9027
  125MOL    H7320161   4.879   5.553   7.794  1.7871 -0.6812 -0.1963
  125MOL    C7420162   5.075   5.638   0.081  0.0532 -0.2300  0.0431
  125MOL    C7520163   5.099   5.685   0.229 -0.3113 -0.7330 -0.1818
  125MOL    C7620164   5.198   5.802   0.254  0.1515  0.0627  0.0765
  125MOL    O7720165   5.298   5.814   0.182  0.4669  0.2832 -0.5558
  125MOL    H7820166   5.171   5.642   0.030  0.3867  1.1745  0.7623
  125MOL    H7920167   5.040   5.535   0.074 -0.4467  0.0563 -1.8260
  125MOL    H8020168   5.129   5.598   0.287 -1.3666 -0.9112  0.1243
  125MOL    H8120169   5.004   5.716   0.273  0.8273  0.7212  1.3442
  125MOL    C8220170   5.151   5.910   0.356 -0.1645 -0.1637  0.4210
  125MOL    C8320171   5.243   6.035   0.357  0.0760 -0.6120  0.3574
  125MOL    C8420172   5.157   6.160   0.360  0.2858  0.5261  0.6269
  125MOL    O8520173   5.091   6.198   0.259  0.7770  0.5497 -0.9649
  125MOL    H8620174   5.158   5.875   0.459  1.4930 -1.8138 -0.2027
  125MOL    H8720175   5.047   5.939   0.339 -0.5539 -2.3383 -1.2441
  125MOL    H8820176   5.304   6.041   0.267  0.7072  1.6427  0.8842
  125MOL    H8920177   5.310   6.039   0.443  1.1914 -0.1453 -0.5129
  125MOL    C9020178   5.160   6.241   0.488 -0.7930 -0.3364 -0.0690
  125MOL    C9120179   5.055   6.193   0.588  0.3364  0.1239  0.0797
  125MOL    C9220180   5.116   6.111   0.704  0.2121 -1.0745 -0.1280
  125MOL    O9320181   5.216   6.040   0.695 -0.3267 -0.2694  0.4463
  125MOL    H9420182   5.141   6.348   0.486  0.8561 -0.0333 -0.6711
  125MOL    H9520183   5.258   6.219   0.531 -0.8246 -1.1942 -0.4167
  125MOL    H9620184   4.979   6.139   0.532  0.3506  1.1844 -0.9783
  125MOL    H9720185   5.003   6.281   0.626 -1.5266 -0.6661 -0.5522
  125MOL    C9820186   5.029   6.119   0.828  0.3551  0.8588 -0.2259
  125MOL    C9920187   5.099   6.155   0.961 -0.2840  0.3623  0.0502
  125MOL   C10020188   5.072   6.053   1.069  0.0914  0.4016 -0.0775
  125MOL   O10120189   5.047   5.932   1.043 -0.0526  0.2877  0.1249
  125MOL   H10220190   4.984   6.021   0.842  1.2439  0.5703  0.6223
  125MOL   H10320191   4.943   6.183   0.806 -0.1239 -0.4176 -2.2608
  125MOL   H10420192   5.044   6.243   0.996 -3.1743 -2.3069  2.6412
  125MOL   H10520193   5.206   6.175   0.964  0.1554 -1.9633  0.5579
  125MOL   C10620194   5.089   6.097   1.214 -0.3893  0.2155 -0.0161
  125MOL   C10720195   5.051   5.982   1.308 -0.6316  0.5514  0.4614
  125MOL   C10820196   4.911   6.002   1.371  0.4659 -0.2358  0.5076
  125MOL   O10920197   4.868   6.114   1.398  0.7076  0.4043 -0.2945
  125MOL   H11020198   5.017   6.178   1.225 -0.5981  0.0877 -0.4363
  125MOL   H11120199   5.189   6.137   1.235  0.1329 -1.6400  1.1205
  125MOL   H11220200   5.128   5.982   1.385  1.4882  1.7568 -1.5906
  125MOL   H11320201   5.057   5.879   1.273 -3.3855  0.4443  0.1750
  125MOL   C11420202   4.822   5.884   1.374 -0.0537  0.4204 -0.0271
  125MOL   C11520203   4.670   5.917   1.371 -0.1244  0.2408 -0.5349
  125MOL   C11620204   4.595   5.895   1.504  0.5609  0.3068  0.4163
  125MOL   O11720205   4.646   5.900   1.612 -0.0159  0.2566 -0.7277
  125MOL   H11820206   4.846   5.822   1.460  2.7902 -1.4501 -2.0599
  125MOL   H11920207   4.839   5.834   1.278 -0.4609  3.4633 -1.7621
  125MOL   H12020208   4.609   5.858   1.303  1.1107 -1.4064 -0.2247
  125MOL   H12120209   4.650   6.017   1.331  1.9807  1.2096  0.7512
  125MOL   C12220210   4.445   5.881   1.492 -0.7131 -0.1642 -0.3033
  125MOL   C12320211   4.389   5.747   1.525 -0.0969  0.1194  0.3965
  125MOL   C12420212   4.404   5.644   1.404  0.0331 -0.4076  0.1711
  125MOL   O12520213   4.491   5.651   1.318 -0.0518  0.0284  0.1587
  125MOL   H12620214   4.428   5.924   1.393  0.9175  0.8774 -0.1450
  125MOL   H12720215   4.396   5.954   1.556 -1.0203 -0.1025 -0.6002
  125MOL   H12820216   4.285   5.748   1.557 -0.5491  1.4187 -1.0224
  125MOL   H12920217   4.450   5.699   1.601  1.1652  0.0784 -0.6132
  125MOL   C13020218   4.312   5.525   1.405 -0.4631 -0.3304 -0.0465
  125MOL   C13120219   4.308   5.429   1.281 -0.0184 -0.2907 -0.0535
  125MOL   C13220220   4.221   5.497   1.171 -0.1743 -0.1034 -0.3351
  125MOL   O13320221   4.127   5.567   1.204 -0.0243  0.6003 -0.1829
  125MOL   H13420222   4.214   5.556   1.440 -1.3381 -1.1608 -1.6831
  125MOL   H13520223   4.358   5.474   1.490  0.8914 -2.9890 -2.2887
  125MOL   H13620224   4.251   5.339   1.307 -0.2875  0.3644  1.6665
  125MOL   H13720225   4.406   5.396   1.247 -0.1035 -1.0952  0.4677
  125MOL   C13820226   4.254   5.481   1.024 -0.2461  0.4035  0.0789
  125MOL   C13920227   4.218   5.583   0.924 -0.9348 -0.2989  0.2581
  125MOL   C14020228   4.333   5.656   0.852 -0.1421  0.4951  0.6071
  125MOL   O14120229   4.389   5.600   0.759  0.2483  0.0699 -0.1082
  125MOL   H14220230   4.203   5.392   0.987  0.7444  0.0418 -0.4213
  125MOL   H14320231   4.361   5.463   1.027 -0.4074 -0.4204  2.1564
  125MOL   H14420232   4.161   5.661   0.974  1.3596 -0.1853  2.8569
  125MOL   H14520233   4.146   5.538   0.855 -0.6818 -0.2484 -0.0377
  125MOL   C14620234   4.387   5.790   0.907 -0.1479 -0.4610 -0.1365
  125MOL   C14720235   4.487   5.858   0.809  0.4516  0.4653 -0.8040
  125MOL   C14820236   4.633   5.834   0.847  0.0270 -0.8062 -0.5794
  125MOL   O14920237   4.666   5.813   0.967 -0.1546  0.4097  0.4693
  125MOL   H15020238   4.414   5.773   1.011 -2.7141  1.3573  0.8922
  125MOL   H15120239   4.298   5.853   0.917  0.4620  0.2152  1.1194
  125MOL   H15220240   4.461   5.964   0.803 -5.1878 -0.6838  0.3044
  125MOL   H15320241   4.469   5.831   0.705 -1.0211  2.9707 -1.2385
  125MOL   C15420242   4.736   5.832   0.732  0.1410 -1.0328  0.1341
  125MOL   C15520243   4.864   5.753   0.760  0.8085  0.5031 -0.0016
  125MOL   C15620244   4.938   5.718   0.634  0.2621 -0.9377 -0.1749
  125MOL   O15720245   4.941   5.798   0.542 -0.1355  0.0951  0.3399
  125MOL   H15820246   4.759   5.932   0.696  0.9050 -2.5852 -3.9005
  125MOL   H15920247   4.700   5.782   0.642  0.5604  1.0876 -1.2304
  125MOL   H16020248   4.822   5.659   0.794  1.7430 -1.1083 -3.1281
  125MOL   H16120249   4.929   5.788   0.840 -0.9157 -0.4929  1.8773
  125MOL   H16220250   4.971   5.615   0.626 -0.6810 -1.3698  1.2516
  126MOL     C120251   4.705   3.122   3.172 -0.2424  0.0669 -0.1219
  126MOL     C220252   4.775   3.217   3.262 -0.3641 -0.3719 -0.2155
  126MOL     C320253   4.914   3.181   3.294  0.2004  0.6946 -0.2033
  126MOL     O420254   4.963   3.070   3.283 -0.5729  0.3684  0.6676
  126MOL     H520255   4.599   3.139   3.157 -0.2373 -0.1055 -0.3632
  126MOL     H620256   4.753   3.118   3.073 -1.2562  1.9452 -0.7014
  126MOL     H720257   4.724   3.242   3.355  1.0423  2.9172 -0.2641
  126MOL     H820258   4.787   3.300   3.192 -2.0466 -0.7101 -0.9260
  126MOL     H920259   4.728   3.029   3.225  0.3239  0.0043 -0.4628
  126MOL    C1020260   4.994   3.299   3.337 -0.1107 -0.1874  0.0853
  126MOL    C1120261   5.143   3.280   3.351 -0.2046  0.0080 -0.1012
  126MOL    C1220262   5.227   3.396   3.288  0.3030  0.5918  0.0456
  126MOL    O1320263   5.174   3.496   3.249 -1.0565  1.0329  0.6624
  126MOL    H1420264   4.951   3.333   3.431  2.5926 -0.3933  1.4242
  126MOL    H1520265   4.971   3.377   3.264  1.2905 -0.4334 -0.6389
  126MOL    H1620266   5.181   3.187   3.306  0.6906  0.0888  0.4764
  126MOL    H1720267   5.158   3.266   3.458  0.5775  1.7804  0.0279
  126MOL    C1820268   5.381   3.373   3.286  0.0761 -0.1788 -0.4536
  126MOL    C1920269   5.461   3.507   3.249 -0.1540  0.3589  0.2624
  126MOL    C2020270   5.516   3.514   3.106 -0.7603  0.1161 -0.0789
  126MOL    O2120271   5.506   3.429   3.023 -0.0180  0.4211 -0.2247
  126MOL    H2220272   5.399   3.291   3.216  0.2875 -0.9738  0.5328
  126MOL    H2320273   5.418   3.357   3.387  1.7792  2.4421 -0.6292
  126MOL    H2420274   5.544   3.522   3.318  0.9642 -1.6981 -0.6129
  126MOL    H2520275   5.402   3.599   3.262 -1.5809 -0.4173 -0.5866
  126MOL    C2620276   5.577   3.650   3.067 -0.0444 -0.0729 -0.4772
  126MOL    C2720277   5.690   3.629   2.963 -0.1108 -0.1209 -0.1976
  126MOL    C2820278   5.815   3.711   2.990  0.4751  0.0093 -0.0062
  126MOL    O2920279   5.817   3.803   3.073 -0.2581 -0.3888  0.7520
  126MOL    H3020280   5.619   3.699   3.154  1.5675 -1.3661 -0.4922
  126MOL    H3120281   5.502   3.719   3.028 -1.8696 -1.0244  1.2920
  126MOL    H3220282   5.651   3.641   2.862 -0.9013 -0.4153  0.0710
  126MOL    H3320283   5.731   3.528   2.962 -1.2647 -0.5960  0.1296
  126MOL    C3420284   5.930   3.679   2.896  0.7233 -0.4607 -0.0952
  126MOL    C3520285   5.913   3.745   2.758  0.5672  0.6409  0.0726
  126MOL    C3620286   6.040   3.728   2.676  0.4634  0.5887 -0.0281
  126MOL    O3720287   6.114   3.830   2.662  0.2023  0.3521 -0.3176
  126MOL    H3820288   5.943   3.572   2.876  1.5572 -0.2986 -0.4599
  126MOL    H3920289   6.020   3.711   2.949  1.1523 -1.8321  0.0282
  126MOL    H4020290   5.909   3.854   2.760  2.3912  0.7146  1.4050
  126MOL    H4120291   5.827   3.707   2.702  1.8207 -3.1310  0.5788
  126MOL    C4220292   6.075   3.587   2.615 -0.1604  0.3314 -0.5247
  126MOL    C4320293   6.220   3.570   2.554  0.1478 -0.3260 -0.2906
  126MOL    C4420294   6.276   3.431   2.587  0.7004 -0.1658 -0.4258
  126MOL    O4520295   6.233   3.355   2.678  0.0490  0.0109  0.1167
  126MOL    H4620296   6.009   3.575   2.529  0.5232 -0.2243 -0.9739
  126MOL    H4720297   6.054   3.510   2.690  0.4287 -2.4332 -3.1414
  126MOL    H4820298   6.289   3.643   2.595 -0.5376 -0.5590  1.3572
  126MOL    H4920299   6.211   3.567   2.446 -0.7780  1.7563 -0.2851
  126MOL    C5020300   6.376   3.380   2.490 -0.2044  0.3387  0.1986
  126MOL    C5120301   6.417   3.235   2.523 -0.7468 -0.0879  0.5285
  126MOL    C5220302   6.542   3.193   2.443  0.3774 -0.8253  0.2244
  126MOL    O5320303   6.557   3.224   2.323  0.4229  0.3785  0.3118
  126MOL    H5420304   6.464   3.444   2.503  1.0741 -1.4620  0.5742
  126MOL    H5520305   6.350   3.380   2.384  2.1692 -0.1685 -0.4227
  126MOL    H5620306   6.327   3.175   2.507 -2.0195  1.6899  0.8488
  126MOL    H5720307   6.433   3.230   2.631 -0.4427 -0.2815  0.4763
  126MOL    C5820308   6.655   3.135   2.522  0.0297  0.1768 -0.0392
  126MOL    C5920309   6.791   3.136   2.450 -0.9095  0.2027 -0.2356
  126MOL    C6020310   6.924   3.139   2.534  0.1044 -0.5896  0.0852
  126MOL    O6120311   6.913   3.159   2.659  0.1620  0.1597  0.3559
  126MOL    H6220312   6.632   3.029   2.513 -0.5612  0.3331 -0.3632
  126MOL    H6320313   6.643   3.169   2.625  1.6196  2.6461 -0.6177
  126MOL    H6420314   6.795   3.231   2.397  1.3931  0.6733  0.7211
  126MOL    H6520315   6.794   3.052   2.381 -1.3467 -0.7516  0.8915
  126MOL    C6620316   7.056   3.136   2.468  0.1349 -0.2139 -0.4365
  126MOL    C6720317   7.180   3.178   2.556  0.8886  0.1493  0.2875
  126MOL    C6820318   7.276   3.065   2.576  0.6406 -0.0938 -0.1195
  126MOL    O6920319   7.251   2.945   2.568  0.6778  0.3494  0.1446
  126MOL    H7020320   7.053   3.211   2.389 -5.2876  0.5347  0.2531
  126MOL    H7120321   7.074   3.040   2.419 -1.5289  0.0471 -1.5698
  126MOL    H7220322   7.140   3.205   2.654  0.0360 -0.7643  0.2062
  126MOL    H7320323   7.242   3.259   2.520  2.4689 -0.5158  1.4361
  126MOL    C7420324   7.412   3.109   2.620 -0.5979 -0.1774 -0.8300
  126MOL    C7520325   7.478   3.010   2.719 -0.7955  0.6536 -0.8452
  126MOL    C7620326   7.612   2.953   2.660  0.7683 -1.1201 -0.2968
  126MOL    O7720327   7.606   2.909   2.543 -0.1174 -0.5845 -0.6475
  126MOL    H7820328   7.406   3.209   2.663  0.1865  0.3150 -1.8325
  126MOL    H7920329   7.480   3.122   2.536  0.2392 -3.0419 -0.6647
  126MOL    H8020330   7.425   2.916   2.737 -0.0908  0.5460  0.7212
  126MOL    H8120331   7.506   3.054   2.814  1.8357  1.1536 -1.8222
  126MOL    C8220332   7.739   2.943   2.754  0.2106  0.1669  0.8808
  126MOL    C8320333   7.850   2.851   2.704  0.2082  0.4849 -0.0226
  126MOL    C8420334   7.832   2.717   2.767  0.3381  0.5350 -0.6768
  126MOL    O8520335   7.844   2.704   2.885 -0.0785  0.5612  0.2747
  126MOL    H8620336   7.707   2.913   2.854 -0.0814 -1.8975  0.2058
  126MOL    H8720337   7.785   3.041   2.764 -0.3408  0.4846  0.3174
  126MOL    H8820338   0.091   2.896   2.710  0.3579  0.2699 -0.7939
  126MOL    H8920339   7.826   2.824   2.601  1.7314 -1.2718  0.0726
  126MOL    C9020340   7.803   2.591   2.680  0.3948  0.3647  0.2009
  126MOL    C9120341   7.670   2.574   2.618 -0.0455 -0.1628 -0.3019
  126MOL    C9220342   7.660   2.617   2.469  0.2503 -0.4396 -0.2960
  126MOL    O9320343   7.765   2.627   2.404 -0.8219 -0.0713 -0.1892
  126MOL    H9420344   7.830   2.504   2.740  0.8015  1.3975  1.5517
  126MOL    H9520345   0.025   2.585   2.607 -1.4531 -1.1051 -1.7822
  126MOL    H9620346   7.591   2.625   2.674  0.4864  1.0735 -0.6514
  126MOL    H9720347   7.648   2.469   2.636  0.1131 -0.2221 -0.4542
  126MOL    C9820348   7.520   2.638   2.410  0.4238 -0.2877 -0.1576
  126MOL    C9920349   7.527   2.645   2.247 -0.4126 -0.3429  0.1183
  126MOL   C10020350   7.479   2.513   2.183  0.4427 -0.2860  0.3211
  126MOL   O10120351   7.380   2.450   2.229  0.0460 -0.4559  0.0320
  126MOL   H10220352   7.483   2.727   2.461 -1.1368  0.4563 -2.5246
  126MOL   H10320353   7.450   2.558   2.434  1.1252 -0.6761  0.6333
  126MOL   H10420354   7.628   2.654   2.207 -0.3126 -2.1938 -0.1088
  126MOL   H10520355   7.477   2.734   2.209 -0.0385 -0.0320  0.3545
  126MOL   C10620356   7.553   2.468   2.056  0.0866 -0.0179 -0.1537
  126MOL   C10720357   7.503   2.519   1.923 -0.0058  0.1448  0.1544
  126MOL   C10820358   7.507   2.408   1.813  0.2465 -0.0146 -0.4799
  126MOL   O10920359   7.422   2.319   1.819 -0.0546 -0.2785  0.2924
  126MOL   H11020360   7.568   2.361   2.043 -0.2219 -0.0430 -0.3015
  126MOL   H11120361   7.659   2.492   2.063  0.1514 -0.7956  1.9110
  126MOL   H11220362   7.559   2.606   1.889  1.2803 -0.5642  0.4188
  126MOL   H11320363   7.396   2.539   1.932 -0.0415 -0.3222  0.8244
  126MOL   C11420364   7.620   2.396   1.715 -0.4671 -0.1748 -0.4900
  126MOL   C11520365   7.606   2.259   1.640 -0.4959 -0.0913 -0.4585
  126MOL   C11620366   7.721   2.245   1.536  0.7075  0.2640 -0.6744
  126MOL   O11720367   7.811   2.330   1.531 -0.1593 -0.0576 -0.4200
  126MOL   H11820368   7.719   2.414   1.757 -0.7979 -0.1517  0.3019
  126MOL   H11920369   7.600   2.473   1.641  0.8575 -2.3412 -3.1671
  126MOL   H12020370   7.507   2.251   1.595 -1.1802 -1.2458  1.1868
  126MOL   H12120371   7.615   2.173   1.707 -4.2575 -1.2283 -1.3055
  126MOL   C12220372   7.714   2.125   1.443  0.3026  0.3504  0.5538
  126MOL   C12320373   7.845   2.084   1.373 -0.0549 -0.4514 -0.5710
  126MOL   C12420374   7.827   2.034   1.232  0.3692 -0.0949 -0.6745
  126MOL   O12520375   7.718   1.983   1.190 -0.0458 -0.8325  0.5577
  126MOL   H12620376   7.640   2.147   1.365 -0.5484 -1.4100  0.8465
  126MOL   H12720377   7.668   2.039   1.490 -0.0702 -0.4974 -1.2885
  126MOL   H12820378   0.025   2.002   1.433  1.3595  0.0821 -0.7387
  126MOL   H12920379   0.063   2.162   1.383 -0.6567 -0.1313  2.0656
  126MOL   C13020380   0.080   2.072   1.138 -0.0472 -0.2100  0.1770
  126MOL   C13120381   0.022   2.126   1.002  0.1412  0.0519 -0.1821
  126MOL   C13220382   0.055   2.037   0.883  0.4580 -1.1103  0.4037
  126MOL   O13320383   0.126   1.938   0.896  0.2594 -0.1243  0.2974
  126MOL   H13420384   0.154   1.993   1.132  0.4255  0.4047 -2.5496
  126MOL   H13520385   0.138   2.152   1.183 -0.3826  0.9841 -1.4914
  126MOL   H13620386   0.059   2.226   0.980 -2.4370  1.2792  0.9240
  126MOL   H13720387   7.772   2.130   1.000  0.0930 -0.6259  0.6571
  126MOL   C13820388   7.854   2.083   0.745 -0.0917  0.6128  0.5190
  126MOL   C13920389   0.017   1.988   0.638 -0.6535  0.4720  0.4146
  126MOL   C14020390   7.775   1.996   0.530 -0.6213 -0.3402  0.9290
  126MOL   O14120391   7.655   2.016   0.546  0.6018  0.6855  0.0798
  126MOL   H14220392   0.042   2.176   0.714 -1.1655  0.8813 -0.3283
  126MOL   H14320393   7.747   2.094   0.760 -0.5673 -0.3254 -1.9529
  126MOL   H14420394   0.002   1.891   0.686 -1.5272  1.0426  1.3124
  126MOL   H14520395   0.121   1.999   0.609 -0.6513  1.2661  0.7005
  126MOL   C14620396   7.827   1.979   0.390 -0.4832 -0.3137  0.0198
  126MOL   C14720397   7.714   1.915   0.304  0.3268 -0.4044  0.3394
  126MOL   C14820398   7.759   1.813   0.200  0.6036 -0.1167 -0.0318
  126MOL   O14920399   0.020   1.795   0.183 -0.0538 -0.2871  0.0145
  126MOL   H15020400   0.049   1.906   0.395  0.1095  0.0294 -3.0407
  126MOL   H15120401   0.006   2.075   0.353  0.2124 -0.4506  0.3711
  126MOL   H15220402   7.656   1.992   0.252  0.7331 -0.5339 -0.3105
  126MOL   H15320403   7.647   1.862   0.372 -0.6376 -0.8203 -0.9216
  126MOL   C15420404   7.666   1.724   0.126 -0.2486 -0.5865 -0.4866
  126MOL   C15520405   7.722   1.640   0.006 -0.0514 -0.7167  0.5101
  126MOL   C15620406   7.710   1.491   0.026  0.2805 -0.2135 -0.6754
  126MOL   O15720407   7.756   1.430   0.128  0.0182 -0.7883 -0.6609
  126MOL   H15820408   7.575   1.776   0.097  0.8495  1.9522  0.4007
  126MOL   H15920409   7.625   1.654   0.199 -0.9699  1.5540  1.2414
  126MOL   H16020410   7.828   1.656   7.844 -0.6013  0.0861 -1.8449
  126MOL   H16120411   7.674   1.683   7.777  1.4543 -1.7334 -0.8156
  126MOL   H16220412   7.663   1.440   7.801  1.0998 -1.2615 -0.5143
  127MOL     C120413   7.338   6.357   7.403  0.5509  0.2078  0.2375
  127MOL     C220414   7.306   6.354   7.555 -0.6922  0.5542 -0.1985
  127MOL     C320415   7.180   6.268   7.589  0.0379  0.0950  0.5009
  127MOL     O420416   7.105   6.219   7.506  0.2315 -0.1705  0.1203
  127MOL     H520417   7.351   6.254   7.369  1.3237  0.1597  0.6630
  127MOL     H620418   7.258   6.400   7.345 -0.4468 -0.7970  0.8371
  127MOL     H720419   7.277   6.456   7.578 -3.7949 -0.6070  1.3647
  127MOL     H820420   7.393   6.321   7.612 -0.4854  0.0453 -0.8087
  127MOL     H920421   7.433   6.409   7.390  0.6698 -0.1659 -0.4066
  127MOL    C1020422   7.148   6.266   7.736 -0.7628  0.0771  0.2650
  127MOL    C1120423   7.011   6.242   7.779  0.6189  0.2510 -0.8952
  127MOL    C1220424   6.908   6.346   7.739  0.2192 -0.1410  0.1763
  127MOL    O1320425   6.933   6.468   7.749  0.0089 -0.0176  0.2685
  127MOL    H1420426   7.166   6.365   7.778 -0.6615 -0.8448  2.4600
  127MOL    H1520427   7.211   6.188   7.778  0.1631  0.2312 -0.8270
  127MOL    H1620428   7.000   6.240   0.028 -1.3265  0.0967 -1.0758
  127MOL    H1720429   6.987   6.138   7.756 -0.4249 -0.2023  2.0202
  127MOL    C1820430   6.782   6.292   7.679  0.4549 -0.4007 -0.1891
  127MOL    C1920431   6.661   6.389   7.710  0.3875 -0.3464 -0.6839
  127MOL    C2020432   6.575   6.339   7.824 -0.3046  0.3595  0.6096
  127MOL    O2120433   6.576   6.219   0.001 -0.4281 -0.0693 -0.0405
  127MOL    H2220434   6.767   6.186   7.699  1.0493 -0.3901  0.3160
  127MOL    H2320435   6.788   6.289   7.570  0.0538 -0.6083 -0.2071
  127MOL    H2420436   6.610   6.402   7.615 -0.5293  0.1161 -0.1314
  127MOL    H2520437   6.693   6.487   7.745 -0.1349 -0.8070  1.0974
  127MOL    C2620438   6.485   6.445   0.024  0.4281  0.0891 -0.0626
  127MOL    C2720439   6.548   6.508   0.152 -0.4881 -0.1679  0.2711
  127MOL    C2820440   6.583   6.654   0.142 -0.2414 -0.2519  0.2496
  127MOL    O2920441   6.512   6.729   0.074 -0.4474  0.1747 -0.1086
  127MOL    H3020442   6.389   6.402   0.053  0.7609  0.9581  2.4289
  127MOL    H3120443   6.452   6.519   7.810  1.0085 -1.4067 -1.8827
  127MOL    H3220444   6.635   6.458   0.195  0.8544  2.5600  0.7953
  127MOL    H3320445   6.477   6.500   0.234  4.2358 -1.1643  4.4757
  127MOL    C3420446   6.696   6.709   0.231  0.2296  0.1994 -0.3183
  127MOL    C3520447   6.801   6.773   0.130  0.3946  0.1112  0.0879
  127MOL    C3620448   6.787   6.925   0.134 -0.0894  0.7827 -0.1287
  127MOL    O3720449   6.842   7.000   0.209  0.4544 -0.5702  0.3362
  127MOL    H3820450   6.731   6.632   0.299 -1.3167 -1.6676 -1.5783
  127MOL    H3920451   6.664   6.795   0.290 -0.1217 -0.5586  0.6014
  127MOL    H4020452   6.809   6.741   0.026 -0.8468 -0.7092  0.2337
  127MOL    H4120453   6.894   6.741   0.176  0.6689 -0.5944 -0.9294
  127MOL    C4220454   6.693   6.979   0.033 -0.2352 -0.0710  0.3108
  127MOL    C4320455   6.749   7.107   7.826 -0.2699 -0.2254  0.0703
  127MOL    C4420456   6.857   7.079   7.726  0.0094  0.4282  0.3530
  127MOL    O4520457   6.882   6.967   7.683 -0.0626 -0.2550 -0.3655
  127MOL    H4620458   6.602   6.995   0.091 -0.2903  0.1841  0.1559
  127MOL    H4720459   6.658   6.913   7.812 -1.7595  1.1492 -0.0556
  127MOL    H4820460   6.769   7.190   0.034 -0.9178 -1.2115  1.5334
  127MOL    H4920461   6.674   7.154   7.762 -0.7514 -0.8556  0.1566
  127MOL    C5020462   6.951   7.195   7.692  0.3085 -0.2467  0.2015
  127MOL    C5120463   7.090   7.189   7.752 -0.6219 -0.2370  0.1239
  127MOL    C5220464   7.202   7.272   7.699 -0.2208  0.6770  0.0644
  127MOL    O5320465   7.210   7.304   7.583 -0.0984  0.4653  0.2854
  127MOL    H5420466   6.914   7.291   7.729  1.1537  0.0075  0.4269
  127MOL    H5520467   6.946   7.195   7.583  1.1405 -0.9072  0.1561
  127MOL    H5620468   7.113   7.085   7.731 -2.6859 -0.8443  0.6616
  127MOL    H5720469   7.085   7.199   0.002 -0.6314 -0.8627  0.1796
  127MOL    C5820470   7.312   7.317   7.799 -0.5311  0.1592  0.4221
  127MOL    C5920471   7.437   7.222   7.808  0.2724  0.6036 -0.0395
  127MOL    C6020472   7.444   7.133   0.069  0.2219 -0.6355 -0.1074
  127MOL    O6120473   7.345   7.117   0.138 -0.4617 -0.2730 -0.1702
  127MOL    H6220474   7.266   7.331   0.038  2.6962 -0.7349  2.1460
  127MOL    H6320475   7.350   7.413   7.766 -1.2343 -0.0801 -1.1277
  127MOL    H6420476   7.525   7.286   7.807 -0.0638  1.1510 -3.7466
  127MOL    H6520477   7.445   7.155   7.722 -0.0991 -1.3197  1.3828
  127MOL    C6620478   7.567   7.064   0.092 -0.1984  0.0642 -0.0480
  127MOL    C6720479   7.599   7.047   0.240  0.4047  0.0734  0.3172
  127MOL    C6820480   7.698   6.943   0.280  0.2176  0.2423  0.3352
  127MOL    O6920481   7.789   6.914   0.200 -0.2881  0.2751  0.0232
  127MOL    H7020482   7.651   7.111   0.040 -0.6382 -0.1145 -0.9177
  127MOL    H7120483   7.565   6.967   0.043 -0.5626  1.8413 -3.6740
  127MOL    H7220484   7.503   7.028   0.288  0.0404  0.5936 -0.1981
  127MOL    H7320485   7.636   7.145   0.270 -1.3346  0.1299  2.3895
  127MOL    C7420486   7.667   6.877   0.414  0.3890  0.1582  0.1607
  127MOL    C7520487   7.533   6.799   0.420 -0.3219 -0.3912 -0.5355
  127MOL    C7620488   7.499   6.732   0.555 -0.2770  0.1392 -0.2241
  127MOL    O7720489   7.566   6.751   0.657  0.0099  0.4596 -0.0326
  127MOL    H7820490   7.677   6.950   0.494 -0.3697  0.7608 -0.2828
  127MOL    H7920491   7.741   6.801   0.437 -0.8138 -1.0122  0.2557
  127MOL    H8020492   7.544   6.725   0.341  1.0365  0.3397 -1.0594
  127MOL    H8120493   7.451   6.868   0.399  1.9621  3.0397  1.3204
  127MOL    C8220494   7.365   6.653   0.564  0.7391 -0.0662  0.2708
  127MOL    C8320495   7.328   6.600   0.701  0.0265 -0.0635 -0.4949
  127MOL    C8420496   7.308   6.445   0.703  0.1073  0.7010  0.1706
  127MOL    O8520497   7.231   6.383   0.619 -0.0238 -0.1163 -0.2958
  127MOL    H8620498   7.358   6.576   0.487 -0.5635 -1.1180  1.4029
  127MOL    H8720499   7.287   6.726   0.542  1.5627  0.0966 -2.3276
  127MOL    H8820500   7.230   6.640   0.728  0.5507 -0.3374  1.9291
  127MOL    H8920501   7.390   6.617   0.789 -0.2292  2.3441 -0.7649
  127MOL    C9020502   7.379   6.357   0.805 -0.3049 -0.2796 -0.5131
  127MOL    C9120503   7.290   6.261   0.887  0.2484 -0.1735  0.6105
  127MOL    C9220504   7.279   6.121   0.830 -0.6100 -0.4099  0.0719
  127MOL    O9320505   7.372   6.039   0.829  0.1413 -0.1128 -0.5823
  127MOL    H9420506   7.421   6.433   0.871 -1.6749  0.6049 -0.6348
  127MOL    H9520507   7.463   6.304   0.761  0.2329 -2.1548  2.6220
  127MOL    H9620508   7.190   6.303   0.887  0.6635  0.8385 -0.2125
  127MOL    H9720509   7.309   6.262   0.995  1.1921  1.7334  0.4513
  127MOL    C9820510   7.146   6.083   0.767  0.1171 -0.2333 -0.4737
  127MOL    C9920511   7.146   6.011   0.635  0.3332 -0.0405 -0.4009
  127MOL   C10020512   7.066   5.882   0.632  0.4969  0.1992 -0.1033
  127MOL   O10120513   7.052   5.810   0.736 -0.1339 -0.1756  0.1475
  127MOL   H10220514   7.095   6.179   0.759  0.9562  0.0620 -2.5931
  127MOL   H10320515   7.090   6.023   0.838 -0.1557  0.5956  0.0160
  127MOL   H10420516   7.248   5.980   0.609  0.2669 -0.5578 -0.0644
  127MOL   H10520517   7.106   6.078   0.560  1.1676 -1.1150 -1.8392
  127MOL   C10620518   6.995   5.843   0.498 -0.1204  0.0265  0.3025
  127MOL   C10720519   6.881   5.740   0.515  0.0310  0.4278 -0.4850
  127MOL   C10820520   6.739   5.785   0.487  0.2549 -0.4993 -0.1528
  127MOL   O10920521   6.717   5.906   0.467 -0.8382  0.0297  0.1621
  127MOL   H11020522   7.081   5.811   0.439  0.8743  0.0579  1.6981
  127MOL   H11120523   6.961   5.940   0.463 -0.7337  0.7286  2.7337
  127MOL   H11220524   6.879   5.697   0.615 -1.9736 -1.2315 -1.2100
  127MOL   H11320525   6.901   5.653   0.454  0.8601 -0.0532  0.4539
  127MOL   C11420526   6.628   5.686   0.500 -0.2012  0.4234 -0.2319
  127MOL   C11520527   6.486   5.734   0.449 -0.0055 -0.3206 -0.0821
  127MOL   C11620528   6.393   5.758   0.569  0.0228 -0.0472 -0.5025
  127MOL   O11720529   6.415   5.714   0.678 -0.5165  0.1321 -0.2570
  127MOL   H11820530   6.634   5.654   0.604 -0.1350  0.3579 -0.2553
  127MOL   H11920531   6.661   5.596   0.447 -0.5415 -0.2388  0.6748
  127MOL   H12020532   6.438   5.656   0.390  0.9801 -1.2351  0.3016
  127MOL   H12120533   6.500   5.820   0.383  1.3420  0.0392  0.6456
  127MOL   C12220534   6.262   5.826   0.545  0.0733  0.0422  0.1595
  127MOL   C12320535   6.144   5.725   0.523  0.9814  0.3420  0.3318
  127MOL   C12420536   6.056   5.788   0.418 -0.8535  0.5232 -0.2588
  127MOL   O12520537   6.000   5.898   0.442  0.3291  1.2719 -0.6641
  127MOL   H12620538   6.280   5.882   0.453  0.3679  0.3885  0.4295
  127MOL   H12720539   6.255   5.902   0.623 -1.1270  1.1659 -1.0136
  127MOL   H12820540   6.087   5.709   0.615 -0.5769 -0.5987 -0.7674
  127MOL   H12920541   6.169   5.628   0.480 -0.2972  0.6990 -1.2846
  127MOL   C13020542   6.048   5.707   0.288  0.6847  0.1193  0.4552
  127MOL   C13120543   5.952   5.762   0.182  0.2070 -0.8975  0.0182
  127MOL   C13220544   5.808   5.705   0.200  0.7479  0.6370  0.2167
  127MOL   O13320545   5.766   5.678   0.309  0.0583 -0.5390  0.1199
  127MOL   H13420546   6.016   5.610   0.325 -0.9043 -0.4466 -2.2144
  127MOL   H13520547   6.145   5.691   0.242  0.9316  0.0814  0.9933
  127MOL   H13620548   5.986   5.746   0.080 -2.2563  0.7975 -1.1112
  127MOL   H13720549   5.946   5.871   0.188  2.6262 -0.6997 -0.4231
  127MOL   C13820550   5.733   5.695   0.069 -0.0154 -0.0463  0.0702
  127MOL   C13920551   5.590   5.638   0.084 -0.3713  0.3086  0.2813
  127MOL   C14020552   5.565   5.514   0.159  0.1576  0.9142  0.0301
  127MOL   O14120553   5.638   5.416   0.141 -0.2688 -0.5365  0.7649
  127MOL   H14220554   5.796   5.636   0.004  0.5131 -0.7491  1.1987
  127MOL   H14320555   5.734   5.796   0.030  1.5543  0.3289  1.0236
  127MOL   H14420556   5.549   5.635   7.843 -1.5727  1.5652  0.7086
  127MOL   H14520557   5.535   5.715   0.138 -1.6730 -0.9355  0.7578
  127MOL   C14620558   5.449   5.517   0.256 -0.6236 -0.2230 -0.0054
  127MOL   C14720559   5.445   5.399   0.347 -0.3319  0.3166 -0.4769
  127MOL   C14820560   5.329   5.408   0.447 -0.5668 -0.1999  0.0634
  127MOL   O14920561   5.267   5.515   0.452  0.4319  0.5756 -0.2029
  127MOL   H15020562   5.356   5.533   0.201 -0.5410  0.0888 -0.0537
  127MOL   H15120563   5.459   5.604   0.320  2.3648 -0.4035 -0.1612
  127MOL   H15220564   5.539   5.389   0.400  0.6790  1.4099 -2.0205
  127MOL   H15320565   5.438   5.303   0.296 -1.6343 -1.5942  3.1170
  127MOL   C15420566   5.290   5.282   0.520  0.1955 -0.3177  0.2028
  127MOL   C15520567   5.241   5.311   0.668  0.0099 -0.2738 -1.3220
  127MOL   C15620568   5.092   5.335   0.685 -0.1210 -0.2709  0.3451
  127MOL   O15720569   5.016   5.241   0.674 -0.5112 -0.2651 -0.0877
  127MOL   H15820570   5.372   5.210   0.525  1.5378  1.2152  0.8635
  127MOL   H15920571   5.210   5.243   0.458  1.9036 -1.1885 -1.5074
  127MOL   H16020572   5.298   5.386   0.724 -3.2972  2.3955 -1.3569
  127MOL   H16120573   5.266   5.225   0.730  1.0818  1.6659  1.0165
  127MOL   H16220574   5.059   5.439   0.689  0.6393  0.0878 -1.7325
  128MOL     C120575   5.904   6.715   6.584  0.2140  0.1242  0.0514
  128MOL     C220576   5.874   6.854   6.625  0.5129  0.3736 -0.1230
  128MOL     C320577   5.991   6.931   6.682 -0.3983  0.1258 -0.9717
  128MOL     O420578   6.075   6.884   6.764 -0.0039  0.1783  0.7471
  128MOL     H520579   5.823   6.643   6.593  2.2233 -2.2803 -0.3968
  128MOL     H620580   5.938   6.720   6.481 -0.1645 -0.0580 -0.0831
  128MOL     H720581   5.796   6.845   6.701  1.4013  1.6741  0.9592
  128MOL     H820582   5.833   6.911   6.542 -1.7592 -2.3337 -0.9562
  128MOL     H920583   5.986   6.678   6.647 -0.0162 -1.0168 -0.3047
  128MOL    C1020584   5.997   7.079   6.641  0.7010 -0.2106 -0.3315
  128MOL    C1120585   6.116   7.157   6.712  0.9363 -0.1611 -0.3371
  128MOL    C1220586   6.250   7.145   6.644 -0.7245  0.7151 -0.0285
  128MOL    O1320587   6.255   7.092   6.535 -0.1931  0.2939 -0.5997
  128MOL    H1420588   5.904   7.122   6.679  1.2199 -0.3565  1.1495
  128MOL    H1520589   6.001   7.096   6.534  0.7283  0.3077 -0.2500
  128MOL    H1620590   6.140   7.145   6.817 -2.3614  0.2787  0.5022
  128MOL    H1720591   6.093   7.263   6.705  0.8548 -0.0573  1.3062
  128MOL    C1820592   6.361   7.231   6.693 -0.3285  0.2710  0.3776
  128MOL    C1920593   6.442   7.306   6.582 -0.3211  0.2477 -0.5610
  128MOL    C2020594   6.595   7.307   6.601 -0.1899  0.1371  0.4213
  128MOL    O2120595   6.653   7.294   6.710 -0.1114  0.6208 -0.0014
  128MOL    H2220596   6.430   7.161   6.738 -0.4413 -1.9931 -2.8094
  128MOL    H2320597   6.324   7.307   6.762 -1.5977 -0.2389  0.2577
  128MOL    H2420598   6.425   7.413   6.582  0.1428  0.3238 -0.4082
  128MOL    H2520599   6.424   7.270   6.480 -1.0406  0.4797 -0.5180
  128MOL    C2620600   6.679   7.341   6.476 -0.0934 -0.1213  0.1436
  128MOL    C2720601   6.786   7.449   6.500 -0.2761 -0.1331  0.2988
  128MOL    C2820602   6.718   7.586   6.540 -0.0598  0.5982  0.0915
  128MOL    O2920603   6.596   7.610   6.537 -0.2223 -0.5091  0.4174
  128MOL    H3020604   6.609   7.387   6.407 -2.1403 -0.2462  2.0665
  128MOL    H3120605   6.723   7.245   6.447  0.7708  0.7614 -1.5048
  128MOL    H3220606   6.839   7.472   6.407 -0.4607  1.1998  0.5026
  128MOL    H3320607   6.858   7.418   6.575 -0.1230 -0.6840 -0.0738
  128MOL    C3420608   6.801   7.697   6.596 -0.2757  0.0578 -0.4994
  128MOL    C3520609   6.723   7.811   6.662  0.5627 -0.2733  0.3633
  128MOL    C3620610   6.821   0.049   6.726  0.2669  0.7038  0.4286
  128MOL    O3720611   6.936   0.017   6.754  0.0735  0.0932  0.6246
  128MOL    H3820612   6.848   7.733   6.505 -2.3910 -0.4975 -1.8484
  128MOL    H3920613   6.881   7.659   6.659 -0.1996  2.4478  0.9439
  128MOL    H4020614   6.656   7.773   6.739 -2.8748  2.0952 -1.2907
  128MOL    H4120615   6.658   7.856   6.587  0.7174  0.0443  0.4161
  128MOL    C4220616   6.769   0.191   6.749  0.0017  0.0196  0.0515
  128MOL    C4320617   6.881   0.304   6.743 -0.3736 -0.3300  0.2702
  128MOL    C4420618   6.855   0.423   6.658  1.0770 -0.9243  0.1805
  128MOL    O4520619   6.813   0.407   6.541 -0.0652 -0.0031  0.4838
  128MOL    H4620620   6.754   0.189   6.857  1.9531 -0.9965  0.3332
  128MOL    H4720621   6.678   0.214   6.694  0.2553  0.6685 -0.1040
  128MOL    H4820622   6.974   0.258   6.710 -1.3907 -1.4591 -1.0907
  128MOL    H4920623   6.889   0.342   6.845 -1.7576 -0.4177  0.4276
  128MOL    C5020624   6.880   0.563   6.710  0.7876  0.5531 -0.0048
  128MOL    C5120625   6.807   0.680   6.642  0.0334 -0.8118  0.4711
  128MOL    C5220626   6.893   0.750   6.538 -0.8131 -0.0857 -0.1047
  128MOL    O5320627   7.006   0.706   6.506 -0.5398  0.1120  0.6202
  128MOL    H5420628   6.985   0.579   6.733  0.8387 -0.2266  0.3425
  128MOL    H5520629   6.844   0.564   6.813  1.2599 -1.6066  0.2055
  128MOL    H5620630   6.767   0.753   6.713 -0.1632 -0.3244 -0.1417
  128MOL    H5720631   6.718   0.639   6.594 -0.5430  0.1632  0.6946
  128MOL    C5820632   6.847   0.884   6.493  1.2424 -0.0023 -0.1275
  128MOL    C5920633   6.934   0.938   6.383  0.1173 -0.0788 -0.4368
  128MOL    C6020634   6.856   1.029   6.288  0.2594 -0.2459  0.4324
  128MOL    O6120635   6.742   1.000   6.246  1.0054 -0.5924 -0.6810
  128MOL    H6220636   6.844   0.945   6.584  1.3141 -0.0100 -0.1196
  128MOL    H6320637   6.743   0.874   6.464  1.1857 -3.0363  0.9913
  128MOL    H6420638   6.980   0.867   6.315 -1.3833 -0.7357 -0.7786
  128MOL    H6520639   7.008   1.003   6.431 -2.3219  2.3663  0.1948
  128MOL    C6620640   6.934   1.135   6.219 -0.0349  0.3005 -0.4657
  128MOL    C6720641   6.866   1.236   6.122 -0.8085 -0.9074  0.7571
  128MOL    C6820642   6.960   1.291   6.016  1.2140 -0.0242 -0.3462
  128MOL    O6920643   7.085   1.288   6.025 -0.0308  0.0252 -0.3544
  128MOL    H7020644   7.014   1.089   6.161 -1.3485 -2.1040 -0.4384
  128MOL    H7120645   6.988   1.194   6.292  1.4693  0.3861 -1.6274
  128MOL    H7220646   6.820   1.314   6.182  1.9477  1.8893 -0.6530
  128MOL    H7320647   6.779   1.188   6.076 -1.0069  0.1811 -0.0211
  128MOL    C7420648   6.896   1.356   5.896 -0.5066 -0.3054 -0.3532
  128MOL    C7520649   7.001   1.423   5.808 -0.0220  0.1672  0.2810
  128MOL    C7620650   6.941   1.503   5.696 -0.0053 -0.0752 -0.2459
  128MOL    O7720651   6.816   1.503   5.682  0.1582  0.4372  0.1106
  128MOL    H7820652   6.831   1.436   5.933  0.0146 -0.3055  0.5763
  128MOL    H7920653   6.826   1.288   5.847 -0.2970 -0.7105 -0.0853
  128MOL    H8020654   7.073   1.351   5.768 -0.0904 -0.7359  1.7675
  128MOL    H8120655   7.057   1.489   5.874 -1.0422 -1.3908  2.7856
  128MOL    C8220656   7.037   1.573   5.600  0.8758 -0.6873 -0.8844
  128MOL    C8320657   6.969   1.611   5.464 -0.4372 -0.3590 -0.4163
  128MOL    C8420658   6.948   1.760   5.457  0.0124 -0.4246  0.1981
  128MOL    O8520659   6.963   1.824   5.563  0.1073 -0.2468  0.0371
  128MOL    H8620660   7.114   1.502   5.567  0.3541 -0.0893 -3.5738
  128MOL    H8720661   7.090   1.655   5.648  1.5734 -0.8791 -1.3072
  128MOL    H8820662   6.873   1.560   5.455 -2.0877  2.6468 -0.7845
  128MOL    H8920663   7.037   1.577   5.387 -0.4109 -0.1288 -0.4978
  128MOL    C9020664   6.890   1.810   5.326 -0.2950 -0.1477 -0.5629
  128MOL    C9120665   6.827   1.948   5.331  0.1161 -0.2367 -0.0440
  128MOL    C9220666   6.928   2.053   5.286  0.2088 -1.1818 -0.4065
  128MOL    O9320667   7.047   2.026   5.297  0.6301 -0.2089 -0.2914
  128MOL    H9420668   6.818   1.732   5.302  1.0955 -1.5374 -0.3122
  128MOL    H9520669   6.965   1.805   5.246 -0.4395 -0.8126 -0.6642
  128MOL    H9620670   6.805   1.967   5.436  2.1349 -1.3969  0.6171
  128MOL    H9720671   6.733   1.952   5.276 -0.7845  0.9654  1.5407
  128MOL    C9820672   6.866   2.178   5.220  0.7349  0.5599 -0.1715
  128MOL    C9920673   6.970   2.285   5.174  0.2430  0.3506  0.0565
  128MOL   C10020674   7.054   2.355   5.283  0.2137 -0.4864 -0.2228
  128MOL   O10120675   7.007   2.376   5.396 -0.4206 -0.4090 -0.1047
  128MOL   H10220676   6.793   2.227   5.284 -1.1454 -1.4041 -0.7808
  128MOL   H10320677   6.801   2.141   5.141  1.9584 -1.0522 -0.4674
  128MOL   H10420678   6.908   2.361   5.125  0.3779  0.2226 -0.3146
  128MOL   H10520679   7.046   2.244   5.107  0.4734  0.2520  0.3777
  128MOL   C10620680   7.193   2.399   5.251 -0.0787  0.2936  0.0133
  128MOL   C10720681   7.242   2.526   5.317 -0.0827  0.6119  0.6691
  128MOL   C10820682   7.277   2.634   5.222  0.1568  0.2175  0.0682
  128MOL   O10920683   7.211   2.647   5.118  0.2222  0.4791 -0.4818
  128MOL   H11020684   7.212   2.415   5.145  1.2626  0.8827  0.3388
  128MOL   H11120685   7.261   2.318   5.276  0.7592  0.2669 -2.3166
  128MOL   H11220686   7.332   2.497   5.372  1.2316  2.9112 -0.2135
  128MOL   H11320687   7.176   2.557   5.398 -0.7231  0.9747  0.0079
  128MOL   C11420688   7.382   2.734   5.260 -0.1478  1.2086 -0.0771
  128MOL   C11520689   7.381   2.868   5.181 -0.6264  0.4514  0.2762
  128MOL   C11620690   7.510   2.900   5.108 -0.2361 -0.0544 -0.7167
  128MOL   O11720691   7.604   2.819   5.109  0.1966 -0.3837  0.0983
  128MOL   H11820692   7.481   2.690   5.271 -0.8128 -0.6327 -1.1463
  128MOL   H11920693   7.353   2.745   5.364 -0.7210  1.0535 -0.2194
  128MOL   H12020694   7.343   2.947   5.247 -0.4508  1.9339 -1.3651
  128MOL   H12120695   7.313   2.859   5.096 -0.5791  1.8110  0.0790
  128MOL   C12220696   7.518   3.022   5.027 -0.4851  0.2231 -0.6620
  128MOL   C12320697   7.654   3.040   4.968  0.4508  0.0731 -0.1395
  128MOL   C12420698   7.636   3.149   4.861 -0.5128 -0.2664 -0.6170
  128MOL   O12520699   7.597   3.259   4.905 -0.0369 -0.0525 -0.1691
  128MOL   H12620700   7.473   3.103   5.084  0.1813 -0.3015  0.6357
  128MOL   H12720701   7.442   2.999   4.953  0.5870  1.8179 -2.2935
  128MOL   H12820702   7.693   2.950   4.921 -0.4110  0.9281 -2.5979
  128MOL   H12920703   7.728   3.083   5.034 -1.5755  2.2996  0.7855
  128MOL   C13020704   7.669   3.117   4.718 -0.6090 -0.2711  0.4759
  128MOL   C13120705   7.563   3.023   4.656  0.4274  0.5482 -1.2500
  128MOL   C13220706   7.463   3.102   4.576 -0.4409 -0.1713 -0.2077
  128MOL   O13320707   7.357   3.136   4.629  0.0391 -0.0290 -0.0230
  128MOL   H13420708   7.764   3.063   4.722 -0.8160 -0.5351  2.4594
  128MOL   H13520709   7.686   3.208   4.661 -0.2824 -0.0319  0.9527
  128MOL   H13620710   7.508   2.960   4.727  1.8762 -0.4731 -0.9988
  128MOL   H13720711   7.610   2.963   4.578 -0.6409 -1.1923 -0.6108
  128MOL   C13820712   7.499   3.161   4.440 -0.4519 -0.1844 -0.1822
  128MOL   C13920713   7.474   3.315   4.433  0.1095 -0.5139 -0.6002
  128MOL   C14020714   7.359   3.340   4.334  0.1840  0.0725  0.2920
  128MOL   O14120715   7.243   3.321   4.372 -0.2871 -0.2287 -0.2861
  128MOL   H14220716   7.437   3.107   4.368 -3.5150  0.7700  1.6653
  128MOL   H14320717   7.601   3.139   4.406  0.2254  1.2185  0.9015
  128MOL   H14420718   7.557   3.360   4.378  0.2871 -1.0318 -0.7565
  128MOL   H14520719   7.450   3.361   4.529  1.8440  1.1114 -0.8982
  128MOL   C14620720   7.394   3.389   4.189  0.4950 -0.6967 -0.3624
  128MOL   C14720721   7.280   3.382   4.086 -0.1760  0.0339 -0.4903
  128MOL   C14820722   7.159   3.476   4.121 -1.0679 -0.2160 -0.6403
  128MOL   O14920723   7.185   3.594   4.133  0.1125  0.3982 -0.2917
  128MOL   H15020724   7.479   3.329   4.158  0.0989 -1.2279 -0.4247
  128MOL   H15120725   7.419   3.495   4.198  0.0318 -0.5560 -0.7298
  128MOL   H15220726   7.243   3.280   4.081  0.2315 -0.1186 -0.4084
  128MOL   H15320727   7.311   3.399   3.983 -1.4461  1.0732 -0.7170
  128MOL   C15420728   7.023   3.408   4.134 -0.2376 -0.4270 -0.0349
  128MOL   C15520729   6.919   3.498   4.211  0.2321 -0.0889 -0.4323
  128MOL   C15620730   6.784   3.496   4.143  0.2997 -0.1970  0.0005
  128MOL   O15720731   6.771   3.454   4.025  0.0318 -0.1205  0.5292
  128MOL   H15820732   7.051   3.315   4.183  0.7940 -1.3281 -2.2367
  128MOL   H15920733   6.993   3.391   4.030  1.4071 -0.1983 -0.5590
  128MOL   H16020734   6.962   3.598   4.209 -0.7553  0.3426 -0.4727
  128MOL   H16120735   6.914   3.469   4.316  1.1946  0.9083 -0.1010
  128MOL   H16220736   6.698   3.517   4.206 -0.1246 -1.3402 -0.1826
  129MOL     C120737   6.960   3.692   4.941  0.4132 -0.4662  0.4113
  129MOL     C220738   6.934   3.779   5.054 -0.7143  0.2308  0.2265
  129MOL     C320739   6.797   3.746   5.124 -0.1880 -0.5221  0.5281
  129MOL     O420740   6.690   3.755   5.063  0.0567 -0.5425 -0.2816
  129MOL     H520741   6.990   3.594   4.979  1.8081 -0.9180 -1.7890
  129MOL     H620742   6.879   3.694   4.868 -0.2882  2.0901  1.1935
  129MOL     H720743   6.929   3.886   5.034  1.9240  0.4550  0.5602
  129MOL     H820744   7.017   3.763   5.122 -0.0261  2.2652 -0.1004
  129MOL     H920745   7.048   3.730   4.889  0.9699 -2.0442  0.1718
  129MOL    C1020746   6.796   3.705   5.275  0.3964 -0.2660  0.6867
  129MOL    C1120747   6.898   3.770   5.369 -0.6713 -0.5410 -0.0639
  129MOL    C1220748   7.032   3.692   5.389  0.1141 -0.0218 -0.7192
  129MOL    O1320749   7.054   3.577   5.335  0.1693 -0.0178 -0.2567
  129MOL    H1420750   6.812   3.597   5.270 -1.1537 -0.5376  1.3996
  129MOL    H1520751   6.702   3.716   5.328  0.4605 -0.8378  0.9244
  129MOL    H1620752   6.863   3.780   5.471  0.9057  2.4206  0.2197
  129MOL    H1720753   6.910   3.873   5.335 -0.6508 -0.7925 -0.8450
  129MOL    C1820754   7.129   3.761   5.478  0.1059 -0.1896 -0.6015
  129MOL    C1920755   7.278   3.699   5.475 -0.2382  0.2987  0.6021
  129MOL    C2020756   7.310   3.618   5.596 -0.0895 -0.1856 -0.9386
  129MOL    O2120757   7.230   3.589   5.682  0.4756  0.2044  1.0444
  129MOL    H2220758   7.098   3.772   5.582  1.7611 -1.2357  0.0268
  129MOL    H2320759   7.133   3.867   5.453  0.4259 -0.2606 -0.8637
  129MOL    H2420760   7.338   3.790   5.475  0.5419 -0.2027 -1.3346
  129MOL    H2520761   7.297   3.640   5.385  0.6296 -0.4838  1.2968
  129MOL    C2620762   7.457   3.574   5.618  0.4984 -0.6081 -0.6142
  129MOL    C2720763   7.501   3.525   5.760  0.8452  1.0317  0.9550
  129MOL    C2820764   7.534   3.382   5.780 -0.2226  0.1364 -0.2082
  129MOL    O2920765   7.643   3.340   5.751  0.5062 -0.1488 -0.1056
  129MOL    H3020766   7.522   3.653   5.581 -1.4230  1.2481 -0.1516
  129MOL    H3120767   7.470   3.500   5.539  2.4220 -0.3370 -0.5629
  129MOL    H3220768   7.417   3.536   5.829 -0.4830 -0.0538 -0.4598
  129MOL    H3320769   7.576   3.590   5.804  0.4304  1.1545  1.4947
  129MOL    C3420770   7.440   3.295   5.861 -0.1036  0.3491 -0.4478
  129MOL    C3520771   7.425   3.151   5.806 -0.2013 -0.1402  0.0164
  129MOL    C3620772   7.324   3.133   5.688  0.2743  0.4270 -0.1043
  129MOL    O3720773   7.302   3.227   5.615  0.0639 -0.0281  0.3635
  129MOL    H3820774   7.341   3.340   5.862  0.6326  2.0492 -1.7262
  129MOL    H3920775   7.482   3.275   5.960  0.1960  1.6051 -0.3114
  129MOL    H4020776   7.403   3.082   5.887 -0.3328  0.2908  0.3466
  129MOL    H4120777   7.518   3.112   5.764 -0.6726 -0.1411 -1.0447
  129MOL    C4220778   7.257   2.990   5.675  0.2148 -0.2927 -0.1097
  129MOL    C4320779   7.111   2.996   5.624  0.5160 -0.0158  0.5308
  129MOL    C4420780   7.084   2.942   5.477 -0.1177  0.3715  0.1415
  129MOL    O4520781   7.132   2.834   5.444  0.1270  1.0919 -0.1531
  129MOL    H4620782   7.246   2.946   5.774 -2.1141 -0.0024 -0.2104
  129MOL    H4720783   7.330   2.920   5.635  1.1455 -0.1412  1.2796
  129MOL    H4820784   7.067   3.096   5.622 -1.4652 -0.8565  0.5294
  129MOL    H4920785   7.043   2.935   5.683 -0.8783  1.3229  0.3547
  129MOL    C5020786   7.001   3.027   5.384 -0.4566 -0.0207  0.3245
  129MOL    C5120787   6.946   2.954   5.260  0.4435 -0.9366 -0.6889
  129MOL    C5220788   6.794   2.929   5.272  1.4380 -0.1513 -0.3733
  129MOL    O5320789   6.742   2.863   5.366  0.6499  0.2098  0.6848
  129MOL    H5420790   7.084   3.087   5.347 -1.5462  1.9313  1.0077
  129MOL    H5520791   6.939   3.097   5.440 -0.9256  0.2182 -0.4870
  129MOL    H5620792   6.984   2.853   5.244  1.3353 -0.7786  0.3593
  129MOL    H5720793   6.972   3.003   5.166 -1.2892  0.2005 -0.5859
  129MOL    C5820794   6.705   2.981   5.166 -0.4147  0.3901  0.3660
  129MOL    C5920795   6.569   3.024   5.231 -0.4101 -0.3322 -0.0660
  129MOL    C6020796   6.468   2.914   5.211  0.4960 -0.0473 -0.2484
  129MOL    O6120797   6.462   2.836   5.119  0.0679  0.1110  0.0564
  129MOL    H6220798   6.704   2.898   5.095  0.0434  0.7432 -0.0603
  129MOL    H6320799   6.756   3.068   5.124  1.8266 -0.8523  0.3917
  129MOL    H6420800   6.527   3.113   5.184  3.8668  1.6238 -0.3773
  129MOL    H6520801   6.583   3.047   5.336  0.8881  0.6368 -0.4388
  129MOL    C6620802   6.357   2.902   5.317 -0.1693  0.8426  0.6386
  129MOL    C6720803   6.248   2.802   5.276  0.0191 -0.1047 -0.1630
  129MOL    C6820804   6.138   2.790   5.379  0.0485  0.5862  0.1736
  129MOL    O6920805   6.088   2.896   5.425  0.1377 -0.6331  0.5751
  129MOL    H7020806   6.333   3.008   5.332 -1.8208  0.7358 -1.0434
  129MOL    H7120807   6.400   2.885   5.415  4.1347 -0.3069 -1.3689
  129MOL    H7220808   6.290   2.706   5.247 -0.2170  0.2451 -1.6998
  129MOL    H7320809   6.189   2.829   5.189  0.1026 -1.6608 -0.7180
  129MOL    C7420810   6.104   2.645   5.422  0.6022 -0.1327 -0.4921
  129MOL    C7520811   6.116   2.621   5.572 -0.2928 -0.2050 -0.0660
  129MOL    C7620812   6.265   2.606   5.614 -0.9535  0.7414  0.5100
  129MOL    O7720813   6.356   2.636   5.533  0.2957 -0.0615  0.6166
  129MOL    H7820814   6.152   2.569   5.360  2.9589  1.9810 -1.3443
  129MOL    H7920815   5.999   2.639   5.394  0.4224  1.1194 -0.1336
  129MOL    H8020816   6.067   2.525   5.587 -3.3914  1.1674 -1.0185
  129MOL    H8120817   6.062   2.693   5.633  1.3463  0.5580  0.4975
  129MOL    C8220818   6.308   2.550   5.750 -0.0633  0.0647  0.0856
  129MOL    C8320819   6.425   2.626   5.810 -0.1021 -0.1120  0.1253
  129MOL    C8420820   6.463   2.575   5.948 -0.4829 -0.2775 -0.2080
  129MOL    O8520821   6.408   2.478   5.993 -0.0704 -0.1054  0.3620
  129MOL    H8620822   6.345   2.451   5.724  2.3627  0.4974  1.7028
  129MOL    H8720823   6.222   2.532   5.814 -2.5142  1.1320 -2.7807
  129MOL    H8820824   6.383   2.723   5.835  0.5038  0.1410  0.1592
  129MOL    H8920825   6.513   2.622   5.747  1.4808 -2.6070  2.3628
  129MOL    C9020826   6.582   2.650   6.018  0.2135  0.4065 -0.1071
  129MOL    C9120827   6.651   2.569   6.134  0.4342  0.7137 -0.0752
  129MOL    C9220828   6.588   2.571   6.269  0.3113 -0.8698  0.7837
  129MOL    O9320829   6.469   2.608   6.276 -0.1509  0.5064 -0.0498
  129MOL    H9420830   6.542   2.741   6.062 -2.1963 -0.1795 -0.9886
  129MOL    H9520831   6.667   2.664   5.952 -1.3041 -0.6914 -2.3574
  129MOL    H9620832   6.750   2.606   6.161  0.1698  1.5013 -0.1607
  129MOL    H9720833   6.672   2.467   6.102 -0.2891  0.0871  1.4060
  129MOL    C9820834   6.659   2.521   6.392  0.0736  0.6067  0.2331
  129MOL    C9920835   6.585   2.539   6.527 -0.3102 -0.2569  0.7804
  129MOL   C10020836   6.632   2.433   6.628 -0.0820  0.1652  0.1887
  129MOL   O10120837   6.724   2.358   6.600 -0.5317  0.4516 -0.6974
  129MOL   H10220838   6.759   2.563   6.388  0.4917 -0.4851 -1.4671
  129MOL   H10320839   6.688   2.416   6.385 -0.0082  0.6259 -0.4669
  129MOL   H10420840   6.479   2.527   6.510  0.2929 -0.4123 -3.2025
  129MOL   H10520841   6.587   2.638   6.574 -0.6808 -0.2138  0.7048
  129MOL   C10620842   6.564   2.433   6.765  0.0593 -0.5457  0.1582
  129MOL   C10720843   6.626   2.332   6.864 -0.4762  0.0811 -0.3606
  129MOL   C10820844   6.575   2.359   7.003  0.2020 -0.2529 -0.7955
  129MOL   O10920845   6.486   2.294   7.054  0.3378  0.1200  0.0256
  129MOL   H11020846   6.460   2.418   6.738 -0.1477  1.1561 -0.0068
  129MOL   H11120847   6.575   2.530   6.813 -2.7540 -0.7955  1.3848
  129MOL   H11220848   6.732   2.357   6.865 -0.6578  0.8400  0.6572
  129MOL   H11320849   6.616   2.229   6.829 -1.4185  0.2407 -0.5858
  129MOL   C11420850   6.661   2.448   7.089  0.8804  0.1807  0.1299
  129MOL   C11520851   6.745   2.365   7.187  0.1466 -0.4306 -0.1826
  129MOL   C11620852   6.736   2.416   7.329  0.4051 -0.1183  0.6593
  129MOL   O11720853   6.683   2.348   7.415  0.3751  1.1164  0.4234
  129MOL   H11820854   6.605   2.522   7.147 -0.1618 -0.6474  0.1884
  129MOL   H11920855   6.733   2.494   7.021  0.3934  0.7993  0.0235
  129MOL   H12020856   6.853   2.366   7.173  0.0079  0.5899 -1.3028
  129MOL   H12120857   6.728   2.258   7.184  2.5488 -0.8112 -1.2677
  129MOL   C12220858   6.816   2.546   7.355  1.3383  0.5545 -0.2272
  129MOL   C12320859   6.762   2.642   7.455  0.0644 -0.0332 -0.1393
  129MOL   C12420860   6.628   2.707   7.434  0.2533  0.5919  0.5211
  129MOL   O12520861   6.574   2.718   7.322  0.0794 -0.6394  0.3074
  129MOL   H12620862   6.817   2.599   7.260  0.8232  1.8470  0.4703
  129MOL   H12720863   6.918   2.519   7.381  1.7531  2.1898 -0.0970
  129MOL   H12820864   6.841   2.716   7.469  0.1394  0.0302 -0.9062
  129MOL   H12920865   6.760   2.587   7.550  0.3342 -0.8615 -0.6061
  129MOL   C13020866   6.557   2.772   7.558 -0.5175  0.3814 -0.3723
  129MOL   C13120867   6.511   2.922   7.539  0.1833 -0.4075 -0.4149
  129MOL   C13220868   6.360   2.940   7.513  0.3663 -0.6990  0.5511
  129MOL   O13320869   6.275   2.933   7.603  0.3817 -0.2170 -0.0847
  129MOL   H13420870   6.625   2.770   7.643 -1.9645 -2.3529  0.8119
  129MOL   H13520871   6.479   2.701   7.589  1.7403 -2.1356 -0.2387
  129MOL   H13620872   6.567   2.969   7.458 -0.4739  1.9191  0.4277
  129MOL   H13720873   6.526   2.979   7.631  1.5844 -0.4661 -0.5912
  129MOL   C13820874   6.312   2.950   7.366  0.1885 -0.9856 -0.4986
  129MOL   C13920875   6.210   3.065   7.342  0.3495  0.4411  0.1078
  129MOL   C14020876   6.132   3.045   7.212  0.7747 -0.4575  0.8113
  129MOL   O14120877   6.112   2.934   7.168  0.0064 -0.0041  0.1568
  129MOL   H14220878   6.297   2.848   7.330  2.1582 -1.4591 -0.0595
  129MOL   H14320879   6.398   2.975   7.303 -0.7783  0.9530 -1.0809
  129MOL   H14420880   6.274   3.153   7.343  1.4739 -0.3491 -0.9156
  129MOL   H14520881   6.144   3.067   7.429 -1.1865  1.0385 -1.0514
  129MOL   C14620882   6.065   3.173   7.160 -0.1625  0.2541 -0.6253
  129MOL   C14720883   6.035   3.174   7.010 -0.5542  0.2573  0.3306
  129MOL   C14820884   5.900   3.109   6.962  0.1283  0.4323 -0.4631
  129MOL   O14920885   5.805   3.092   7.031  0.4625  0.1532  0.2485
  129MOL   H15020886   6.137   3.253   7.177  2.0016 -1.8026  0.2863
  129MOL   H15120887   5.977   3.201   7.217 -1.1495 -1.9795 -1.0098
  129MOL   H15220888   6.115   3.123   6.957 -0.9797  1.1871 -1.2415
  129MOL   H15320889   6.048   3.277   6.978  1.6899 -0.7169 -2.0065
  129MOL   C15420890   5.884   3.079   6.811  0.3270  0.4864  0.0849
  129MOL   C15520891   5.862   2.929   6.790 -0.6701 -0.1115  0.0473
  129MOL   C15620892   5.759   2.887   6.683  0.2555  0.1561  0.7765
  129MOL   O15720893   5.688   2.971   6.626 -0.1559  0.2898  0.7443
  129MOL   H15820894   5.971   3.107   6.752 -0.5853 -0.6870 -1.8601
  129MOL   H15920895   5.800   3.133   6.767  1.3782  1.7527 -0.3671
  129MOL   H16020896   5.833   2.878   6.882  0.2596 -1.1986 -0.2457
  129MOL   H16120897   5.943   2.864   6.758 -0.1773  1.2365 -1.4926
  129MOL   H16220898   5.756   2.780   6.663  1.2075  0.4397 -0.9967
  130MOL     C120899   3.281   7.592   5.698 -0.7263 -0.2263  0.5474
  130MOL     C220900   3.385   7.704   5.698  0.6009 -0.1435 -0.2733
  130MOL     C320901   3.488   7.694   5.814  0.4675 -0.3584  0.5909
  130MOL     O420902   3.476   7.618   5.905  0.6539 -0.1604  0.4375
  130MOL     H520903   3.236   7.599   5.797 -0.3300  1.5732  0.6292
  130MOL     H620904   3.202   7.621   5.629  0.9133  4.1826  0.3560
  130MOL     H720905   3.335   7.800   5.710 -1.0942 -0.6971 -2.5951
  130MOL     H820906   3.443   7.728   5.609 -0.6875  3.5248 -0.1899
  130MOL     H920907   3.333   7.501   5.669  1.2205  0.8923  0.4481
  130MOL    C1020908   3.592   7.809   5.814  0.2589  0.3365 -0.1561
  130MOL    C1120909   3.736   7.754   5.817  0.5936  0.2735  0.3231
  130MOL    C1220910   3.804   7.764   5.958  0.1712 -1.1136  0.4068
  130MOL    O1320911   3.739   7.766   6.066 -0.1934  0.0833  0.0796
  130MOL    H1420912   3.574   0.002   5.908  0.0811  1.4515 -0.8030
  130MOL    H1520913   3.576   0.023   5.734  3.2412  3.0495  1.5959
  130MOL    H1620914   3.800   7.812   5.750  0.8464 -0.9088 -0.4694
  130MOL    H1720915   3.744   7.650   5.785 -0.2844  0.2304  0.2471
  130MOL    C1820916   3.956   7.765   5.963 -0.6592  0.0749 -0.4080
  130MOL    C1920917   4.013   7.772   6.106 -0.1281  0.1148  0.3987
  130MOL    C2020918   4.157   7.713   6.097  0.0908  0.3245  0.3179
  130MOL    O2120919   4.229   7.730   5.998 -0.0338 -0.2023 -1.0439
  130MOL    H2220920   3.996   7.841   5.897  0.2495 -0.9688 -1.0834
  130MOL    H2320921   3.995   7.673   5.919  0.5201 -0.0454  0.8598
  130MOL    H2420922   3.959   7.705   6.173 -0.6109  1.9405  1.8802
  130MOL    H2520923   3.999   0.012   6.150 -2.9404 -0.2397  0.3597
  130MOL    C2620924   4.215   7.653   6.229 -0.7205  0.3094 -0.3150
  130MOL    C2720925   4.342   7.570   6.201  0.5650 -0.0816  0.4515
  130MOL    C2820926   4.396   7.497   6.328  0.5184  0.3976 -0.2073
  130MOL    O2920927   4.367   7.535   6.438 -0.4053 -0.1314  0.3755
  130MOL    H3020928   4.137   7.585   6.263 -0.8774  0.0778 -1.1243
  130MOL    H3120929   4.230   7.723   6.312 -1.4783 -0.9382  0.9051
  130MOL    H3220930   4.425   7.618   6.149  2.0511 -0.4921  2.3567
  130MOL    H3320931   4.317   7.489   6.132 -0.6303 -0.5081  1.3671
  130MOL    C3420932   4.480   7.375   6.298  0.2949  0.1158 -0.0435
  130MOL    C3520933   4.552   7.315   6.418  0.2693  0.1397  0.1164
  130MOL    C3620934   4.477   7.196   6.475 -0.5683 -0.2335  0.2710
  130MOL    O3720935   4.363   7.160   6.433 -0.3910 -0.0285  0.4084
  130MOL    H3820936   4.567   7.407   6.241  2.5087 -2.0524  1.9735
  130MOL    H3920937   4.419   7.306   6.240 -1.2095  1.7893 -0.4775
  130MOL    H4020938   4.564   7.400   6.486  0.4377 -0.8057  1.2694
  130MOL    H4120939   4.652   7.290   6.385  0.4793 -1.8688  2.1407
  130MOL    C4220940   4.557   7.119   6.589  0.5344 -0.2965  0.6267
  130MOL    C4320941   4.606   6.980   6.528 -0.0355 -0.0666  0.3851
  130MOL    C4420942   4.733   6.941   6.600 -0.1391  0.0971  0.6178
  130MOL    O4520943   4.743   6.955   6.723 -0.8216 -0.0964  1.0034
  130MOL    H4620944   4.493   7.105   6.676  0.7647  1.0473  1.0315
  130MOL    H4720945   4.637   7.187   6.619 -0.0256 -1.5843  5.3915
  130MOL    H4820946   4.633   7.003   6.425  0.5991 -0.1251  0.5387
  130MOL    H4920947   4.531   6.901   6.529 -1.4426  1.2277 -0.9218
  130MOL    C5020948   4.833   6.857   6.521  0.5097  0.0285 -0.3758
  130MOL    C5120949   4.943   6.790   6.603 -0.2850 -0.0225 -0.6112
  130MOL    C5220950   5.060   6.747   6.519  0.9058 -0.4111 -0.2698
  130MOL    O5320951   5.166   6.809   6.528  0.0240 -0.0287 -0.4228
  130MOL    H5420952   4.883   6.923   6.450 -0.0738 -2.6734 -3.3887
  130MOL    H5520953   4.787   6.791   6.447 -0.9600  1.3719 -0.6970
  130MOL    H5620954   4.904   6.695   6.641  1.4474 -0.2457  0.6847
  130MOL    H5720955   4.984   6.855   6.680 -3.6688  3.0802 -1.2746
  130MOL    C5820956   5.046   6.619   6.437  0.1035 -0.0064  0.4647
  130MOL    C5920957   5.093   6.502   6.516  0.9476 -0.0470  0.4133
  130MOL    C6020958   5.052   6.366   6.457  0.1486 -0.3029 -0.2114
  130MOL    O6120959   4.985   6.361   6.355  0.0778 -0.2858 -0.3093
  130MOL    H6220960   5.109   6.623   6.348 -2.5063 -1.8294 -1.5502
  130MOL    H6320961   4.951   6.606   6.385 -0.2572  1.9022  0.6095
  130MOL    H6420962   5.058   6.499   6.620  3.9909  1.2093  1.5305
  130MOL    H6520963   5.201   6.510   6.508  0.6628  1.9111 -2.2164
  130MOL    C6620964   5.083   6.242   6.541 -0.1629  0.5440 -0.5844
  130MOL    C6720965   4.966   6.141   6.560  0.5403 -0.2883  0.4433
  130MOL    C6820966   4.992   6.003   6.496  0.8252  0.4454 -0.2590
  130MOL    O6920967   5.106   5.971   6.449 -0.1027  0.3423 -0.0084
  130MOL    H7020968   5.117   6.276   6.639  0.4787  0.4829 -0.7889
  130MOL    H7120969   5.171   6.187   6.508  0.4237  0.3946  1.1715
  130MOL    H7220970   4.876   6.176   6.510  0.2974  1.4596  2.0448
  130MOL    H7320971   4.932   6.126   6.663 -0.2696 -1.2426  0.0441
  130MOL    C7420972   4.873   5.910   6.465  0.0337 -0.0726 -0.5956
  130MOL    C7520973   4.894   5.797   6.370  0.4783  0.6143  0.4277
  130MOL    C7620974   4.757   5.742   6.324  0.3084 -0.5752 -0.5868
  130MOL    O7720975   4.653   5.746   6.394  0.0497  0.3728 -0.3400
  130MOL    H7820976   4.794   5.979   6.436  0.6111  0.3386 -1.2174
  130MOL    H7920977   4.843   5.874   6.563 -1.6043  2.1549 -0.2407
  130MOL    H8020978   4.949   5.722   6.427 -0.2501 -1.3129 -1.3482
  130MOL    H8120979   4.958   5.815   6.283  0.8736 -0.3409  0.5173
  130MOL    C8220980   4.754   5.667   6.193  0.3841 -0.2514  0.0722
  130MOL    C8320981   4.710   5.754   6.077 -0.1175 -0.4336  0.3346
  130MOL    C8420982   4.658   5.677   5.952 -0.0052  0.1646 -0.0009
  130MOL    O8520983   4.655   5.554   5.949  0.5977 -0.0468 -0.0705
  130MOL    H8620984   4.673   5.597   6.207  0.5647 -0.5432 -0.3481
  130MOL    H8720985   4.849   5.613   6.183  0.4468  0.0482 -0.9753
  130MOL    H8820986   4.795   5.821   6.061  1.2378 -2.1120  0.3734
  130MOL    H8920987   4.619   5.807   6.107 -0.1833  0.1932 -0.9396
  130MOL    C9020988   4.641   5.761   5.833 -0.4340  0.0633 -0.1831
  130MOL    C9120989   4.585   5.684   5.710 -0.4983 -0.2389  0.3928
  130MOL    C9220990   4.642   5.736   5.577  0.0962 -0.7999 -0.3016
  130MOL    O9320991   4.570   5.792   5.495  0.0734 -0.3227  0.7167
  130MOL    H9420992   4.737   5.801   5.801 -0.6813  2.4835  1.9840
  130MOL    H9520993   4.578   5.846   5.860 -1.4282 -0.6869 -0.1078
  130MOL    H9620994   4.476   5.672   5.713 -0.5785  0.2823 -0.4080
  130MOL    H9720995   4.599   5.576   5.708 -2.4606 -0.5394  0.9366
  130MOL    C9820996   4.796   5.722   5.552  0.1587 -0.0529  0.3568
  130MOL    C9920997   4.833   5.723   5.407  1.1627 -1.0431  0.2736
  130MOL   C10020998   4.860   5.587   5.344  0.6850 -0.5229  0.1853
  130MOL   O10120999   4.876   5.487   5.411  0.6093 -0.1323  0.2560
  130MOL   H10221000   4.837   5.638   5.608 -1.3037 -2.7898 -2.5540
  130MOL   H10321001   4.844   5.808   5.599  0.9331  1.4747 -3.0708
  130MOL   H10421002   4.908   5.796   5.377 -1.4915  2.0042  0.8389
  130MOL   H10521003   4.752   5.761   5.346  0.8059 -1.4140  0.5177
  130MOL   C10621004   4.894   5.591   5.193  0.2370  0.2194 -0.1706
  130MOL   C10721005   4.901   5.458   5.128  0.3686 -0.5124  0.2045
  130MOL   C10821006   4.805   5.443   5.004 -0.1970  0.4094 -0.3820
  130MOL   O10921007   4.795   5.539   4.922  0.5573 -0.7085 -0.1926
  130MOL   H11021008   4.993   5.638   5.201 -0.3310  1.7204 -1.6840
  130MOL   H11121009   4.832   5.668   5.148  0.4854  0.4453 -0.1331
  130MOL   H11221010   4.878   5.384   5.205 -1.6754  0.5222  0.6367
  130MOL   H11321011   5.005   5.441   5.102  0.1668 -0.5043 -0.6096
  130MOL   C11421012   4.718   5.321   5.005  0.1706 -0.7091 -0.1871
  130MOL   C11521013   4.610   5.316   4.900 -0.3782  0.0547 -0.4785
  130MOL   C11621014   4.480   5.368   4.952  0.0842  0.0512 -0.8953
  130MOL   O11721015   4.397   5.299   5.019 -0.4830  0.0753 -0.2308
  130MOL   H11821016   4.684   5.295   5.106  2.9176 -0.2819  0.8970
  130MOL   H11921017   4.786   5.238   4.988 -0.1427 -1.0426  0.1668
  130MOL   H12021018   4.592   5.211   4.877 -4.0467 -0.1332  2.6499
  130MOL   H12121019   4.629   5.362   4.804  0.7954  0.5479 -0.0139
  130MOL   C12221020   4.441   5.513   4.913 -0.5586  0.5299 -0.1296
  130MOL   C12321021   4.353   5.578   5.024  0.1017  0.5534 -0.0827
  130MOL   C12421022   4.414   5.563   5.168 -0.0690 -0.9340 -0.0398
  130MOL   O12521023   4.537   5.574   5.179  0.7166 -0.1742  0.2343
  130MOL   H12621024   4.385   5.510   4.820  0.2024  3.4779 -0.7307
  130MOL   H12721025   4.526   5.576   4.886  0.4737 -0.3677  0.9559
  130MOL   H12821026   4.264   5.515   5.026  0.0076  0.4866 -3.0566
  130MOL   H12921027   4.321   5.680   5.004 -4.2083 -0.4770  1.0725
  130MOL   C13021028   4.317   5.529   5.282 -0.1186 -0.0999 -0.1414
  130MOL   C13121029   4.393   5.521   5.413 -0.2048  0.0621  0.3214
  130MOL   C13221030   4.385   5.383   5.472 -0.0353 -0.2317 -0.1358
  130MOL   O13321031   4.280   5.349   5.530 -0.5535  0.2102  0.6049
  130MOL   H13421032   4.265   5.433   5.273  0.2604 -0.4890  1.5196
  130MOL   H13521033   4.231   5.594   5.295  0.8738  1.1854  0.1139
  130MOL   H13621034   4.356   5.599   5.479 -2.0244 -0.2283 -0.3338
  130MOL   H13721035   4.500   5.540   5.399 -0.3580  0.2647 -0.5463
  130MOL   C13821036   4.493   5.278   5.442  0.1359 -0.2696 -0.5088
  130MOL   C13921037   4.631   5.336   5.478  0.5571  0.2703 -0.1209
  130MOL   C14021038   4.716   5.249   5.575 -0.2746  0.3515 -0.2964
  130MOL   O14121039   4.745   5.129   5.544 -0.6313 -0.3829 -0.1308
  130MOL   H14221040   4.494   5.267   5.333 -0.8060 -3.5887 -0.2270
  130MOL   H14321041   4.468   5.179   5.480 -0.7341  0.2887  0.3654
  130MOL   H14421042   4.630   5.439   5.511 -0.3378  0.3839 -0.4998
  130MOL   H14521043   4.694   5.333   5.388  1.4379 -3.6003  0.5326
  130MOL   C14621044   4.746   5.302   5.713  0.1363  0.3749  0.1409
  130MOL   C14721045   4.674   5.235   5.829 -0.2671 -0.1682  0.5812
  130MOL   C14821046   4.536   5.300   5.848 -0.8961  0.8737 -0.1204
  130MOL   O14921047   4.487   5.369   5.760 -0.0012  0.1256  0.1807
  130MOL   H15021048   4.732   5.410   5.716 -3.2374  0.0352 -0.9924
  130MOL   H15121049   4.850   5.271   5.727 -0.1976 -0.9851 -0.2789
  130MOL   H15221050   4.727   5.256   5.921  1.1566  1.5725 -0.6026
  130MOL   H15321051   4.663   5.127   5.816  0.9672 -0.0036 -2.1051
  130MOL   C15421052   4.472   5.285   5.986 -1.2602  0.1823  0.6410
  130MOL   C15521053   4.347   5.370   6.012  1.0044 -0.1742 -0.4038
  130MOL   C15621054   4.362   5.466   6.127 -0.3957 -0.1950  0.0502
  130MOL   O15721055   4.340   5.586   6.112  0.3179  0.1957  0.0860
  130MOL   H15821056   4.540   5.323   6.062 -3.8090  0.9140  2.6395
  130MOL   H15921057   4.451   5.179   6.000 -0.2273 -0.3669 -1.6186
  130MOL   H16021058   4.276   5.296   6.050  2.2520 -1.6156 -0.7896
  130MOL   H16121059   4.312   5.425   5.925  3.1122  1.5216 -0.2107
  130MOL   H16221060   4.400   5.428   6.222  1.7732  1.2312 -0.2197
  131MOL     C121061   2.154   5.783   6.754  0.3684 -0.3830 -0.2248
  131MOL     C221062   2.024   5.835   6.819  0.1998 -0.1662 -0.5557
  131MOL     C321063   1.912   5.850   6.716  0.7100 -0.5843  0.3107
  131MOL     O421064   1.929   5.804   6.606  0.0479 -0.5061  0.0045
  131MOL     H521065   2.182   5.834   6.662  0.2274 -0.4843 -0.3264
  131MOL     H621066   2.236   5.787   6.824 -0.5704  0.2243  0.8615
  131MOL     H721067   2.047   5.929   6.869  0.2296 -1.0672  1.1805
  131MOL     H821068   1.993   5.768   6.900 -3.3817 -1.1449 -2.6264
  131MOL     H921069   2.136   5.680   6.721  1.2712 -0.7192  0.3148
  131MOL    C1021070   1.783   5.922   6.750  0.2039 -0.0041  0.4898
  131MOL    C1121071   1.665   5.836   6.711 -0.1727  0.6480 -0.2107
  131MOL    C1221072   1.576   5.894   6.601 -0.3817 -0.3170 -0.1280
  131MOL    O1321073   1.568   6.013   6.576 -0.4522 -0.0887 -0.0174
  131MOL    H1421074   1.774   6.023   6.709  0.4874  0.1706  0.8506
  131MOL    H1521075   1.785   5.935   6.858 -0.6276 -0.0227  0.5167
  131MOL    H1621076   1.611   5.840   6.806  1.1503  1.6778  0.5169
  131MOL    H1721077   1.692   5.733   6.688  0.7804  0.2066  2.6453
  131MOL    C1821078   1.482   5.797   6.518 -0.2959  0.6371  0.2195
  131MOL    C1921079   1.522   5.802   6.365  0.6055  0.1466 -0.3734
  131MOL    C2021080   1.592   5.676   6.323 -0.4640  0.0582  0.3880
  131MOL    O2121081   1.521   5.570   6.308  0.1066 -0.4584 -0.0990
  131MOL    H2221082   1.380   5.826   6.543  0.2237  1.7959  1.0514
  131MOL    H2321083   1.489   5.695   6.554 -1.5593  0.7304  0.7601
  131MOL    H2421084   1.585   5.890   6.350  0.7244  0.4484  1.7264
  131MOL    H2521085   1.434   5.817   6.303  0.9932  0.7853 -0.7859
  131MOL    C2621086   1.747   5.686   6.301 -0.4843  0.0517  0.0834
  131MOL    C2721087   1.803   5.569   6.219 -0.7972 -0.3771  0.0149
  131MOL    C2821088   1.821   5.607   6.070  0.3352 -0.1104 -0.3187
  131MOL    O2921089   1.788   5.717   6.026  0.1889  0.7643  0.2035
  131MOL    H3021090   1.790   5.695   6.401  0.1681  1.6501 -0.3224
  131MOL    H3121091   1.759   5.786   6.259 -0.7979 -0.1008 -0.3749
  131MOL    H3221092   1.739   5.481   6.228 -1.2929  0.0821  1.0837
  131MOL    H3321093   1.901   5.539   6.255  0.0046 -0.6147 -2.2511
  131MOL    C3421094   1.883   5.505   5.973 -0.3003 -0.3528 -0.1423
  131MOL    C3521095   2.010   5.570   5.918  0.3025  0.6626  0.8343
  131MOL    C3621096   2.032   5.543   5.774  0.3054 -0.1072  0.4061
  131MOL    O3721097   1.934   5.533   5.697 -0.2685  0.2387 -0.4841
  131MOL    H3821098   1.809   5.491   5.895 -1.7409 -2.8563  1.5966
  131MOL    H3921099   1.912   5.413   6.024  2.9182  0.5410 -0.2319
  131MOL    H4021100   2.093   5.537   5.981  0.1897 -2.3876 -0.5362
  131MOL    H4121101   2.000   5.677   5.931  1.0956  0.5153  2.8557
  131MOL    C4221102   2.175   5.525   5.722  0.2435 -0.5360  0.4416
  131MOL    C4321103   2.195   5.581   5.579  0.1403 -0.8739 -0.2476
  131MOL    C4421104   2.166   5.481   5.472  0.2576 -0.2016  0.7712
  131MOL    O4521105   2.204   5.362   5.490 -0.0313 -0.1070 -0.6200
  131MOL    H4621106   2.205   5.421   5.719 -1.8746 -1.1923  1.2025
  131MOL    H4721107   2.255   5.559   5.788  1.3231  1.7339 -1.9398
  131MOL    H4821108   2.291   5.632   5.567 -0.2051  0.1490  1.1324
  131MOL    H4921109   2.130   5.667   5.567 -0.8465 -1.5291  0.3671
  131MOL    C5021110   2.093   5.526   5.349 -0.1517  0.5230 -0.9060
  131MOL    C5121111   1.946   5.486   5.350  0.5277 -0.2920 -0.4926
  131MOL    C5221112   1.845   5.577   5.268  0.3731 -0.5262 -0.3028
  131MOL    O5321113   1.875   5.692   5.229 -0.6380  0.3024 -0.2458
  131MOL    H5421114   2.131   5.477   5.259  2.5416  3.0182 -1.2127
  131MOL    H5521115   2.108   5.632   5.331 -1.6526  0.7855 -0.6498
  131MOL    H5621116   1.916   5.482   5.455 -2.6139 -1.7348 -1.3741
  131MOL    H5721117   1.944   5.382   5.318  0.8177 -0.4150 -0.1076
  131MOL    C5821118   1.711   5.514   5.226 -0.1112 -0.5363 -0.5435
  131MOL    C5921119   1.653   5.583   5.105  0.6297  0.0518  0.1269
  131MOL    C6021120   1.506   5.586   5.109  0.7473  0.0264 -0.3582
  131MOL    O6121121   1.442   5.485   5.151  0.3134  0.2087  0.5172
  131MOL    H6221122   1.639   5.501   5.308  0.3352  0.2005 -0.0279
  131MOL    H6321123   1.721   5.410   5.197 -0.7586 -0.6022 -0.5413
  131MOL    H6421124   1.685   5.542   5.009 -0.2858 -1.7561  0.5572
  131MOL    H6521125   1.684   5.687   5.107 -0.3012  0.3375 -0.1399
  131MOL    C6621126   1.437   5.715   5.053  0.9675 -0.2096 -0.1498
  131MOL    C6721127   1.308   5.752   5.128 -0.0122  0.4772  0.3389
  131MOL    C6821128   1.349   5.808   5.263  0.8093  0.0205 -0.7964
  131MOL    O6921129   1.467   5.813   5.295 -0.0408  0.3274  0.5174
  131MOL    H7021130   1.414   5.696   4.949 -2.4993  0.1182  0.5008
  131MOL    H7121131   1.502   5.802   5.050 -0.4194  0.8181 -0.8072
  131MOL    H7221132   1.243   5.664   5.130  2.0640 -1.1803 -2.0376
  131MOL    H7321133   1.248   5.826   5.074  0.3742 -0.7308 -1.8094
  131MOL    C7421134   1.236   5.872   5.350 -0.5010  0.2195 -0.6068
  131MOL    C7521135   1.294   5.934   5.478 -0.0780  0.0402  0.4343
  131MOL    C7621136   1.206   5.920   5.601  0.8088 -0.0750  0.1557
  131MOL    O7721137   1.083   5.893   5.589 -0.2139 -0.4320 -0.5457
  131MOL    H7821138   1.154   5.804   5.376  0.3977 -0.4988  0.3517
  131MOL    H7921139   1.202   5.955   5.287 -2.0804  1.2011  1.4805
  131MOL    H8021140   1.285   6.042   5.469 -0.6237 -0.1018 -0.8461
  131MOL    H8121141   1.396   5.910   5.505  0.7440  0.3791 -2.2059
  131MOL    C8221142   1.259   5.939   5.738 -0.2202 -0.5242  1.2103
  131MOL    C8321143   1.159   5.909   5.846 -0.6951 -0.3441  0.2731
  131MOL    C8421144   1.213   5.922   5.991  0.6973 -0.0901  0.4319
  131MOL    O8521145   1.317   5.864   6.013  0.0025  0.5870 -0.7978
  131MOL    H8621146   1.294   6.042   5.749  2.0550 -1.0710 -0.4885
  131MOL    H8721147   1.350   5.881   5.756 -0.0450 -0.5164  0.3683
  131MOL    H8821148   1.120   5.807   5.844 -1.6970  0.0250  0.8831
  131MOL    H8921149   1.068   5.968   5.838 -0.2722  0.2878  0.1124
  131MOL    C9021150   1.129   6.010   6.089  0.7010  0.0203 -0.4490
  131MOL    C9121151   1.214   6.070   6.201 -0.0717 -0.2085 -0.2320
  131MOL    C9221152   1.151   6.183   6.286  0.4978  0.4955  0.8853
  131MOL    O9321153   1.055   6.245   6.244  0.2992 -0.3938 -0.0088
  131MOL    H9421154   1.048   5.955   6.137  0.6702 -0.7277 -1.3475
  131MOL    H9521155   1.083   6.090   6.030 -2.1284 -0.3017  1.2093
  131MOL    H9621156   1.295   6.125   6.153  0.2709 -1.5505 -1.2234
  131MOL    H9721157   1.250   5.986   6.260  0.4661  0.5963  0.6068
  131MOL    C9821158   1.217   6.226   6.413  0.1243 -0.4450 -0.1875
  131MOL    C9921159   1.178   6.368   6.467 -0.6056  0.5305 -0.0125
  131MOL   C10021160   1.046   6.379   6.527  0.2246  0.4295 -0.3892
  131MOL   O10121161   0.991   6.279   6.576  0.5095 -0.1726  0.5831
  131MOL   H10221162   1.320   6.221   6.379  0.2552  2.1619 -0.2533
  131MOL   H10321163   1.214   6.155   6.496  0.5924 -0.6178 -0.3180
  131MOL   H10421164   1.180   6.450   6.396  0.7690  0.3673 -0.1658
  131MOL   H10521165   1.252   6.399   6.540  0.4090 -1.5860 -0.0971
  131MOL   C10621166   0.967   6.512   6.544  0.5998 -0.0135  0.2134
  131MOL   C10721167   0.954   6.546   6.695  0.2217  0.2828  0.4612
  131MOL   C10821168   1.073   6.627   6.750 -0.4010 -0.3024  0.0222
  131MOL   O10921169   1.172   6.643   6.681 -0.5413 -0.1927  0.7213
  131MOL   H11021170   0.868   6.489   6.505  0.8954  0.0499 -0.5762
  131MOL   H11121171   1.003   6.595   6.484  0.2246  1.3275  1.8024
  131MOL   H11221172   0.937   6.458   6.757 -0.3414 -0.4946 -0.7651
  131MOL   H11321173   0.864   6.603   6.717 -0.3889 -0.9394  1.2183
  131MOL   C11421174   1.064   6.668   6.899 -0.2780  0.1258  0.3740
  131MOL   C11521175   1.125   6.804   6.946  0.4445  0.5657  0.0191
  131MOL   C11621176   1.028   6.876   7.038  0.5951  0.3389 -0.0004
  131MOL   O11721177   1.004   6.845   7.156 -0.1298  0.0021  0.2803
  131MOL   H11821178   1.126   6.599   6.957  2.0678  0.9493 -1.1189
  131MOL   H11921179   0.963   6.645   6.933  0.9843 -2.6942  2.5309
  131MOL   H12021180   1.137   6.877   6.866  0.2880  0.9452  0.3390
  131MOL   H12121181   1.214   6.777   7.002 -1.1931  0.8692  2.8564
  131MOL   C12221182   0.952   6.995   6.988  0.9158 -0.0039 -0.5360
  131MOL   C12321183   0.810   7.015   7.046 -0.1693 -0.2641  0.0029
  131MOL   C12421184   0.783   7.147   7.115 -0.0098 -0.4956 -0.0699
  131MOL   O12521185   0.862   7.243   7.095 -0.1178 -0.2923 -0.7810
  131MOL   H12621186   0.958   6.983   6.880  1.4366 -0.1037 -0.4975
  131MOL   H12721187   1.011   7.080   7.023  1.4323 -0.3789 -0.4832
  131MOL   H12821188   0.789   6.930   7.111 -0.5272  0.9160  1.4720
  131MOL   H12921189   0.735   6.999   6.969  1.7985 -0.6437 -1.8925
  131MOL   C13021190   0.656   7.164   7.201  0.2314  0.0131 -0.5019
  131MOL   C13121191   0.686   7.223   7.344 -0.8759  0.9903 -1.1092
  131MOL   C13221192   0.726   7.110   7.443  0.5594 -0.6723  0.1252
  131MOL   O13321193   0.760   6.997   7.400  0.3200 -0.1363 -0.0857
  131MOL   H13421194   0.593   7.076   7.212 -1.9082  1.6445  0.6288
  131MOL   H13521195   0.605   7.238   7.141 -0.5936 -0.3115 -0.2002
  131MOL   H13621196   0.594   7.272   7.377 -1.3020 -0.3809 -0.1998
  131MOL   H13721197   0.767   7.296   7.343  0.6564 -0.6720  0.1120
  131MOL   C13821198   0.720   7.150   7.596  0.1651  0.0446  0.7509
  131MOL   C13921199   0.677   7.033   7.682  0.7214 -0.1591 -0.6435
  131MOL   C14021200   0.721   7.048   7.828  0.7398 -0.3608  0.6199
  131MOL   O14121201   0.797   7.142   0.004 -0.0426 -0.7569  0.3329
  131MOL   H14221202   0.643   7.225   7.611  2.2098  1.8742  2.2676
  131MOL   H14321203   0.820   7.189   7.610  0.4185 -0.2608 -0.1728
  131MOL   H14421204   0.725   6.942   7.645 -0.2662  0.1373 -2.7264
  131MOL   H14521205   0.569   7.021   7.668  0.2388  0.2104  2.5556
  131MOL   C14621206   0.657   6.958   0.080  0.2765 -0.4880  0.6655
  131MOL   C14721207   0.736   6.950   0.217 -0.0596  0.3867  0.2718
  131MOL   C14821208   0.652   6.880   0.317  0.0008  0.1824  0.0926
  131MOL   O14921209   0.615   6.763   0.303 -0.0057 -0.4557 -0.1936
  131MOL   H15021210   0.638   6.858   0.040 -2.1651 -0.5959  1.9762
  131MOL   H15121211   0.559   6.999   0.104  0.5763  0.2379  0.6642
  131MOL   H15221212   0.768   7.048   0.252  1.4585  0.6346 -1.6928
  131MOL   H15321213   0.831   6.898   0.210  1.7439  3.3222  2.0099
  131MOL   C15421214   0.630   6.948   0.451  0.2459  0.1697  0.5800
  131MOL   C15521215   0.563   6.863   0.551  0.4290 -0.0909 -0.2727
  131MOL   C15621216   0.655   6.821   0.660 -0.1734  0.3930  0.1625
  131MOL   O15721217   0.761   6.770   0.620 -0.5171 -0.4317  0.5172
  131MOL   H15821218   0.562   7.032   0.435 -1.7322 -1.8009 -1.7421
  131MOL   H15921219   0.719   6.995   0.491 -0.2305  1.1114  0.5452
  131MOL   H16021220   0.521   6.781   0.493  1.2122  1.5876 -3.3014
  131MOL   H16121221   0.490   6.923   0.605  0.7438  0.1395 -0.1040
  131MOL   H16221222   0.635   6.840   0.765 -1.4708 -0.8935  0.1699
  132MOL     C121223   6.455   1.972   5.294 -0.4033  0.4358 -0.3378
  132MOL     C221224   6.481   1.856   5.405  0.1134  0.0374 -0.1322
  132MOL     C321225   6.543   1.895   5.537 -0.0011  0.5922 -0.4042
  132MOL     O421226   6.581   2.010   5.556  0.7553 -0.3562 -0.1617
  132MOL     H521227   6.460   1.916   5.200 -0.4197 -2.0163  1.0859
  132MOL     H621228   6.354   2.006   5.272 -0.2505 -0.2880 -2.2916
  132MOL     H721229   6.557   1.794   5.358 -1.9304  0.0495 -3.6500
  132MOL     H821230   6.390   1.796   5.410  0.5417 -0.7198 -1.3824
  132MOL     H921231   6.538   2.042   5.283 -1.9384  2.7977  2.5634
  132MOL    C1021232   6.536   1.788   5.644  0.1585 -0.0051 -0.1313
  132MOL    C1121233   6.647   1.803   5.761  0.3419  0.3798  0.4491
  132MOL    C1221234   6.618   1.699   5.870 -1.1608 -0.9218  0.2712
  132MOL    O1321235   6.541   1.609   5.850 -0.0297 -0.4557 -0.6450
  132MOL    H1421236   6.538   1.686   5.606 -1.0848 -0.2212  0.3494
  132MOL    H1521237   6.437   1.795   5.689 -0.4424 -2.6518 -0.9647
  132MOL    H1621238   6.647   1.906   5.796 -1.0150  0.2376  0.9011
  132MOL    H1721239   6.749   1.789   5.726 -0.0744 -0.0057 -0.6516
  132MOL    C1821240   6.668   1.732   6.012  0.2243 -0.3552  0.0156
  132MOL    C1921241   6.617   1.633   6.114 -0.7684 -0.3305 -0.0371
  132MOL    C2021242   6.607   1.688   6.256  0.5861 -0.5718  0.0958
  132MOL    O2121243   6.660   1.797   6.283 -0.1461  0.5029  0.4866
  132MOL    H2221244   6.639   1.835   6.031  2.6467  0.2246  0.6902
  132MOL    H2321245   6.777   1.730   6.015  0.2604  1.8556  0.8535
  132MOL    H2421246   6.690   1.552   6.112  0.3351  0.6797 -0.6756
  132MOL    H2521247   6.518   1.599   6.082 -0.8088 -0.5392  0.3060
  132MOL    C2621248   6.524   1.609   6.359 -0.0162  0.0753 -0.5520
  132MOL    C2721249   6.561   1.630   6.499  0.1381  0.6583 -0.3785
  132MOL    C2821250   6.466   1.720   6.575  0.1808 -0.1875  1.0932
  132MOL    O2921251   6.391   1.799   6.520  0.6106 -0.3219  0.1225
  132MOL    H3021252   6.544   1.506   6.332  0.1406 -0.1411  0.3702
  132MOL    H3121253   6.420   1.629   6.331 -0.5875 -2.7231 -0.5097
  132MOL    H3221254   6.664   1.656   6.524  0.2644  0.3128 -0.5351
  132MOL    H3321255   6.548   1.534   6.549  1.2905  1.0264  0.6610
  132MOL    C3421256   6.458   1.715   6.728  0.5229  0.0460  0.0474
  132MOL    C3521257   6.406   1.838   6.785 -0.1395  0.2549 -0.0820
  132MOL    C3621258   6.429   1.840   6.941  0.7255  0.4109  0.7682
  132MOL    O3721259   6.425   1.739   7.011 -0.1076 -0.2578 -0.1047
  132MOL    H3821260   6.551   1.689   6.779 -0.3115 -1.1628  0.9718
  132MOL    H3921261   6.381   1.644   6.758  0.6510  0.0660  0.4273
  132MOL    H4021262   6.299   1.846   6.770 -0.3924  0.6463  1.7210
  132MOL    H4121263   6.460   1.930   6.759  0.9947 -0.6185 -0.8712
  132MOL    C4221264   6.446   1.982   7.005  0.1695  0.2750  0.0297
  132MOL    C4321265   6.442   1.981   7.161  0.0968 -0.1746 -0.5978
  132MOL    C4421266   6.309   1.944   7.234 -0.8536  0.4947 -0.1821
  132MOL    O4521267   6.202   1.967   7.177  0.0645  0.2511 -0.5885
  132MOL    H4621268   6.370   2.041   6.954  1.1715  1.1265 -0.5097
  132MOL    H4721269   6.549   2.013   6.985  0.9959 -0.9581  2.1203
  132MOL    H4821270   6.458   2.085   7.189 -1.7158 -0.5081  1.8580
  132MOL    H4921271   6.519   1.917   7.205  0.4695  1.2605  0.8726
  132MOL    C5021272   6.316   1.907   7.379 -0.2456 -0.1284  1.3985
  132MOL    C5121273   6.201   1.812   7.406  0.3241 -1.0918 -0.0694
  132MOL    C5221274   6.105   1.859   7.509  0.1527  0.4646  0.3986
  132MOL    O5321275   6.137   1.945   7.593  0.5220 -0.4280  0.4148
  132MOL    H5421276   6.301   2.000   7.433 -1.2450  2.1734 -2.5893
  132MOL    H5521277   6.408   1.849   7.383  0.6308  0.8474 -2.2953
  132MOL    H5621278   6.229   1.707   7.419  0.5196 -1.1689 -1.0564
  132MOL    H5721279   6.148   1.806   7.311  2.8130 -0.8781 -1.5205
  132MOL    C5821280   5.961   1.799   7.515  0.2526 -0.6241  0.5272
  132MOL    C5921281   5.975   1.650   7.548  0.0803  0.0689  0.5153
  132MOL    C6021282   5.991   1.609   7.690 -0.4856  0.2805 -0.1459
  132MOL    O6121283   5.995   1.695   7.781  0.5456  0.4704 -0.0463
  132MOL    H6221284   5.909   1.820   7.422  0.0651 -0.5289  0.6535
  132MOL    H6321285   5.898   1.846   7.590 -1.7569 -1.1492 -0.8002
  132MOL    H6421286   6.061   1.608   7.496 -0.1636 -0.0298  0.1879
  132MOL    H6521287   5.885   1.600   7.512  0.7469 -1.4849  0.9391
  132MOL    C6621288   6.011   1.464   7.729 -0.3499  0.1157  0.1276
  132MOL    C6721289   5.964   1.438   0.021  0.1461 -0.2309 -0.0160
  132MOL    C6821290   6.075   1.436   0.133 -0.9160 -0.4368 -0.6519
  132MOL    O6921291   6.193   1.460   0.106 -0.2609  0.2375  0.0097
  132MOL    H7021292   6.118   1.444   7.719 -0.5882 -0.4936 -1.2786
  132MOL    H7121293   5.961   1.405   7.652  1.2566  0.6176 -1.3261
  132MOL    H7221294   5.895   1.354   0.018  0.5451 -0.5149 -1.3072
  132MOL    H7321295   5.897   1.511   0.065  0.3703 -0.0968  0.1034
  132MOL    C7421296   6.025   1.420   0.275 -0.5639 -0.3270 -0.9423
  132MOL    C7521297   6.142   1.393   0.377  0.7030  0.3902 -0.1593
  132MOL    C7621298   6.089   1.327   0.502 -0.0587  0.8197 -0.0335
  132MOL    O7721299   5.982   1.269   0.511  0.0302 -0.3008 -0.4854
  132MOL    H7821300   5.955   1.337   0.271 -2.6124  1.1807  2.1007
  132MOL    H7921301   5.975   1.515   0.293  1.8951  0.9196 -0.4953
  132MOL    H8021302   6.194   1.484   0.407  0.2653  0.6078 -0.0607
  132MOL    H8121303   6.222   1.329   0.338  0.4499 -0.0926  0.1246
  132MOL    C8221304   6.181   1.328   0.624  0.6283  0.6241 -0.1481
  132MOL    C8321305   6.201   1.185   0.675 -0.1451 -0.1281  0.7883
  132MOL    C8421306   6.269   1.190   0.815  0.2055 -0.3870  0.3687
  132MOL    O8521307   6.325   1.294   0.856 -0.0346  0.2535  0.0621
  132MOL    H8621308   6.132   1.400   0.689  0.5780 -1.4729  2.1950
  132MOL    H8721309   6.280   1.369   0.604 -0.0511  2.4207  0.0752
  132MOL    H8821310   6.268   1.131   0.608 -0.7974 -1.4677  1.1963
  132MOL    H8921311   6.110   1.125   0.684 -0.6062  0.5485  0.6381
  132MOL    C9021312   6.278   1.051   0.887  0.3132 -0.5725  0.7076
  132MOL    C9121313   6.343   1.052   1.025 -0.5020  0.1639 -0.4443
  132MOL    C9221314   6.441   0.946   1.054 -0.0725 -0.1530 -1.3041
  132MOL    O9321315   6.446   0.840   0.989 -0.1662 -0.7550 -0.4319
  132MOL    H9421316   6.324   0.980   0.818 -1.7452  0.5370 -1.8697
  132MOL    H9521317   6.174   1.018   0.885  0.4047 -0.8818  0.9772
  132MOL    H9621318   6.266   1.048   1.102  0.3234 -0.5617  0.3564
  132MOL    H9721319   6.389   1.150   1.041 -1.5843  0.6281 -0.1649
  132MOL    C9821320   6.541   0.969   1.166 -0.4115  0.5600  0.1512
  132MOL    C9921321   6.625   0.847   1.205  0.3813 -0.2323  0.4506
  132MOL   C10021322   6.732   0.888   1.303  0.1440 -0.0546 -0.2313
  132MOL   O10121323   6.710   0.956   1.402  0.5136 -0.2056 -0.2104
  132MOL   H10221324   6.491   1.000   1.258  0.0548  2.0896 -0.0910
  132MOL   H10321325   6.599   1.056   1.133  1.0778 -0.4573  0.0290
  132MOL   H10421326   6.670   0.805   1.116 -2.0711  2.9701 -2.4314
  132MOL   H10521327   6.572   0.760   1.245  0.2406 -0.4976 -0.3175
  132MOL   C10621328   6.869   0.829   1.279  0.1297 -0.2030 -0.0135
  132MOL   C10721329   6.982   0.927   1.242 -1.0171  0.2327  0.0101
  132MOL   C10821330   6.961   0.980   1.099 -0.1958 -0.1924  0.7232
  132MOL   O10921331   6.956   0.904   1.004 -0.3946 -0.0739 -0.5875
  132MOL   H11021332   6.864   0.742   1.214 -0.9010 -1.2629  1.4539
  132MOL   H11121333   6.893   0.794   1.380 -0.1272  2.7905  1.1324
  132MOL   H11221334   7.073   0.869   1.228 -0.6267  1.4277 -2.6045
  132MOL   H11321335   7.010   1.000   1.318  2.5426 -1.0428  0.0052
  132MOL   C11421336   6.971   1.131   1.079 -0.1970  0.2740  0.0760
  132MOL   C11521337   6.879   1.200   0.983  0.1191  0.0685 -0.1497
  132MOL   C11621338   6.775   1.279   1.062 -0.2296 -0.2584 -0.1863
  132MOL   O11721339   6.767   1.276   1.186 -0.1875 -0.0809  0.3615
  132MOL   H11821340   7.074   1.150   1.047 -0.1562  0.5781  0.3797
  132MOL   H11921341   6.981   1.167   1.182  0.4424 -0.2157  0.1869
  132MOL   H12021342   6.824   1.124   0.928 -1.0946  0.2364  0.8131
  132MOL   H12121343   6.927   1.261   0.907 -0.1835  1.2975  0.6373
  132MOL   C12221344   6.670   1.359   0.984  0.0876  0.3091 -1.0317
  132MOL   C12321345   6.722   1.448   0.872  0.4369 -0.4324  0.2048
  132MOL   C12421346   6.638   1.576   0.855  0.0745 -0.3388 -0.1210
  132MOL   O12521347   6.678   1.688   0.890  0.0703 -0.1488 -0.1836
  132MOL   H12621348   6.618   1.419   1.059  0.2876 -2.0484  1.0691
  132MOL   H12721349   6.593   1.292   0.945  0.4597 -0.7947  0.0635
  132MOL   H12821350   6.713   1.389   0.780  3.3054  1.1236 -1.1419
  132MOL   H12921351   6.829   1.470   0.869  0.3077  0.0963 -0.9246
  132MOL   C13021352   6.508   1.558   0.783  0.4348  0.3030  0.1180
  132MOL   C13121353   6.466   1.684   0.696 -0.4773  0.9078 -0.5538
  132MOL   C13221354   6.519   1.670   0.556 -0.0179 -0.1789 -0.4153
  132MOL   O13321355   6.466   1.591   0.482  0.1978 -0.3826  0.3450
  132MOL   H13421356   6.425   1.545   0.853  0.9576  1.5542  0.9892
  132MOL   H13521357   6.508   1.471   0.717 -2.3758  0.6464 -0.3861
  132MOL   H13621358   6.498   1.776   0.744 -1.8931  1.1165  0.0019
  132MOL   H13721359   6.358   1.699   0.693 -0.2822  3.0417  1.5210
  132MOL   C13821360   6.653   1.736   0.523 -0.4579  1.2526  0.4962
  132MOL   C13921361   6.698   1.717   0.377 -0.4230  0.5959 -0.5748
  132MOL   C14021362   6.842   1.646   0.359  0.3312  0.4940 -0.4116
  132MOL   O14121363   6.862   1.542   0.422  0.2153  0.1094 -0.0795
  132MOL   H14221364   6.733   1.694   0.583 -0.6700  0.4475  0.2299
  132MOL   H14321365   6.649   1.842   0.545  1.2601  2.1091 -2.8499
  132MOL   H14421366   6.700   1.818   0.338 -0.6110  1.1498  0.8367
  132MOL   H14521367   6.625   1.667   0.313  0.5359  0.4173 -1.5430
  132MOL   C14621368   6.943   1.716   0.272  0.6103  0.1186 -0.2715
  132MOL   C14721369   7.047   1.770   0.377 -0.0940  0.4043  0.0928
  132MOL   C14821370   7.126   1.880   0.314  0.1699 -0.1992 -0.3120
  132MOL   O14921371   7.123   1.902   0.191  0.1616 -0.0945  0.2500
  132MOL   H15021372   6.901   1.799   0.215  1.8546  1.2253  0.3919
  132MOL   H15121373   6.998   1.650   0.204 -0.4628 -0.2672 -0.7692
  132MOL   H15221374   7.110   1.688   0.412 -0.3295 -2.2008 -5.0567
  132MOL   H15321375   6.991   1.808   0.462 -0.2533 -2.0429  1.1193
  132MOL   C15421376   7.202   1.983   0.399  0.4730  0.2386 -0.5217
  132MOL   C15521377   7.351   1.938   0.425 -0.1048  0.6982 -0.7999
  132MOL   C15621378   7.374   1.868   0.560 -0.7341 -0.1443  0.2153
  132MOL   O15721379   7.292   1.843   0.648 -0.4891 -0.3942  0.0586
  132MOL   H15821380   7.147   2.020   0.485 -0.0226  1.2502 -1.2620
  132MOL   H15921381   7.209   2.061   0.324  1.1213 -1.2812 -2.0930
  132MOL   H16021382   7.401   2.034   0.417 -1.9621  1.9482  1.7431
  132MOL   H16121383   7.391   1.880   0.342  0.3946  1.5590 -1.1679
  132MOL   H16221384   7.478   1.836   0.571 -0.6687  0.2693  0.8304
  133MOL     C121385   4.222   4.675   1.143 -0.3583  0.2743  0.1227
  133MOL     C221386   4.145   4.554   1.195  0.3498  0.1456  0.3511
  133MOL     C321387   4.045   4.580   1.300 -0.4253 -0.2817 -0.9861
  133MOL     O421388   4.015   4.699   1.334  0.5283  0.0669 -0.5637
  133MOL     H521389   4.280   4.726   1.220  2.6196 -1.0444 -1.1296
  133MOL     H621390   4.299   4.663   1.066  1.7744 -0.3121  2.2938
  133MOL     H721391   4.222   4.487   1.232  1.6452  0.1843 -2.1463
  133MOL     H821392   4.099   4.488   1.122 -0.4884 -1.8636  2.6116
  133MOL     H921393   4.154   4.749   1.102 -2.2667 -2.1274 -1.1756
  133MOL    C1021394   3.979   4.455   1.357 -0.1114  0.0357 -0.1972
  133MOL    C1121395   4.067   4.373   1.462 -0.5825 -0.3863 -0.1121
  133MOL    C1221396   3.983   4.324   1.576 -0.7729  0.2473 -0.3804
  133MOL    O1321397   3.961   4.206   1.592 -0.4007  0.4182 -0.1485
  133MOL    H1421398   3.963   4.384   1.275 -0.0302 -0.3921  0.1552
  133MOL    H1521399   3.885   4.486   1.401 -1.5758 -1.8367 -1.8742
  133MOL    H1621400   4.155   4.428   1.494 -1.7873  1.2468  0.4312
  133MOL    H1721401   4.113   4.283   1.422  0.0770 -0.1395  0.0830
  133MOL    C1821402   3.917   4.428   1.675  0.3923 -0.2085 -0.3512
  133MOL    C1921403   3.827   4.360   1.776 -0.7156  0.2502 -0.0022
  133MOL    C2021404   3.821   4.429   1.910  0.2787  0.5308 -0.2013
  133MOL    O2121405   3.901   4.511   1.954 -0.3635  0.4045 -0.0724
  133MOL    H2221406   3.868   4.495   1.605  0.3891  2.1597  1.8558
  133MOL    H2321407   3.992   4.495   1.716 -1.1834  0.5500  1.3594
  133MOL    H2421408   3.871   4.263   1.799  2.8833  1.8636  0.3730
  133MOL    H2521409   3.722   4.358   1.746 -0.9540  2.3738  0.5879
  133MOL    C2621410   3.697   4.408   1.985 -0.0989 -0.1042  0.5145
  133MOL    C2721411   3.673   4.512   2.093  0.4351 -0.3388  0.5224
  133MOL    C2821412   3.543   4.591   2.068  0.1783  0.1273 -0.0372
  133MOL    O2921413   3.459   4.564   1.982  0.0063  0.1113 -0.1058
  133MOL    H3021414   3.683   4.306   2.020  0.5958 -0.8985 -1.4368
  133MOL    H3121415   3.619   4.415   1.909 -1.8771  0.5543  2.3596
  133MOL    H3221416   3.754   4.583   2.106  1.1004 -0.8836 -0.6019
  133MOL    H3321417   3.642   4.465   2.187 -1.9847 -1.9850 -1.0482
  133MOL    C3421418   3.508   4.712   2.154 -0.4556 -0.0257  0.6782
  133MOL    C3521419   3.553   4.698   2.299 -0.7966  0.6227  0.3474
  133MOL    C3621420   3.673   4.789   2.331 -0.1056  0.3337  0.0477
  133MOL    O3721421   3.782   4.765   2.284  0.6689 -0.1047 -0.3817
  133MOL    H3821422   3.401   4.728   2.165 -0.4758  1.4134 -1.3829
  133MOL    H3921423   3.545   4.807   2.115  0.5549 -0.6971 -0.0149
  133MOL    H4021424   3.573   4.596   2.331  0.3337  0.4766 -0.7913
  133MOL    H4121425   3.472   4.728   2.365 -0.9068 -0.4179  0.7025
  133MOL    C4221426   3.641   4.904   2.428  0.3774 -0.0266  0.4435
  133MOL    C4321427   3.757   5.005   2.437  0.1586 -0.4322  0.2970
  133MOL    C4421428   3.861   4.969   2.544 -0.8770 -0.5363  0.6416
  133MOL    O4521429   3.834   4.943   2.662  0.4000 -0.7109 -0.5377
  133MOL    H4621430   3.626   4.865   2.529  0.3792  0.5916  0.6863
  133MOL    H4721431   3.544   4.937   2.390  1.5255  2.8006 -0.0960
  133MOL    H4821432   3.720   5.107   2.449  0.9940  0.3779 -3.3913
  133MOL    H4921433   3.805   4.996   2.340 -1.1989 -0.4804 -0.3742
  133MOL    C5021434   4.000   4.937   2.491  0.8215 -0.7857  0.7111
  133MOL    C5121435   4.116   4.915   2.591  0.1535 -0.3362 -0.2370
  133MOL    C5221436   4.137   4.761   2.606  0.1318 -0.1559 -0.7918
  133MOL    O5321437   4.172   4.694   2.508  0.1420  0.0950 -0.2292
  133MOL    H5421438   4.030   4.998   2.406  2.6433 -0.4364  1.5826
  133MOL    H5521439   3.978   4.843   2.441 -1.8986  0.4659 -0.5221
  133MOL    H5621440   4.079   4.959   2.683 -1.5984 -1.6579 -0.2786
  133MOL    H5721441   4.206   4.962   2.551 -0.8065 -0.8953 -3.1782
  133MOL    C5821442   4.104   4.699   2.739  0.2139 -0.0024 -0.1291
  133MOL    C5921443   4.224   4.674   2.831  0.3608 -0.4317 -0.0738
  133MOL    C6021444   4.249   4.526   2.853  0.1498 -0.5510  0.3349
  133MOL    O6121445   4.189   4.469   2.942 -0.0292  0.3524  0.0642
  133MOL    H6221446   4.046   4.608   2.721 -2.3166  1.1044  2.1138
  133MOL    H6321447   4.040   4.772   2.789  0.1142  0.3088 -0.7078
  133MOL    H6421448   4.208   4.723   2.927 -0.0371 -1.8521  0.5875
  133MOL    H6521449   4.318   4.719   2.798  0.6468 -1.0032 -0.0486
  133MOL    C6621450   4.340   4.450   2.752 -0.2076  0.7307 -0.3204
  133MOL    C6721451   4.257   4.359   2.658  0.4761 -0.0546  0.0216
  133MOL    C6821452   4.297   4.211   2.642 -0.7854 -0.4558  0.0061
  133MOL    O6921453   4.361   4.155   2.727  0.3609  0.1362  0.4028
  133MOL    H7021454   4.406   4.387   2.812 -2.3822 -0.7345  0.6258
  133MOL    H7121455   4.398   4.523   2.697 -0.0608  1.4512  0.7808
  133MOL    H7221456   4.255   4.395   2.555 -2.0794  0.0953  0.1029
  133MOL    H7321457   4.155   4.360   2.696  0.7194 -0.8487  0.7040
  133MOL    C7421458   4.251   4.150   2.510 -0.5710  0.3187  0.5784
  133MOL    C7521459   4.248   3.999   2.521 -0.4715  0.4292  0.2920
  133MOL    C7621460   4.314   3.928   2.401 -0.7815 -0.3131  0.2627
  133MOL    O7721461   4.332   3.976   2.288 -0.1492  0.1943 -1.0176
  133MOL    H7821462   4.306   4.199   2.429 -1.0905 -0.0674 -0.0177
  133MOL    H7921463   4.152   4.192   2.494 -0.5259  0.8956  1.7597
  133MOL    H8021464   4.145   3.965   2.533 -0.5044  0.8676  1.2816
  133MOL    H8121465   4.301   3.961   2.608  0.4073  1.3321  0.1577
  133MOL    C8221466   4.347   3.781   2.430  0.4926  0.0047  0.0762
  133MOL    C8321467   4.462   3.728   2.348 -0.0312  0.2495 -0.3088
  133MOL    C8421468   4.426   3.600   2.260 -1.0024 -0.1704 -0.1021
  133MOL    O8521469   4.357   3.614   2.159  0.1172  0.0461 -0.2277
  133MOL    H8621470   4.255   3.725   2.412 -0.1795  1.4725 -1.1127
  133MOL    H8721471   4.394   3.768   2.528 -1.0771  1.3583  1.0235
  133MOL    H8821472   4.547   3.688   2.404 -0.1245  0.5308  0.0364
  133MOL    H8921473   4.510   3.804   2.287  0.8521 -1.3656 -1.6546
  133MOL    C9021474   4.483   3.467   2.305  0.1675  0.4471 -0.3938
  133MOL    C9121475   4.470   3.356   2.200  0.1034 -0.0670  0.2735
  133MOL    C9221476   4.611   3.337   2.136 -0.7366  0.1000  0.0163
  133MOL    O9321477   4.678   3.232   2.159 -0.4247 -0.7589  0.5722
  133MOL    H9421478   4.420   3.441   2.391 -0.1129  0.0999 -0.7033
  133MOL    H9521479   4.586   3.483   2.336 -0.3372  2.9436  0.1255
  133MOL    H9621480   4.380   3.377   2.143  0.3341 -0.3454 -0.2010
  133MOL    H9721481   4.449   3.257   2.242  2.2516  0.1747  2.0553
  133MOL    C9821482   4.660   3.456   2.053  0.2339  0.5115  0.4967
  133MOL    C9921483   4.811   3.469   2.060 -0.1346 -0.2849  0.8942
  133MOL   C10021484   4.893   3.447   1.931  1.0805 -0.2105  0.6468
  133MOL   O10121485   4.837   3.375   1.841 -0.1171  0.1897  0.1208
  133MOL   H10221486   4.616   3.549   2.088  0.9768  0.9319  0.3197
  133MOL   H10321487   4.630   3.448   1.948  0.6264  3.4064  0.1119
  133MOL   H10421488   4.849   3.391   2.126  1.5897 -1.0520 -0.9636
  133MOL   H10521489   4.846   3.564   2.101 -0.1574 -0.2248  0.7729
  133MOL   C10621490   5.026   3.514   1.910 -0.6536 -0.5543  0.0440
  133MOL   C10721491   5.113   3.429   1.812  0.2714 -0.2178  0.4805
  133MOL   C10821492   5.258   3.457   1.813 -0.0286 -0.7240 -0.5102
  133MOL   O10921493   5.338   3.431   1.906 -0.5281  0.1705 -0.2028
  133MOL   H11021494   5.075   3.535   2.005  1.0445  2.2964 -1.3990
  133MOL   H11121495   5.021   3.612   1.862 -2.5072 -1.2584 -1.2148
  133MOL   H11221496   5.070   3.435   1.712  1.4130  0.7795  0.0440
  133MOL   H11321497   5.104   3.322   1.834  0.0847  0.2606  2.8510
  133MOL   C11421498   5.305   3.526   1.683 -0.5172 -0.3116 -0.4600
  133MOL   C11521499   5.447   3.475   1.639  0.3504 -1.0835 -0.2539
  133MOL   C11621500   5.521   3.594   1.576 -0.7790  0.0669  0.4952
  133MOL   O11721501   5.626   3.636   1.632  0.2629 -0.2527  0.2797
  133MOL   H11821502   5.312   3.629   1.719 -0.4198 -0.1008 -1.0877
  133MOL   H11921503   5.226   3.522   1.609 -1.2814 -1.3701  0.3986
  133MOL   H12021504   5.448   3.384   1.579  1.0606 -1.4713  0.3362
  133MOL   H12121505   5.505   3.457   1.730  1.8436 -1.7956 -1.3264
  133MOL   C12221506   5.467   3.655   1.451 -0.2795 -0.3571 -0.4230
  133MOL   C12321507   5.452   3.808   1.470 -0.0977  0.2648  0.4622
  133MOL   C12421508   5.305   3.848   1.506  0.9329 -0.5235 -0.1750
  133MOL   O12521509   5.221   3.764   1.537 -0.1567  0.3216 -0.5568
  133MOL   H12621510   5.373   3.607   1.426  0.5252 -1.9994 -0.3379
  133MOL   H12721511   5.529   3.619   1.369  0.1253 -1.6196  0.4305
  133MOL   H12821512   5.478   3.863   1.380 -1.8378 -0.8415 -0.7595
  133MOL   H12921513   5.520   3.838   1.549  1.3514 -2.3959  0.2897
  133MOL   C13021514   5.268   3.994   1.489 -0.1941  0.0510  0.1039
  133MOL   C13121515   5.131   4.026   1.532 -0.4723 -0.2784  0.1328
  133MOL   C13221516   5.121   4.176   1.550 -0.8216  0.0961 -0.7993
  133MOL   O13321517   5.196   4.258   1.493 -0.3905 -0.5446 -0.4322
  133MOL   H13421518   5.276   4.031   1.387 -0.9100  3.2002  1.1355
  133MOL   H13521519   5.341   4.048   1.550  1.1922 -2.5824  0.8933
  133MOL   H13621520   5.110   3.969   1.623  0.1535  1.6509  1.5182
  133MOL   H13721521   5.059   4.001   1.454  0.8041 -1.9192 -0.5284
  133MOL   C13821522   5.003   4.220   1.639 -0.4567 -0.0737 -0.2891
  133MOL   C13921523   5.031   4.308   1.760 -0.1193 -0.4504 -0.1231
  133MOL   C14021524   4.909   4.393   1.803 -0.3694 -0.1958 -0.1749
  133MOL   O14121525   4.800   4.336   1.784  0.0396 -0.0963 -0.8793
  133MOL   H14221526   4.958   4.130   1.681  3.7912 -2.5240 -0.6750
  133MOL   H14321527   4.943   4.273   1.565 -3.1608 -2.2339  0.2597
  133MOL   H14421528   5.107   4.386   1.746  0.8467 -1.1187  1.3197
  133MOL   H14521529   5.057   4.245   1.845  0.6211  0.7491  0.5587
  133MOL   C14621530   4.927   4.537   1.844  0.4071  0.8877 -0.6051
  133MOL   C14721531   4.815   4.592   1.934  0.4017 -0.4827 -0.2332
  133MOL   C14821532   4.691   4.641   1.859 -0.2048 -1.1125  0.2688
  133MOL   O14921533   4.708   4.721   1.762 -1.0133 -0.0874 -0.2377
  133MOL   H15021534   4.933   4.614   1.767  0.5617  0.3148 -1.1698
  133MOL   H15121535   5.017   4.549   1.904 -0.0518  0.6820  0.1326
  133MOL   H15221536   4.850   4.681   1.986  1.0621 -0.1467 -1.2337
  133MOL   H15321537   4.791   4.521   2.013  1.2542  0.2800  0.7140
  133MOL   C15421538   4.557   4.592   1.911  0.5167  0.4659 -0.2774
  133MOL   C15521539   4.492   4.479   1.835  0.2519 -0.0910  0.3911
  133MOL   C15621540   4.520   4.341   1.882  0.1101  0.2296 -0.0469
  133MOL   O15721541   4.553   4.322   1.997  0.1299 -0.3429  0.3718
  133MOL   H15821542   4.497   4.682   1.893  1.4242  0.9370 -1.0007
  133MOL   H15921543   4.545   4.576   2.018  1.3914  0.4066 -0.1833
  133MOL   H16021544   4.507   4.489   1.727  1.5470 -0.1229  0.5616
  133MOL   H16121545   4.385   4.491   1.846  0.0745 -1.1016 -0.1633
  133MOL   H16221546   4.493   4.254   1.823 -0.4539  0.3209  0.0733
  134MOL     C121547   0.702   3.617   2.109 -0.2453 -0.1811  0.4751
  134MOL     C221548   0.658   3.736   2.197  0.4707  0.0925 -0.1579
  134MOL     C321549   0.572   3.703   2.320 -0.6143 -0.6282 -0.1331
  134MOL     O421550   0.555   3.585   2.352 -0.5739 -0.7076 -0.2511
  134MOL     H521551   0.620   3.582   2.047  1.4027 -3.8552  0.2188
  134MOL     H621552   0.773   3.660   2.038  0.5884 -3.7441 -0.9842
  134MOL     H721553   0.613   3.811   2.131 -0.8444 -1.6434 -1.2542
  134MOL     H821554   0.744   3.779   2.248 -0.5798 -0.1886  1.8974
  134MOL     H921555   0.757   3.535   2.155  1.3025 -0.2485 -1.4137
  134MOL    C1021556   0.514   3.816   2.400  0.4605  0.4280 -0.9633
  134MOL    C1121557   0.380   3.777   2.454  0.5900  0.2879 -0.8973
  134MOL    C1221558   0.311   3.904   2.501 -0.1482  0.3683 -0.4228
  134MOL    O1321559   0.361   4.013   2.495  0.3142 -0.1933  0.0884
  134MOL    H1421560   0.488   3.898   2.332 -2.4021 -0.1477 -0.6389
  134MOL    H1521561   0.583   3.854   2.475  0.3546 -1.5332  0.1612
  134MOL    H1621562   0.407   3.711   2.537  0.7460  0.4029 -0.8555
  134MOL    H1721563   0.321   3.721   2.382  1.1043  1.7629 -2.4980
  134MOL    C1821564   0.168   3.890   2.570  0.4107  0.2914 -0.1444
  134MOL    C1921565   0.077   4.010   2.537  0.5181  0.2071  0.1234
  134MOL    C2021566   0.074   4.109   2.658  0.0894 -0.2596  0.2900
  134MOL    O2121567   0.076   4.069   2.775  0.4599 -0.2444  0.3837
  134MOL    H2221568   0.167   3.879   2.678 -2.0835  3.4099  0.2552
  134MOL    H2321569   0.126   3.798   2.529 -1.6028  2.1011 -2.3147
  134MOL    H2421570   7.837   3.972   2.510  0.6101 -0.5808  0.8757
  134MOL    H2521571   0.119   4.073   2.459  0.7316 -0.0717  0.0128
  134MOL    C2621572   0.083   4.255   2.622  0.2501 -0.0207  0.3620
  134MOL    C2721573   0.225   4.295   2.571  0.4896 -0.1372 -0.0244
  134MOL    C2821574   0.239   4.330   2.424  0.3355 -0.4389 -0.5021
  134MOL    O2921575   0.139   4.328   2.350 -0.2079  0.1226  0.2310
  134MOL    H3021576   0.063   4.311   2.713 -0.3841  0.4678 -0.0716
  134MOL    H3121577   0.005   4.290   2.554 -0.3601  0.2079  1.1830
  134MOL    H3221578   0.290   4.214   2.602  1.4722 -0.0354 -1.7588
  134MOL    H3321579   0.262   4.376   2.633 -2.5943  1.5851 -0.3448
  134MOL    C3421580   0.374   4.378   2.372 -0.2508 -0.4084  0.2057
  134MOL    C3521581   0.394   4.401   2.220 -0.2328  0.3571 -0.5836
  134MOL    C3621582   0.345   4.538   2.172 -0.7057 -0.0387 -0.0711
  134MOL    O3721583   0.335   4.631   2.249  0.2186 -0.0380 -0.1769
  134MOL    H3821584   0.445   4.303   2.406 -0.6540 -0.3880  1.1198
  134MOL    H3921585   0.402   4.472   2.420 -0.5153 -0.7334  1.0109
  134MOL    H4021586   0.327   4.333   2.168  0.1061  0.0473 -0.6186
  134MOL    H4121587   0.496   4.375   2.190 -1.3862 -1.8770 -2.7137
  134MOL    C4221588   0.308   4.562   2.026 -0.7159  0.4098 -0.0732
  134MOL    C4321589   0.431   4.602   1.940 -0.5937  0.3528  0.7612
  134MOL    C4421590   0.479   4.475   1.862 -0.8234 -0.0685  0.4542
  134MOL    O4521591   0.559   4.394   1.912  0.4169 -0.3058 -0.2505
  134MOL    H4621592   0.231   4.638   2.013 -0.5286  0.6724  0.3377
  134MOL    H4721593   0.273   4.463   1.996  0.6422 -0.4799  1.2463
  134MOL    H4821594   0.514   4.644   1.997 -0.2897  0.4052  0.2880
  134MOL    H4921595   0.411   4.682   1.869  0.1569 -0.9091 -0.9253
  134MOL    C5021596   0.432   4.449   1.715 -0.6866 -0.1771 -0.3503
  134MOL    C5121597   0.353   4.315   1.720  0.1840 -0.4953  0.4231
  134MOL    C5221598   0.212   4.320   1.667  0.0727  0.8901 -0.3002
  134MOL    O5321599   0.130   4.408   1.701  0.2144  0.1734  0.2168
  134MOL    H5421600   0.523   4.444   1.655 -0.1197  0.1014  0.4815
  134MOL    H5521601   0.379   4.531   1.667 -1.2276 -0.3441 -0.0343
  134MOL    H5621602   0.350   4.276   1.822 -1.6014  1.3539  1.0940
  134MOL    H5721603   0.417   4.247   1.663  0.7861  0.0033  0.5054
  134MOL    C5821604   0.167   4.203   1.582 -0.0126 -0.2880 -0.1832
  134MOL    C5921605   0.036   4.131   1.622  0.5024 -0.5003  0.4431
  134MOL    C6021606   0.037   3.991   1.569 -0.5128 -0.3860  0.7537
  134MOL    O6121607   0.079   3.966   1.454 -0.6607  0.1137 -0.0173
  134MOL    H6221608   0.254   4.137   1.583 -1.2824 -1.9755  3.0882
  134MOL    H6321609   0.165   4.239   1.479  0.8140  0.5880  0.0927
  134MOL    H6421610   7.813   4.198   1.595 -1.6739 -2.5661  1.7400
  134MOL    H6521611   0.036   4.116   1.730 -1.4343  0.3988  0.5984
  134MOL    C6621612   7.828   3.882   1.651 -1.0083 -0.0961 -0.2296
  134MOL    C6721613   7.709   3.834   1.571 -0.2168 -0.1549  0.1142
  134MOL    C6821614   7.584   3.912   1.592  0.2296  0.2124  0.3061
  134MOL    O6921615   7.589   4.033   1.613  0.1149  0.0576 -0.6615
  134MOL    H7021616   7.807   3.909   1.755 -0.2105  2.0838 -0.5858
  134MOL    H7121617   0.039   3.800   1.636 -1.4505 -0.2639 -1.4022
  134MOL    H7221618   7.687   3.732   1.604  0.4352 -0.2947  0.1294
  134MOL    H7321619   7.732   3.819   1.465 -1.4255 -0.8840 -0.0578
  134MOL    C7421620   7.450   3.839   1.563  0.4784  0.4548 -0.2200
  134MOL    C7521621   7.326   3.936   1.550  0.8889  0.0392  0.3044
  134MOL    C7621622   7.210   3.904   1.639  0.6226 -0.5714 -0.7125
  134MOL    O7721623   7.221   3.835   1.740 -0.2499  0.2711 -0.4915
  134MOL    H7821624   7.453   3.770   1.648  2.2992  1.3322  0.4628
  134MOL    H7921625   7.459   3.778   1.473 -0.2388 -1.0307  0.6915
  134MOL    H8021626   7.290   3.946   1.447  2.4629  1.1051 -0.1597
  134MOL    H8121627   7.349   4.038   1.579  1.1938 -0.4268  1.7324
  134MOL    C8221628   7.075   3.976   1.629  0.7392  0.3301 -0.3166
  134MOL    C8321629   7.013   4.011   1.763 -0.3582  0.1650  0.6768
  134MOL    C8421630   6.940   3.892   1.833 -0.4194 -0.4170 -0.1341
  134MOL    O8521631   6.858   3.824   1.777 -0.4352 -0.3569 -0.5091
  134MOL    H8621632   7.012   3.916   1.564  1.3403  2.0932 -2.5996
  134MOL    H8721633   7.088   4.074   1.582  3.5459 -0.9847 -2.4389
  134MOL    H8821634   6.948   4.096   1.741 -2.3711 -1.7612 -1.1062
  134MOL    H8921635   7.096   4.037   1.828  0.1282 -1.6752  0.8245
  134MOL    C9021636   6.999   3.852   1.962  0.6573  0.2174 -0.5917
  134MOL    C9121637   6.964   3.706   1.994 -0.1334  0.6102 -0.1487
  134MOL    C9221638   7.000   3.651   2.127  0.2240 -0.1186 -0.0794
  134MOL    O9321639   6.935   3.678   2.225 -0.7371  0.3168  0.1750
  134MOL    H9421640   6.969   3.912   2.048  2.6025  0.5522 -0.1099
  134MOL    H9521641   7.108   3.857   1.962  0.5844  2.2627  0.6092
  134MOL    H9621642   7.004   3.642   1.915  0.8577 -0.1424  0.9439
  134MOL    H9721643   6.857   3.690   1.980  0.0098  0.3424 -1.0146
  134MOL    C9821644   7.125   3.578   2.133 -0.8391  0.6315 -0.5250
  134MOL    C9921645   7.110   3.426   2.162  0.0498 -0.6409 -0.0743
  134MOL   C10021646   7.227   3.368   2.236  0.5481  0.2469 -0.5636
  134MOL   O10121647   7.278   3.430   2.333 -0.0980  0.2466  0.7381
  134MOL   H10221648   7.181   3.630   2.211  0.9790 -0.8422 -0.8090
  134MOL   H10321649   7.192   3.596   2.049  1.4097  0.5220  1.1873
  134MOL   H10421650   7.104   3.379   2.064 -1.2672 -1.3092  0.3129
  134MOL   H10521651   7.027   3.400   2.228  0.8660 -0.2017  1.1344
  134MOL   C10621652   7.277   3.229   2.195  0.2370  0.8749  0.3981
  134MOL   C10721653   7.426   3.207   2.224  0.2490 -0.4848  0.5965
  134MOL   C10821654   7.469   3.072   2.180 -0.3391 -0.7749  0.3767
  134MOL   O10921655   7.397   2.972   2.187  0.0419 -0.0118 -0.5294
  134MOL   H11021656   7.260   3.211   2.089  0.7043  0.5048  0.3837
  134MOL   H11121657   7.220   3.162   2.260  1.6974 -2.4832 -1.6467
  134MOL   H11221658   7.425   3.204   2.333 -1.4536 -0.5833  0.5965
  134MOL   H11321659   7.495   3.280   2.183  0.2641 -0.3175  0.9229
  134MOL   C11421660   7.609   3.054   2.116 -0.5839  0.2403 -0.3302
  134MOL   C11521661   7.600   2.963   1.984  0.6840 -0.0029 -0.1764
  134MOL   C11621662   7.565   3.045   1.857 -0.6011  0.1118 -0.4096
  134MOL   O11721663   7.538   3.160   1.860  0.5314  0.0151 -0.4949
  134MOL   H11821664   7.678   3.008   2.186  0.5195 -0.3283 -1.7628
  134MOL   H11921665   7.654   3.151   2.096  0.2927 -0.1229 -0.1205
  134MOL   H12021666   7.535   2.877   1.994  0.0110  0.4149 -0.9251
  134MOL   H12121667   7.706   2.941   1.973  0.6273 -1.6638  2.2049
  134MOL   C12221668   7.570   2.959   1.737 -0.2303 -0.0234  0.6753
  134MOL   C12321669   7.518   3.044   1.616 -0.5383  0.5713  0.8422
  134MOL   C12421670   7.606   3.015   1.490 -0.2604  0.5079 -0.1097
  134MOL   O12521671   7.619   2.896   1.454 -0.1018  0.4517 -0.2108
  134MOL   H12621672   7.517   2.865   1.755 -0.7193 -0.5731 -3.3233
  134MOL   H12721673   7.669   2.919   1.715 -0.1472  0.0383  0.9339
  134MOL   H12821674   7.519   3.152   1.633  0.7095  0.4393  1.6826
  134MOL   H12921675   7.412   3.023   1.598 -0.3945 -1.0375  1.7632
  134MOL   C13021676   7.689   3.135   1.437 -0.7637 -0.2220 -0.2523
  134MOL   C13121677   7.804   3.088   1.346  0.7207 -0.0970  0.1134
  134MOL   C13221678   0.069   3.064   1.425  0.3718 -0.3997 -0.7717
  134MOL   O13321679   0.078   3.066   1.548 -0.3862  0.0986 -0.2235
  134MOL   H13421680   7.716   3.200   1.520 -0.6480 -0.9952  0.3229
  134MOL   H13521681   7.625   3.200   1.377 -0.7044  1.0297  1.0286
  134MOL   H13621682   7.819   3.164   1.269  3.2427 -0.3562  0.3084
  134MOL   H13721683   7.780   2.996   1.293 -1.9724  0.5785  0.0845
  134MOL   C13821684   0.195   3.036   1.337  0.1219 -0.2812 -0.0552
  134MOL   C13921685   0.299   3.146   1.311  0.4331  0.8794 -0.1674
  134MOL   C14021686   0.229   3.261   1.243  0.2156  0.1294 -0.0631
  134MOL   O14121687   0.158   3.338   1.311 -0.0901 -0.1123 -0.5465
  134MOL   H14221688   0.174   2.977   1.247 -4.5291  2.4018 -0.8672
  134MOL   H14321689   0.253   2.968   1.399  0.7566  0.8743  0.6326
  134MOL   H14421690   0.381   3.105   1.252  0.8413 -0.0292  1.0069
  134MOL   H14521691   0.343   3.193   1.398 -0.7982  1.0619  0.3629
  134MOL   C14621692   0.242   3.271   1.096 -0.4932 -0.1379  0.4436
  134MOL   C14721693   0.133   3.348   1.020  0.8685 -0.2862  0.1012
  134MOL   C14821694   0.092   3.287   0.889  0.6090 -0.5009 -0.0373
  134MOL   O14921695   0.120   3.171   0.858 -0.0136 -0.2010 -0.0052
  134MOL   H15021696   0.247   3.167   1.063 -1.9798 -0.2415  0.5031
  134MOL   H15121697   0.334   3.329   1.083  0.5356 -1.4029  1.9192
  134MOL   H15221698   0.156   3.451   0.994  0.8618 -0.3900 -0.3247
  134MOL   H15321699   0.043   3.362   1.081  0.7907 -2.1704  0.4577
  134MOL   C15421700   0.011   3.371   0.791 -0.2195 -0.3951  0.5111
  134MOL   C15521701   7.762   3.299   0.707  0.3456 -0.1142  0.5820
  134MOL   C15621702   7.653   3.398   0.676  0.1813 -0.2747 -0.6524
  134MOL   O15721703   7.617   3.488   0.753 -0.2091  0.1810  0.6721
  134MOL   H15821704   0.081   3.424   0.727 -0.2374 -0.0158  0.8058
  134MOL   H15921705   7.818   3.448   0.848 -0.6518 -1.2593  1.3241
  134MOL   H16021706   7.718   3.211   0.755 -1.1065  0.8572  1.0641
  134MOL   H16121707   7.799   3.250   0.617 -1.7127  2.3387 -1.6703
  134MOL   H16221708   7.600   3.382   0.582 -2.7220 -0.4485  0.9535
  135MOL     C121709   0.222   5.009   1.093  0.8561 -0.3610 -0.1004
  135MOL     C221710   0.266   5.114   1.194  0.5825 -0.2224 -0.4184
  135MOL     C321711   0.423   5.147   1.195 -0.7681 -0.0434 -0.5850
  135MOL     O421712   0.501   5.079   1.266 -0.5249  0.5581 -0.0855
  135MOL     H521713   0.131   4.963   1.132  0.4290  1.6369  1.3351
  135MOL     H621714   0.222   5.027   0.985 -1.3640 -1.7308 -0.3650
  135MOL     H721715   0.244   5.066   1.289 -0.2203 -0.8511 -0.9187
  135MOL     H821716   0.205   5.202   1.177 -0.4772 -1.0719 -1.0586
  135MOL     H921717   0.284   4.920   1.104  1.0922 -0.0627  1.1213
  135MOL    C1021718   0.471   5.265   1.112  0.7192  0.7176 -0.3593
  135MOL    C1121719   0.610   5.318   1.157  0.0141 -0.0707  0.1546
  135MOL    C1221720   0.625   5.468   1.149  0.0770 -0.6408  0.3348
  135MOL    O1321721   0.536   5.552   1.162  0.2849  0.6457 -0.4174
  135MOL    H1421722   0.402   5.348   1.128  2.1944  2.1158 -1.0709
  135MOL    H1521723   0.467   5.243   1.005 -1.4141 -2.6771  0.3681
  135MOL    H1621724   0.680   5.260   1.097 -0.4252 -0.3410 -0.1002
  135MOL    H1721725   0.613   5.292   1.262  0.6373  0.5622  0.2980
  135MOL    C1821726   0.765   5.516   1.120 -0.2697 -0.1020  0.2865
  135MOL    C1921727   0.787   5.665   1.120 -0.2098  0.3110  0.0233
  135MOL    C2021728   0.781   5.726   1.254  0.0787 -0.2201  0.0288
  135MOL    O2121729   0.858   5.686   1.340  0.3674  0.1253 -0.2234
  135MOL    H2221730   0.792   5.481   1.020 -0.1839  0.6551  0.0365
  135MOL    H2321731   0.832   5.458   1.183 -2.2214 -1.6726  0.9549
  135MOL    H2421732   0.731   5.716   1.042 -0.5513 -2.8982 -1.9272
  135MOL    H2521733   0.890   5.680   1.089 -0.1858 -2.6918 -1.5344
  135MOL    C2621734   0.676   5.828   1.289 -0.1326  0.4965  0.0817
  135MOL    C2721735   0.733   5.954   1.360 -0.5251  0.6930  0.2007
  135MOL    C2821736   0.649   6.000   1.474  0.1158  0.0695  0.0765
  135MOL    O2921737   0.534   5.969   1.501 -0.6262  0.1194 -0.6599
  135MOL    H3021738   0.617   5.774   1.363  0.4229 -0.5446 -0.2215
  135MOL    H3121739   0.608   5.846   1.206  0.5617  1.6027 -0.2539
  135MOL    H3221740   0.747   6.037   1.291 -0.8274 -0.3278 -1.1018
  135MOL    H3321741   0.834   5.948   1.402  0.2391  0.9042 -1.5862
  135MOL    C3421742   0.706   6.115   1.549 -1.0860  0.1871  0.0874
  135MOL    C3521743   0.651   6.131   1.694 -0.8659 -0.7207 -0.1758
  135MOL    C3621744   0.698   6.031   1.791  0.3761  0.6639 -0.0903
  135MOL    O3721745   0.792   5.955   1.756  0.4688  0.3412  1.0617
  135MOL    H3821746   0.685   6.204   1.490  0.9862 -0.4562 -1.6949
  135MOL    H3921747   0.814   6.105   1.543 -1.4307 -2.7636 -2.0005
  135MOL    H4021748   0.543   6.124   1.709 -1.4103  4.5442 -0.8897
  135MOL    H4121749   0.680   6.231   1.724 -1.7455 -0.4455 -0.2250
  135MOL    C4221750   0.640   6.028   1.937  0.0792 -0.1622  0.1423
  135MOL    C4321751   0.643   5.892   1.993 -0.4269  0.6146 -0.3462
  135MOL    C4421752   0.640   5.885   2.148 -0.0923  0.4807  0.1973
  135MOL    O4521753   0.723   5.817   2.210  0.3718  0.3748 -0.2399
  135MOL    H4621754   0.540   6.072   1.941 -0.1967 -0.7292 -0.3922
  135MOL    H4721755   0.700   6.092   2.001 -0.8618  0.2359  0.6424
  135MOL    H4821756   0.741   5.847   1.978 -0.2953  0.2415  1.5047
  135MOL    H4921757   0.580   5.825   1.934  3.0727 -3.8479  0.6662
  135MOL    C5021758   0.522   5.943   2.229 -0.2890 -0.6166 -0.1308
  135MOL    C5121759   0.502   5.881   2.365 -0.0239  0.4165 -0.7060
  135MOL    C5221760   0.385   5.941   2.443 -0.5918 -0.3569  0.5255
  135MOL    O5321761   0.351   6.061   2.429  0.2638 -0.6802 -0.6253
  135MOL    H5421762   0.437   5.924   2.163 -0.2947 -0.2339 -0.2356
  135MOL    H5521763   0.539   6.050   2.240  1.0283 -0.6546 -1.5394
  135MOL    H5621764   0.593   5.905   2.420  1.6827 -1.1182 -2.7999
  135MOL    H5721765   0.490   5.775   2.343 -0.6611  0.3710 -0.1609
  135MOL    C5821766   0.300   5.848   2.525 -0.5293  0.1767 -0.0263
  135MOL    C5921767   0.257   5.908   2.661 -0.0007 -0.8171  0.3805
  135MOL    C6021768   0.334   5.850   2.774 -0.1182  0.1083 -0.8103
  135MOL    O6121769   0.291   5.752   2.838  0.0309  0.1946 -0.2377
  135MOL    H6221770   0.345   5.749   2.536  1.4810  1.0069 -0.3857
  135MOL    H6321771   0.209   5.839   2.466 -0.5346 -2.2685  0.3180
  135MOL    H6421772   0.153   5.875   2.665  0.0769 -0.9629  1.2761
  135MOL    H6521773   0.261   6.017   2.665  0.1907 -0.7963 -0.4061
  135MOL    C6621774   0.472   5.909   2.801  0.3197 -0.1567 -0.1083
  135MOL    C6721775   0.521   5.874   2.944 -0.5765  0.2280 -0.6927
  135MOL    C6821776   0.638   5.956   2.980 -0.3778  0.2896 -0.3016
  135MOL    O6921777   0.634   6.077   2.974  0.0021  0.1978  0.0492
  135MOL    H7021778   0.456   6.016   2.784 -1.0193  0.2720  3.4380
  135MOL    H7121779   0.543   5.868   2.729  0.4457 -0.8971  0.4361
  135MOL    H7221780   0.553   5.770   2.952 -0.1685  0.5135  1.8990
  135MOL    H7321781   0.442   5.878   3.019 -1.2649 -0.5153 -1.3716
  135MOL    C7421782   0.756   5.880   3.033 -0.3872 -0.5848  0.9118
  135MOL    C7521783   0.872   5.974   3.073 -0.1942 -0.7189 -0.4537
  135MOL    C7621784   0.876   6.008   3.222 -0.1413  0.5024  0.2058
  135MOL    O7721785   0.802   5.953   3.306  0.2000  0.1499  0.0466
  135MOL    H7821786   0.796   5.818   2.953  1.5307 -1.2689  2.3658
  135MOL    H7921787   0.728   5.811   3.112 -2.6136  0.6388  1.2457
  135MOL    H8021788   0.871   6.066   3.015  0.1450 -0.3899  0.0550
  135MOL    H8121789   0.970   5.929   3.055  1.8241  3.0225  0.5163
  135MOL    C8221790   0.964   6.130   3.253  1.2929  0.7267  0.3960
  135MOL    C8321791   0.869   6.241   3.288 -0.6367 -0.4718  0.3879
  135MOL    C8421792   0.857   6.347   3.179 -0.1140 -0.1954  0.6431
  135MOL    O8521793   0.939   6.348   3.087 -0.4406 -0.0409  0.5081
  135MOL    H8621794   1.026   6.154   3.167  0.0592 -1.9234 -1.3153
  135MOL    H8721795   1.026   6.107   3.340 -0.2787 -0.3371  1.2640
  135MOL    H8821796   0.902   6.294   3.377 -2.3994 -1.6580  1.7939
  135MOL    H8921797   0.767   6.212   3.314 -0.3920 -4.1148 -2.1785
  135MOL    C9021798   0.753   6.456   3.189  1.1011 -0.1913  0.8008
  135MOL    C9121799   0.820   6.577   3.252 -0.8787 -0.6232 -0.0813
  135MOL    C9221800   0.747   6.711   3.226 -0.1692  0.2524 -0.2707
  135MOL    O9321801   0.633   6.714   3.183 -0.0459 -0.1414  0.6030
  135MOL    H9421802   0.667   6.423   3.247  1.1426 -0.4115  0.7381
  135MOL    H9521803   0.720   6.475   3.087  0.2185  1.0975  1.3218
  135MOL    H9621804   0.924   6.592   3.221 -0.8923  0.8438  0.5427
  135MOL    H9721805   0.826   6.569   3.360 -0.4266 -1.2836 -0.1496
  135MOL    C9821806   0.830   6.828   3.255  0.2994 -0.2720  0.1255
  135MOL    C9921807   0.792   6.949   3.167  0.1958  0.3896 -1.0988
  135MOL   C10021808   0.672   7.039   3.215 -0.5158 -0.7525 -0.1748
  135MOL   O10121809   0.634   7.031   3.337 -0.1855  0.3533  0.3865
  135MOL   H10221810   0.938   6.814   3.262  0.2820  0.1158  1.2523
  135MOL   H10321811   0.790   6.853   3.353 -3.8846 -1.3877 -1.1898
  135MOL   H10421812   0.762   6.921   3.066 -0.6087 -1.8458 -0.2775
  135MOL   H10521813   0.882   7.005   3.140  0.5786 -0.0763 -0.8154
  135MOL   C10621814   0.621   7.139   3.118  0.2183 -0.2811  0.1278
  135MOL   C10721815   0.531   7.251   3.179  0.4127 -0.3216 -0.3054
  135MOL   C10821816   0.387   7.271   3.126  0.2959  0.5159 -0.4325
  135MOL   O10921817   0.308   7.179   3.140 -0.0517 -0.5194 -0.2259
  135MOL   H11021818   0.559   7.097   3.038  0.9843  3.5405 -2.6467
  135MOL   H11121819   0.698   7.184   3.055 -0.2450  1.3488  0.7022
  135MOL   H11221820   0.584   7.345   3.162 -0.8734  0.9510  2.3184
  135MOL   H11321821   0.541   7.249   3.288  2.0553 -0.6099 -0.4353
  135MOL   C11421822   0.358   7.398   3.048  0.1307  0.2093 -0.4057
  135MOL   C11521823   0.243   7.384   2.954 -0.0996 -0.0073  0.4456
  135MOL   C11621824   0.278   7.326   2.818  1.0264 -0.3166  0.3472
  135MOL   O11721825   0.388   7.278   2.788 -0.9001  0.0150  0.0230
  135MOL   H11821826   0.447   7.410   2.985  0.8043 -0.7013  0.3482
  135MOL   H11921827   0.353   7.487   3.111 -0.6821 -0.7546  0.9067
  135MOL   H12021828   0.188   7.476   2.936 -2.5071 -2.0785 -3.5872
  135MOL   H12121829   0.161   7.329   3.000 -0.6751 -0.0281 -0.6024
  135MOL   C12221830   0.158   7.341   2.721 -0.2024  0.4001  0.6058
  135MOL   C12321831   0.180   7.308   2.572 -0.0226 -0.0164  0.3304
  135MOL   C12421832   0.248   7.418   2.488  0.2777 -0.2252 -0.3624
  135MOL   O12521833   0.250   7.530   2.525 -0.2864  0.0095 -0.2059
  135MOL   H12621834   0.130   7.447   2.721  0.6337  0.6639 -2.5076
  135MOL   H12721835   0.083   7.274   2.762 -1.9347  2.5644  1.0825
  135MOL   H12821836   0.083   7.309   2.521  1.1201  2.9675 -1.8995
  135MOL   H12921837   0.232   7.215   2.547 -0.5259  0.3914 -2.4452
  135MOL   C13021838   0.312   7.373   2.351 -0.1968  0.5115 -0.1271
  135MOL   C13121839   0.262   7.437   2.218  0.1155  0.1100 -0.3176
  135MOL   C13221840   0.145   7.362   2.158  0.4559  0.1192  0.4976
  135MOL   O13321841   0.107   7.252   2.202 -0.4572  0.8348 -0.1210
  135MOL   H13421842   0.288   7.267   2.339 -1.8173  0.7968  0.4114
  135MOL   H13521843   0.419   7.391   2.355 -0.2762  1.0710 -0.4332
  135MOL   H13621844   0.344   7.419   2.149  1.0198  1.3522  0.4022
  135MOL   H13721845   0.235   7.540   2.244  0.8756 -0.0039  0.9780
  135MOL   C13821846   0.089   7.427   2.034  0.4719 -0.4086 -0.2739
  135MOL   C13921847   7.803   7.397   2.006  0.4808 -0.6931  0.3452
  135MOL   C14021848   7.786   7.392   1.854 -0.8627  0.5165  0.3378
  135MOL   O14121849   7.726   7.303   1.796 -0.0397 -0.7968 -0.9931
  135MOL   H14221850   0.155   7.414   1.948  0.4844 -1.5785 -0.0934
  135MOL   H14321851   0.107   7.533   2.052  1.6701 -0.6030 -0.2877
  135MOL   H14421852   7.741   7.475   2.050  0.0295 -0.9188  0.1125
  135MOL   H14521853   7.769   7.302   2.048 -1.9882 -0.0414 -0.0580
  135MOL   C14621854   7.836   7.514   1.770 -0.9370  1.1851  0.3830
  135MOL   C14721855   7.809   7.502   1.619  0.3671 -0.0292 -0.7385
  135MOL   C14821856   7.809   7.640   1.550  0.1939  0.0406  0.3960
  135MOL   O14921857   7.808   7.745   1.617 -0.3115  0.2595  0.2080
  135MOL   H15021858   0.079   7.546   1.794  0.0568 -1.4430 -0.1477
  135MOL   H15121859   7.779   7.597   1.812  0.0807  1.5241  1.1181
  135MOL   H15221860   7.716   7.448   1.600  0.8093 -0.9264 -0.3843
  135MOL   H15321861   0.024   7.449   1.560  0.6190 -0.1173 -0.3418
  135MOL   C15421862   7.803   7.636   1.399  0.1958 -0.3830 -0.0907
  135MOL   C15521863   7.727   7.749   1.334  0.2179 -0.3140  0.1765
  135MOL   C15621864   7.574   7.756   1.362  0.0323 -0.6027 -0.3984
  135MOL   O15721865   7.510   7.656   1.390 -0.6834 -0.4746 -0.2748
  135MOL   H15821866   7.768   7.539   1.364 -0.8134 -1.0878  2.7401
  135MOL   H15921867   0.045   7.644   1.359  0.2783 -1.6132 -0.1351
  135MOL   H16021868   7.742   7.756   1.227 -0.1297 -0.6564  0.1021
  135MOL   H16121869   7.763   7.843   1.376  0.5507  0.5979 -2.1030
  135MOL   H16221870   7.524   7.853   1.361  0.1220 -0.5566 -1.3094
  136MOL     C121871   6.152   2.351   6.881 -1.0998  0.3500 -0.2497
  136MOL     C221872   6.108   2.341   7.024 -0.4851 -0.4328 -0.2662
  136MOL     C321873   6.007   2.231   7.058  0.2065  0.4816  0.4613
  136MOL     O421874   5.924   2.199   6.976 -0.0820  0.2491 -0.5995
  136MOL     H521875   6.248   2.404   6.884  0.6102 -2.6418 -0.2203
  136MOL     H621876   6.177   2.252   6.844 -2.3617  0.3879 -1.2342
  136MOL     H721877   6.059   2.433   7.054  1.8711  0.6963  0.1526
  136MOL     H821878   6.190   2.332   7.094  0.8214  0.2407 -1.6745
  136MOL     H921879   6.093   2.409   6.810 -0.6078  0.6124 -0.4540
  136MOL    C1021880   5.989   2.182   7.198  0.7088  0.6093  0.2165
  136MOL    C1121881   5.856   2.231   7.255 -0.3601 -0.6593  0.3928
  136MOL    C1221882   5.836   2.189   7.403 -0.0611  0.2720 -0.0583
  136MOL    O1321883   5.816   2.067   7.428  1.0491 -0.6398 -0.0516
  136MOL    H1421884   6.079   2.204   7.256  0.0645  2.7371  0.4380
  136MOL    H1521885   5.981   2.074   7.185  2.1567  0.3931  0.9345
  136MOL    H1621886   5.784   2.178   7.193 -0.8758  2.0757 -1.4846
  136MOL    H1721887   5.846   2.339   7.246  0.4396 -0.6911 -1.0807
  136MOL    C1821888   5.847   2.300   7.513  0.7138  0.2446  0.2094
  136MOL    C1921889   5.863   2.230   7.655 -0.0751  0.1868 -0.4844
  136MOL    C2021890   5.990   2.278   7.740 -0.2491  0.6250  0.6673
  136MOL    O2121891   6.074   2.356   7.697 -0.0465  0.5294 -0.0929
  136MOL    H2221892   5.763   2.370   7.513 -1.5664 -2.4018 -0.4740
  136MOL    H2321893   5.931   2.358   7.473 -1.4003  1.9070 -1.9775
  136MOL    H2421894   5.894   2.126   7.642  0.1449  0.1361  0.4104
  136MOL    H2521895   5.768   2.209   7.705  0.2445  0.7136  0.3745
  136MOL    C2621896   6.007   2.218   0.014 -0.6139  0.5396 -0.4668
  136MOL    C2721897   6.046   2.067   0.015 -0.0469  0.1574 -0.1282
  136MOL    C2821898   6.025   1.992   0.150 -0.2240 -0.5038  0.5641
  136MOL    O2921899   5.971   2.050   0.247 -0.4433  0.5892 -0.8460
  136MOL    H3021900   5.908   2.228   0.059 -0.1477 -2.6446  1.4075
  136MOL    H3121901   6.083   2.275   0.068 -0.9607  2.3587 -1.8599
  136MOL    H3221902   6.152   2.062   7.846 -1.0789  0.0897 -4.3384
  136MOL    H3321903   5.988   2.017   7.797  0.4842 -1.2284  0.3539
  136MOL    C3421904   6.074   1.852   0.166  0.6179 -0.6932 -0.3024
  136MOL    C3521905   6.149   1.837   0.302 -1.1290  0.1985  0.0003
  136MOL    C3621906   6.063   1.774   0.418  0.8381 -0.0834  0.1425
  136MOL    O3721907   5.950   1.727   0.402 -0.4639  0.6973 -0.2800
  136MOL    H3821908   6.133   1.816   0.082 -0.1890  2.9001 -2.4666
  136MOL    H3921909   5.987   1.786   0.170  0.9917 -1.1953 -0.3141
  136MOL    H4021910   6.175   1.935   0.342  2.1795 -0.0482 -1.4087
  136MOL    H4121911   6.246   1.788   0.295 -1.1822  0.0025  0.6316
  136MOL    C4221912   6.127   1.768   0.553 -0.1051  0.1490 -1.1422
  136MOL    C4321913   6.029   1.817   0.662 -0.0185 -0.4488  0.0430
  136MOL    C4421914   5.987   1.711   0.757 -0.0780 -0.1080 -0.0322
  136MOL    O4521915   6.067   1.636   0.807 -0.1459 -0.3256  0.5495
  136MOL    H4621916   6.221   1.821   0.567  0.7911 -1.2861 -1.6608
  136MOL    H4721917   6.157   1.664   0.567 -1.4243 -0.1325 -0.3871
  136MOL    H4821918   5.942   1.867   0.621  1.2817  0.9882 -1.0435
  136MOL    H4921919   6.058   1.908   0.715  0.0460 -0.2977 -0.2537
  136MOL    C5021920   5.840   1.692   0.790  0.1533 -0.3492 -0.7181
  136MOL    C5121921   5.771   1.592   0.698 -0.0437 -0.1613  0.0689
  136MOL    C5221922   5.752   1.460   0.765 -0.4399 -0.3073  0.2660
  136MOL    O5321923   5.843   1.418   0.832  0.5570  0.0709 -0.3831
  136MOL    H5421924   5.788   1.788   0.801  1.9692  0.9418 -2.9642
  136MOL    H5521925   5.841   1.652   0.892 -0.2184  0.8230 -0.2379
  136MOL    H5621926   5.845   1.562   0.624  0.4611  0.8033  0.1849
  136MOL    H5721927   5.679   1.630   0.655 -0.1251  0.5996  0.9078
  136MOL    C5821928   5.624   1.381   0.735  0.3158  0.2471  0.2031
  136MOL    C5921929   5.600   1.255   0.826  0.2157 -0.4151  0.4348
  136MOL    C6021930   5.649   1.121   0.767  0.7445  0.8152  0.2580
  136MOL    O6121931   5.581   1.070   0.678 -0.1003  0.2581  0.0958
  136MOL    H6221932   5.623   1.359   0.629  1.1291 -0.4633  0.3379
  136MOL    H6321933   5.544   1.452   0.758  1.0906  0.4360  2.4262
  136MOL    H6421934   5.498   1.250   0.862 -0.0005  0.7734  0.0107
  136MOL    H6521935   5.662   1.274   0.914  0.2653 -1.1503  0.5609
  136MOL    C6621936   5.777   1.061   0.824 -0.1996  0.1372  0.4201
  136MOL    C6721937   5.765   0.911   0.831  0.0509 -0.1795 -0.1151
  136MOL    C6821938   5.887   0.827   0.808  0.2888 -0.1403 -0.1213
  136MOL    O6921939   5.986   0.871   0.755 -0.1087  0.3934  0.6251
  136MOL    H7021940   5.789   1.100   0.926 -1.5724 -0.0867  0.6861
  136MOL    H7121941   5.855   1.092   0.755  0.3386 -1.1660  0.4468
  136MOL    H7221942   5.685   0.864   0.774  1.8377 -2.1977 -0.9779
  136MOL    H7321943   5.742   0.879   0.933 -0.4441 -2.0908 -0.8094
  136MOL    C7421944   5.880   0.687   0.859 -0.3417  0.2685 -0.3247
  136MOL    C7521945   5.941   0.586   0.761  0.4866  0.3348 -0.0222
  136MOL    C7621946   5.843   0.528   0.657 -0.1782 -0.6846  0.0744
  136MOL    O7721947   5.732   0.574   0.637 -0.3748  0.5466  0.0920
  136MOL    H7821948   5.784   0.647   0.890 -0.5507 -0.2389 -1.5993
  136MOL    H7921949   5.933   0.681   0.953 -1.4772  3.0778  0.5575
  136MOL    H8021950   5.998   0.510   0.815 -0.2500  0.2561  0.6595
  136MOL    H8121951   6.027   0.634   0.713 -0.7626  0.0482 -2.6420
  136MOL    C8221952   5.908   0.435   0.555 -0.0546  0.6409 -0.3140
  136MOL    C8321953   5.815   0.406   0.433  0.4209 -0.1683 -0.4080
  136MOL    C8421954   5.882   0.430   0.303 -0.1173 -0.5943  0.4106
  136MOL    O8521955   5.960   0.347   0.261 -0.0991 -0.0104 -0.0880
  136MOL    H8621956   5.942   0.346   0.607 -0.5779  0.8729  0.4404
  136MOL    H8721957   6.007   0.468   0.526  0.8343 -0.3188  1.5612
  136MOL    H8821958   5.716   0.449   0.443  0.3801 -0.5996  1.2187
  136MOL    H8921959   5.788   0.300   0.438  0.3562 -0.2798 -2.6026
  136MOL    C9021960   5.837   0.545   0.215 -0.1821 -0.7434 -0.2957
  136MOL    C9121961   5.946   0.600   0.119 -0.5017  0.2663 -0.4901
  136MOL    C9221962   5.908   0.737   0.059 -0.0284  0.6197  0.8533
  136MOL    O9321963   5.805   0.791   0.100  0.2305 -0.1622 -0.3325
  136MOL    H9421964   5.806   0.629   0.279  1.7966 -0.5669  0.4707
  136MOL    H9521965   5.751   0.514   0.157 -1.1342 -0.6022  1.0081
  136MOL    H9621966   5.987   0.532   0.045  3.3114 -1.9069  3.3611
  136MOL    H9721967   6.039   0.621   0.172 -1.0798 -0.4188  0.8356
  136MOL    C9821968   5.993   0.788   7.803 -0.3980 -0.1218 -0.1022
  136MOL    C9921969   6.014   0.937   7.795 -0.1704 -0.2644 -0.5766
  136MOL   C10021970   6.135   0.977   7.705  0.9396 -0.4021 -0.4526
  136MOL   O10121971   6.219   0.898   7.669 -0.1000  0.0166  0.2592
  136MOL   H10221972   5.937   0.767   7.712  0.6054 -1.2822 -0.4673
  136MOL   H10321973   6.091   0.742   7.814 -0.8160 -0.9284  0.2833
  136MOL   H10421974   6.030   0.969   0.039 -0.9820 -1.2049 -0.1526
  136MOL   H10521975   5.933   0.995   7.753 -0.4799 -0.1529  0.1699
  136MOL   C10621976   6.140   1.130   7.678 -0.5053 -0.2634  0.5349
  136MOL   C10721977   6.268   1.181   7.615 -0.6417  0.1143 -0.2327
  136MOL   C10821978   6.254   1.268   7.489  0.3543 -0.2526  0.0159
  136MOL   O10921979   6.152   1.339   7.470  0.2534 -0.1876 -0.3281
  136MOL   H11021980   6.123   1.187   7.769 -1.2490  1.1406 -0.4741
  136MOL   H11121981   6.053   1.150   7.616 -0.1075 -2.4350 -0.7964
  136MOL   H11221982   6.333   1.098   7.586 -0.2807  0.1625  0.4183
  136MOL   H11321983   6.309   1.244   7.694 -1.2910  0.6731 -0.3330
  136MOL   C11421984   6.382   1.272   7.399  0.3612  0.9016 -0.4332
  136MOL   C11521985   6.373   1.364   7.273 -0.1494 -0.1586  0.6720
  136MOL   C11621986   6.496   1.367   7.175  0.1267 -0.2620 -0.4199
  136MOL   O11721987   6.609   1.376   7.210 -0.8481 -0.1857  0.1893
  136MOL   H11821988   6.390   1.169   7.365 -2.3240  0.7754 -0.8080
  136MOL   H11921989   6.471   1.305   7.451  1.9439 -2.4004 -0.9479
  136MOL   H12021990   6.367   1.468   7.308 -2.0902  0.7467 -2.1591
  136MOL   H12121991   6.282   1.344   7.216 -0.7835  1.0102  1.2422
  136MOL   C12221992   6.465   1.356   7.025  0.1626 -0.1184  0.1336
  136MOL   C12321993   6.572   1.286   6.940  0.7655  0.0128 -0.1974
  136MOL   C12421994   6.529   1.267   6.796 -0.1600  0.1272  0.0524
  136MOL   O12521995   6.437   1.344   6.755 -0.4020  0.4600 -0.1343
  136MOL   H12621996   6.454   1.461   6.998 -0.4465  0.1322  1.3120
  136MOL   H12721997   6.371   1.303   7.014  1.0673 -1.6775 -0.2517
  136MOL   H12821998   6.599   1.186   6.974 -0.0181  0.3239  1.3707
  136MOL   H12921999   6.672   1.329   6.949  1.3959 -0.8679 -2.4934
  136MOL   C13022000   6.599   1.164   6.711  0.3382 -0.3394  0.3123
  136MOL   C13122001   6.523   1.118   6.589 -1.1154  0.5959  0.0577
  136MOL   C13222002   6.548   1.195   6.461 -0.4140 -0.2212 -0.4922
  136MOL   O13322003   6.660   1.240   6.438 -0.4116  0.3443 -0.4017
  136MOL   H13422004   6.608   1.084   6.785 -2.3417 -0.9919 -0.0211
  136MOL   H13522005   6.699   1.202   6.687 -0.3312  1.2420 -0.0669
  136MOL   H13622006   6.417   1.114   6.615 -1.2411 -1.5525 -0.7035
  136MOL   H13722007   6.553   1.014   6.575  1.3024  1.3200 -0.3684
  136MOL   C13822008   6.433   1.233   6.365  0.5361 -0.2095  0.1376
  136MOL   C13922009   6.438   1.138   6.237  0.2360  0.1514  0.1266
  136MOL   C14022010   6.478   1.217   6.115 -0.0402  0.1752  0.2444
  136MOL   O14122011   6.507   1.339   6.125 -0.0396 -0.0651  0.4911
  136MOL   H14222012   6.438   1.340   6.348 -1.4771 -0.5042 -2.8627
  136MOL   H14322013   6.335   1.222   6.411  0.2472  0.5757 -0.2770
  136MOL   H14422014   6.339   1.102   6.211 -0.0938  2.2901 -1.7540
  136MOL   H14522015   6.496   1.046   6.244  2.5874  1.5596 -0.3003
  136MOL   C14622016   6.498   1.135   5.987 -0.1459 -0.1545 -0.1907
  136MOL   C14722017   6.434   1.200   5.865  0.4491 -0.3561  0.3627
  136MOL   C14822018   6.521   1.207   5.740  0.1662 -0.1696 -0.6253
  136MOL   O14922019   6.605   1.118   5.722  0.3494 -0.1136 -0.8215
  136MOL   H15022020   6.468   1.030   5.984  0.1144 -0.2219 -0.5502
  136MOL   H15122021   6.606   1.122   5.976  0.3538  1.1820  2.6356
  136MOL   H15222022   6.405   1.302   5.890  0.4128 -0.5760  1.2512
  136MOL   H15322023   6.341   1.147   5.841  0.2802  0.0543  0.1080
  136MOL   C15422024   6.501   1.326   5.645 -0.0257  0.1119  0.5785
  136MOL   C15522025   6.602   1.337   5.524  0.4905 -0.5231 -0.1226
  136MOL   C15622026   6.584   1.461   5.435  0.4571 -0.3461  0.1831
  136MOL   O15722027   6.476   1.525   5.440  0.1536  0.1711  0.4825
  136MOL   H15822028   6.497   1.423   5.694  0.8260 -0.8820  2.6800
  136MOL   H15922029   6.401   1.311   5.603  0.7428 -2.2667 -0.5432
  136MOL   H16022030   6.590   1.246   5.464  1.1548 -1.5686  1.2902
  136MOL   H16122031   6.700   1.340   5.571  0.8603 -0.9677 -0.8656
  136MOL   H16222032   6.661   1.478   5.359 -1.2047 -0.2367 -1.5228
  137MOL     C122033   1.402   2.110   4.842 -0.3032 -0.0489  0.3838
  137MOL     C222034   1.476   1.985   4.789  0.2801 -0.9475  0.0892
  137MOL     C322035   1.391   1.860   4.808  0.2889 -0.4777 -1.1961
  137MOL     O422036   1.293   1.836   4.738  0.1627  0.4970 -0.1945
  137MOL     H522037   1.312   2.138   4.787 -0.2478 -0.8384 -0.1283
  137MOL     H622038   1.355   2.108   4.940 -1.2003 -2.2545 -0.0630
  137MOL     H722039   1.569   1.970   4.844  0.8983  0.4849 -0.5542
  137MOL     H822040   1.504   2.009   4.687 -1.8231 -1.0314 -0.5407
  137MOL     H922041   1.479   2.186   4.854  2.1369 -1.9424 -2.3786
  137MOL    C1022042   1.443   1.773   4.917 -0.5935 -0.4083  0.6294
  137MOL    C1122043   1.348   1.686   4.977  0.5004  0.1192 -0.3218
  137MOL    C1222044   1.391   1.579   5.075 -0.1590 -0.1175 -0.7180
  137MOL    O1322045   1.502   1.581   5.131 -0.2237  0.1668 -0.0320
  137MOL    H1422046   1.470   1.841   4.997 -1.2886  2.0718 -1.1682
  137MOL    H1522047   1.534   1.715   4.899  0.4289  1.5658 -0.7081
  137MOL    H1622048   1.286   1.638   4.901  0.7608 -1.7639  0.6403
  137MOL    H1722049   1.276   1.751   5.027  0.2461 -2.1053  2.3584
  137MOL    C1822050   1.287   1.475   5.120 -0.1069 -0.2997  0.3160
  137MOL    C1922051   1.278   1.429   5.269 -0.4200 -0.7811  1.0867
  137MOL    C2022052   1.221   1.285   5.290  0.1312 -0.2813  0.2442
  137MOL    O2122053   1.110   1.258   5.250 -0.2386  0.3324 -0.7973
  137MOL    H2222054   1.296   1.391   5.052 -1.4303  0.3565 -0.6843
  137MOL    H2322055   1.188   1.514   5.099  0.0034 -1.6845 -2.9510
  137MOL    H2422056   1.220   1.512   5.309 -0.9343  0.0009 -1.2124
  137MOL    H2522057   1.374   1.432   5.321 -0.0069  0.8309  0.2419
  137MOL    C2622058   1.309   1.185   5.362  0.2006 -0.0689 -0.2547
  137MOL    C2722059   1.251   1.166   5.511 -0.2976  0.6660 -0.1069
  137MOL    C2822060   1.371   1.144   5.605 -0.2509  0.2150  0.5127
  137MOL    O2922061   1.476   1.097   5.566 -0.2455 -0.4439  0.0467
  137MOL    H3022062   1.410   1.225   5.371  0.4573 -0.9900  1.0720
  137MOL    H3122063   1.321   1.091   5.307 -1.0967 -0.6906  0.4908
  137MOL    H3222064   1.185   1.081   5.523  0.7166  0.1020  1.7794
  137MOL    H3322065   1.199   1.255   5.548 -2.5570 -1.1396  1.1471
  137MOL    C3422066   1.360   1.186   5.750 -0.4228  0.4478  0.2259
  137MOL    C3522067   1.234   1.129   5.816 -0.1120 -0.0861 -0.1432
  137MOL    C3622068   1.132   1.238   5.845 -0.7356 -0.7631 -0.0637
  137MOL    O3722069   1.125   1.348   5.786 -0.7330 -0.5310  0.0944
  137MOL    H3822070   1.369   1.295   5.758  1.4223  0.2606  1.1069
  137MOL    H3922071   1.439   1.134   5.804  0.2842  0.1414 -1.0852
  137MOL    H4022072   1.274   1.104   5.914  1.3646  0.2631 -0.6415
  137MOL    H4122073   1.192   1.038   5.775 -1.9823  1.7886 -2.5683
  137MOL    C4222074   1.025   1.210   5.954 -0.0209  0.2395 -0.2446
  137MOL    C4322075   0.964   1.329   6.032 -0.0383 -0.1778 -0.0223
  137MOL    C4422076   1.060   1.383   6.139  0.2470 -0.1744 -0.6300
  137MOL    O4522077   1.182   1.393   6.121 -0.4341  0.0554  0.4627
  137MOL    H4622078   1.079   1.142   6.019 -0.1725 -0.1103 -0.4818
  137MOL    H4722079   0.944   1.161   5.900 -0.1402  0.6122 -0.4108
  137MOL    H4822080   0.870   1.312   6.083 -0.6739 -2.3577 -1.8156
  137MOL    H4922081   0.938   1.410   5.964 -1.2466  0.4754  1.2095
  137MOL    C5022082   0.990   1.413   6.275  0.3008  0.7242  0.0626
  137MOL    C5122083   1.080   1.487   6.374  0.0201  0.1880 -0.0768
  137MOL    C5222084   1.136   1.401   6.492 -0.6198  0.6393 -0.5307
  137MOL    O5322085   1.082   1.298   6.529  0.0565  0.0847  0.4073
  137MOL    H5422086   0.954   1.315   6.307 -2.2482  1.6262  0.0374
  137MOL    H5522087   0.901   1.472   6.252  1.3135  1.7568 -1.2643
  137MOL    H5622088   1.021   1.564   6.424 -1.0062 -1.7597  1.7841
  137MOL    H5722089   1.157   1.540   6.318  0.6552  2.3693  2.7323
  137MOL    C5822090   1.270   1.444   6.545 -0.3579 -0.8847  0.3136
  137MOL    C5922091   1.301   1.389   6.688 -0.1446  1.3379  0.2518
  137MOL    C6022092   1.261   1.480   6.805 -0.0314  0.3222 -0.3342
  137MOL    O6122093   1.198   1.580   6.780 -0.2805  0.4894  0.1492
  137MOL    H6222094   1.273   1.553   6.531 -1.8621 -0.9791 -0.9442
  137MOL    H6322095   1.347   1.406   6.478 -3.7433 -1.7797 -3.2599
  137MOL    H6422096   1.407   1.364   6.695 -0.0927  0.5575 -2.6784
  137MOL    H6522097   1.246   1.296   6.704  1.0265  0.4739 -0.6557
  137MOL    C6622098   1.291   1.431   6.952  0.1799  0.7632 -0.3244
  137MOL    C6722099   1.172   1.460   7.043 -0.2732  0.1469 -0.6993
  137MOL    C6822100   1.076   1.343   7.053 -0.7993  0.6816 -0.7862
  137MOL    O6922101   1.106   1.254   7.134  0.4172  0.0063  0.5693
  137MOL    H7022102   1.384   1.468   6.996  1.4237 -2.0988 -0.4351
  137MOL    H7122103   1.319   1.326   6.957  2.7708  1.4385  0.4615
  137MOL    H7222104   1.119   1.549   7.011  0.5537  0.9664  0.1775
  137MOL    H7322105   1.203   1.481   7.145 -2.3016  0.5009 -0.1300
  137MOL    C7422106   0.959   1.321   6.960  0.1039 -0.6150  0.7196
  137MOL    C7522107   0.918   1.168   6.973  0.0656  0.2493 -0.2349
  137MOL    C7622108   1.020   1.068   6.916 -0.0747 -0.3956  0.5707
  137MOL    O7722109   1.094   1.100   6.826 -0.0623  0.0599 -0.5401
  137MOL    H7822110   0.975   1.351   6.856  2.1892  2.8973  1.9894
  137MOL    H7922111   0.876   1.384   6.994 -0.9854 -1.7432  0.2057
  137MOL    H8022112   0.820   1.161   6.927 -0.4695  2.4592  0.4897
  137MOL    H8122113   0.898   1.150   7.078 -0.7574  0.3298 -0.3752
  137MOL    C8222114   1.014   0.919   6.957  0.5077  0.4707 -0.2532
  137MOL    C8322115   1.094   0.822   6.866 -0.2640  0.1874 -0.1004
  137MOL    C8422116   1.071   0.675   6.898 -0.8597 -0.1492 -0.6438
  137MOL    O8522117   0.965   0.639   6.949  0.1410 -0.1295  0.0148
  137MOL    H8622118   0.911   0.886   6.940  1.1965 -0.2872 -3.1589
  137MOL    H8722119   1.027   0.912   7.065 -0.1173  1.3971 -0.1068
  137MOL    H8822120   1.200   0.844   6.878  0.2389 -1.6877 -1.0395
  137MOL    H8922121   1.073   0.827   6.759 -2.2605 -0.4601  0.2348
  137MOL    C9022122   1.183   0.575   6.861  1.0360  0.7151 -0.4706
  137MOL    C9122123   1.134   0.443   6.797 -0.5725 -0.0058  0.1875
  137MOL    C9222124   1.144   0.449   6.649  0.2760  0.1991  0.4607
  137MOL    O9322125   1.241   0.403   6.583 -0.7107  0.0282  0.0207
  137MOL    H9422126   1.249   0.562   6.947  3.3546  1.3685 -2.1033
  137MOL    H9522127   1.237   0.634   6.788  0.4269  0.8881 -0.7836
  137MOL    H9622128   1.027   0.433   6.813 -0.7589  1.9782  0.3176
  137MOL    H9722129   1.187   0.354   6.828  1.0505  0.8745  0.0220
  137MOL    C9822130   1.028   0.515   6.570 -0.6741  0.8830 -0.1920
  137MOL    C9922131   1.039   0.511   6.419 -0.0038  0.0329  0.0166
  137MOL   C10022132   0.910   0.481   6.346  0.4570 -0.6997 -0.2115
  137MOL   O10122133   0.800   0.490   6.402  0.5531  0.1771 -0.1151
  137MOL   H10222134   1.014   0.616   6.609 -2.0661 -0.0468  1.7860
  137MOL   H10322135   0.936   0.466   6.600  0.5625 -1.2569  0.2033
  137MOL   H10422136   1.114   0.438   6.389 -0.6699 -0.5868 -0.1590
  137MOL   H10522137   1.070   0.612   6.390  1.3621 -0.3303  0.1502
  137MOL   C10622138   0.917   0.447   6.203 -0.1139 -0.5475 -0.6289
  137MOL   C10722139   0.975   0.306   6.178 -0.3289 -0.1437  0.0277
  137MOL   C10822140   1.079   0.310   6.066 -0.5554  0.1533  0.2318
  137MOL   O10922141   1.157   0.400   6.048 -0.1863 -0.3427 -0.6718
  137MOL   H11022142   0.969   0.535   6.164  1.1524 -0.6409  0.8271
  137MOL   H11122143   0.815   0.456   6.165  0.3132  0.9101 -1.4893
  137MOL   H11222144   0.890   0.239   6.166 -1.0863  0.2118  3.1785
  137MOL   H11322145   1.012   0.279   6.277  1.0887 -0.8833 -0.6820
  137MOL   C11422146   1.084   0.192   5.965  0.4391  0.2299  0.1850
  137MOL   C11522147   1.122   0.243   5.826  0.0076  0.8383 -0.7158
  137MOL   C11622148   1.006   0.299   5.755  0.2710 -0.1506  0.4653
  137MOL   O11722149   0.982   0.420   5.753 -0.2542  0.1780 -0.1802
  137MOL   H11822150   0.983   0.152   5.962  0.8088 -1.0054  2.5362
  137MOL   H11922151   1.147   0.110   6.000 -1.7018 -0.5393  2.4527
  137MOL   H12022152   1.156   0.151   5.777 -0.5018 -0.0549  0.5831
  137MOL   H12122153   1.213   0.302   5.816 -0.2108  1.6747  1.8894
  137MOL   C12222154   0.928   0.200   5.672  0.1640  0.0122  0.1114
  137MOL   C12322155   0.886   0.262   5.536 -0.0417 -0.2888 -0.0273
  137MOL   C12422156   0.830   0.149   5.444 -0.2774 -0.3260  0.1463
  137MOL   O12522157   0.777   0.051   5.503 -0.4462  0.4756  0.9176
  137MOL   H12622158   0.834   0.176   5.721 -0.9159  0.2405 -1.8390
  137MOL   H12722159   0.994   0.113   5.660  2.0511  1.6786 -2.0034
  137MOL   H12822160   0.974   0.309   5.492  1.9416 -2.4154  1.5830
  137MOL   H12922161   0.808   0.337   5.548  1.3695  1.3232 -0.8120
  137MOL   C13022162   0.842   0.156   5.295  0.0182  0.0492 -0.1200
  137MOL   C13122163   0.744   0.063   5.214  0.1420 -0.5172 -0.8584
  137MOL   C13222164   0.714   0.116   5.077  0.0261 -0.6848  0.5561
  137MOL   O13322165   0.598   0.145   5.034 -0.1650  0.0367 -0.1848
  137MOL   H13422166   0.947   0.127   5.286 -0.0039 -0.6658  1.8067
  137MOL   H13522167   0.813   0.257   5.266 -2.3701 -0.3225  0.8529
  137MOL   H13622168   0.646   0.061   5.263  0.3435  0.8369 -0.3763
  137MOL   H13722169   0.774   7.818   5.203 -1.1478 -0.8936 -0.9767
  137MOL   C13822170   0.830   0.137   4.977 -0.3712  0.3517 -0.2174
  137MOL   C13922171   0.783   0.182   4.839 -0.1633  0.1136 -0.5943
  137MOL   C14022172   0.803   0.071   4.735 -0.2066 -0.4749  0.4387
  137MOL   O14122173   0.895   7.848   4.739 -0.1272  0.3569 -0.3817
  137MOL   H14222174   0.889   0.045   4.976  0.4190  0.7174  3.3137
  137MOL   H14322175   0.894   0.209   5.028  1.9108 -2.5151  1.1542
  137MOL   H14422176   0.835   0.272   4.804  1.6320 -0.0797  1.5106
  137MOL   H14522177   0.680   0.217   4.837 -0.4328 -0.7542 -2.8260
  137MOL   C14622178   0.707   0.074   4.614  0.6198 -0.1396  0.4530
  137MOL   C14722179   0.711   7.796   4.534  0.1522 -0.1730  0.4321
  137MOL   C14822180   0.836   7.775   4.448 -0.6268 -0.4197  0.5170
  137MOL   O14922181   0.904   0.012   4.419 -0.1787  0.5926 -0.3433
  137MOL   H15022182   0.746   0.150   4.547  2.4606 -2.3028 -1.0042
  137MOL   H15122183   0.609   0.115   4.638  0.4320 -1.0932  1.3328
  137MOL   H15222184   0.616   7.789   4.481  0.2448  0.6724  0.1395
  137MOL   H15322185   0.696   7.705   4.592  3.0425 -1.3240 -0.5744
  137MOL   C15422186   0.877   7.631   4.410 -0.1820  0.2743  0.9704
  137MOL   C15522187   0.896   7.630   4.262  0.1518 -0.5159  0.4537
  137MOL   C15622188   1.014   7.532   4.227  0.1351 -0.7785 -0.7765
  137MOL   O15722189   0.993   7.412   4.229 -0.1408  0.7724 -0.2800
  137MOL   H15822190   0.804   7.561   4.451 -1.6767  1.4587  0.3587
  137MOL   H15922191   0.973   7.598   4.449  1.0763  0.3291 -1.9537
  137MOL   H16022192   0.928   7.727   4.227 -1.2641  0.3415  1.4683
  137MOL   H16122193   0.805   7.601   4.209 -0.2504  1.8554 -0.1815
  137MOL   H16222194   1.109   7.582   4.208  0.3867 -0.3219  1.5890
  138MOL     C122195   0.118   4.141   0.544 -0.3891  0.4631 -0.1571
  138MOL     C222196   0.074   4.288   0.587 -0.5984 -0.5411  0.4473
  138MOL     C322197   7.797   4.301   0.641 -0.1228  0.6679 -0.0477
  138MOL     O422198   7.718   4.211   0.620  0.0501  0.0072 -0.3097
  138MOL     H522199   0.069   4.107   0.453  1.1245 -1.0425 -0.4239
  138MOL     H622200   0.221   4.136   0.509 -0.4929  0.6007 -0.4778
  138MOL     H722201   0.057   4.341   0.493  1.8241  0.5317  0.5686
  138MOL     H822202   0.150   4.334   0.649  1.9509 -2.0413 -1.4342
  138MOL     H922203   0.102   4.072   0.627 -0.2194 -0.2900 -0.7520
  138MOL    C1022204   7.756   4.430   0.715 -0.6026  0.5533  0.1923
  138MOL    C1122205   7.615   4.412   0.778 -0.2081 -0.4086 -0.1780
  138MOL    C1222206   7.563   4.523   0.878 -0.2430 -0.2079 -0.0838
  138MOL    O1322207   7.641   4.601   0.933 -0.0409 -0.3119 -0.0069
  138MOL    H1422208   7.756   4.515   0.647  0.7298 -0.1472 -0.6958
  138MOL    H1522209   7.829   4.450   0.794  0.1773  1.0062 -0.6418
  138MOL    H1622210   7.606   4.321   0.837  0.7211 -0.4583 -0.1090
  138MOL    H1722211   7.536   4.400   0.704 -0.0257 -0.1297 -0.4171
  138MOL    C1822212   7.414   4.550   0.880  0.1319 -1.1000  0.0340
  138MOL    C1922213   7.351   4.493   1.002  0.7719  0.2980 -0.3112
  138MOL    C2022214   7.253   4.581   1.070 -0.0819  0.3404  0.0539
  138MOL    O2122215   7.271   4.702   1.088  0.5339 -0.4780 -0.4267
  138MOL    H2222216   7.365   4.507   0.793 -2.0689  1.8680 -0.2736
  138MOL    H2322217   7.394   4.657   0.877  0.0354 -1.1257 -0.2769
  138MOL    H2422218   7.419   4.480   1.086 -1.0184  0.1977  1.1460
  138MOL    H2522219   7.307   4.395   0.986 -1.0048  1.1889 -1.0334
  138MOL    C2622220   7.132   4.507   1.122 -0.3662  0.9999 -0.5396
  138MOL    C2722221   7.007   4.605   1.127  0.0400  0.6411 -0.1233
  138MOL    C2822222   6.871   4.537   1.083 -0.1196 -0.1508 -0.0127
  138MOL    O2922223   6.862   4.415   1.063  0.1078 -0.0141 -0.1161
  138MOL    H3022224   7.157   4.453   1.213  1.7341  0.5086 -1.3718
  138MOL    H3122225   7.112   4.431   1.046 -0.9826  0.2034  0.4209
  138MOL    H3222226   7.024   4.696   1.069  0.6748 -1.0649 -2.7186
  138MOL    H3322227   6.995   4.632   1.231 -0.9714  0.2200 -0.1214
  138MOL    C3422228   6.755   4.632   1.046 -0.4157  0.3233  0.2114
  138MOL    C3522229   6.636   4.558   0.981  0.6008  0.4378 -0.6162
  138MOL    C3622230   6.595   4.613   0.844 -0.0662  0.5608 -0.0334
  138MOL    O3722231   6.671   4.677   0.770  0.1052  0.5535  0.5030
  138MOL    H3822232   6.788   4.706   0.973  1.1900 -2.8253 -2.3444
  138MOL    H3922233   6.724   4.688   1.135 -0.3665  0.8934 -0.1272
  138MOL    H4022234   6.552   4.562   1.050  2.1010 -0.3281  1.2937
  138MOL    H4122235   6.653   4.451   0.965 -0.4279  0.0081  1.0031
  138MOL    C4222236   6.460   4.586   0.796 -0.1675  0.2527 -0.9162
  138MOL    C4322237   6.451   4.529   0.653  0.3242 -0.0965  0.5257
  138MOL    C4422238   6.314   4.486   0.612 -0.1316 -0.8530  0.6142
  138MOL    O4522239   6.223   4.474   0.692  0.0324  0.7189 -0.4397
  138MOL    H4622240   6.405   4.680   0.794 -1.4775 -0.5147 -1.1984
  138MOL    H4722241   6.413   4.529   0.875  0.9105 -1.3288 -1.3961
  138MOL    H4822242   6.516   4.445   0.633  1.9215  1.2385 -0.0009
  138MOL    H4922243   6.476   4.620   0.598 -0.4831  1.3543  2.4656
  138MOL    C5022244   6.298   4.452   0.465 -0.4746 -0.1394  0.7178
  138MOL    C5122245   6.194   4.346   0.435 -0.2275  0.0758  0.1433
  138MOL    C5222246   6.251   4.201   0.465  0.2593 -0.3915  0.4550
  138MOL    O5322247   6.361   4.186   0.512 -0.2818 -0.7418 -0.3961
  138MOL    H5422248   6.398   4.412   0.450 -0.7679 -1.9365  3.3396
  138MOL    H5522249   6.290   4.546   0.410 -1.6090 -1.4303 -1.3991
  138MOL    H5622250   6.160   4.346   0.332 -0.6643 -1.6123  0.2711
  138MOL    H5722251   6.107   4.361   0.500  1.5339  1.4698  2.2852
  138MOL    C5822252   6.165   4.084   0.428 -0.2890 -0.3058 -0.3561
  138MOL    C5922253   6.252   3.955   0.407 -0.2929  0.0612  0.1508
  138MOL    C6022254   6.334   3.955   0.284 -0.3267  0.1708  0.8186
  138MOL    O6122255   6.312   4.032   0.188  0.1085 -0.0868  0.1614
  138MOL    H6222256   6.107   4.113   0.341  1.4639  1.1944 -1.0598
  138MOL    H6322257   6.098   4.061   0.511 -0.5375 -0.2659 -0.5441
  138MOL    H6422258   6.185   3.872   0.385 -1.2453  0.7254  0.4487
  138MOL    H6522259   6.316   3.930   0.491  2.1735  1.2710 -1.3396
  138MOL    C6622260   6.450   3.852   0.276 -0.2130  0.0325 -0.2482
  138MOL    C6722261   6.488   3.807   0.132 -0.6606 -0.4242  0.5479
  138MOL    C6822262   6.607   3.887   0.080  0.4214  0.1031  1.1541
  138MOL    O6922263   6.592   3.990   0.019  0.0857 -0.7563 -0.3241
  138MOL    H7022264   6.412   3.770   0.338  1.2461  0.3670  1.1090
  138MOL    H7122265   6.540   3.877   0.331 -0.6468 -1.8544  1.3812
  138MOL    H7222266   6.404   3.834   0.067 -0.2447  0.9290  0.5465
  138MOL    H7322267   6.512   3.701   0.125 -1.2843 -0.6749  2.1200
  138MOL    C7422268   6.737   3.826   0.099  0.3148  0.4168  0.4888
  138MOL    C7522269   6.846   3.889   0.020  0.4852  0.7110  0.4701
  138MOL    C7622270   6.971   3.816   0.050  0.1925 -0.4809  0.2555
  138MOL    O7722271   6.981   3.704   0.087  0.5097  0.4244  0.4119
  138MOL    H7822272   6.724   3.720   0.075  0.3900  0.7347 -1.0139
  138MOL    H7922273   6.758   3.821   0.206 -0.0353  1.2744  0.6025
  138MOL    H8022274   6.855   3.994   0.048  0.1896  1.1172 -0.9145
  138MOL    H8122275   6.834   3.891   7.771 -0.9013  1.9591  0.6434
  138MOL    C8222276   7.100   3.890   0.030 -0.3700 -0.8820  0.6202
  138MOL    C8322277   7.119   3.929   7.745 -0.6374  0.2576 -0.2787
  138MOL    C8422278   7.222   4.039   7.729  0.0237  1.0379 -0.2715
  138MOL    O8522279   7.231   4.133   7.810 -0.7003 -0.8255 -0.0856
  138MOL    H8622280   7.185   3.831   0.063 -0.2259 -0.4077  1.1141
  138MOL    H8722281   7.098   3.983   0.087 -0.4915  0.4540 -1.5027
  138MOL    H8822282   7.027   3.962   7.696 -0.5999  3.2164  1.5180
  138MOL    H8922283   7.154   3.848   7.681 -1.8156 -0.6763  0.2406
  138MOL    C9022284   7.326   4.004   7.629  0.2562 -0.5080  0.8633
  138MOL    C9122285   7.414   4.127   7.590 -0.1554  0.2738 -0.8197
  138MOL    C9222286   7.560   4.126   7.647 -0.6961 -0.8447 -0.6477
  138MOL    O9322287   7.612   4.031   7.709 -0.0715  0.3827  0.0411
  138MOL    H9422288   7.289   3.954   7.539  0.4381  1.1787 -0.1806
  138MOL    H9522289   7.386   3.920   7.663  2.6462  0.3113 -1.1718
  138MOL    H9622290   7.362   4.222   7.596 -0.9304 -0.2561  1.3222
  138MOL    H9722291   7.428   4.130   7.482  0.3320  2.5860 -0.7102
  138MOL    C9822292   7.635   4.254   7.625  0.6282 -0.0435  0.5126
  138MOL    C9922293   7.629   4.349   7.754 -0.2872  0.2544  0.0741
  138MOL   C10022294   7.741   4.452   7.760  0.1659 -0.2474  0.5061
  138MOL   O10122295   7.836   4.440   7.686  0.3744 -0.1473 -0.1129
  138MOL   H10222296   7.588   4.314   7.547  0.9750 -0.1663  0.2101
  138MOL   H10322297   7.732   4.214   7.594  0.2024  0.7394 -1.9588
  138MOL   H10422298   7.641   4.290   7.845 -0.7405 -0.2917 -0.2161
  138MOL   H10522299   7.535   4.402   7.770 -0.7666 -0.6886  0.4499
  138MOL   C10622300   7.728   4.566   0.001  0.1441 -0.1544 -0.2071
  138MOL   C10722301   7.837   4.677   7.851  0.3563  0.5905  0.4706
  138MOL   C10822302   7.788   4.821   0.019  0.0345 -0.2548  0.3548
  138MOL   O10922303   7.671   4.855   0.039 -0.8972 -0.3562 -0.0780
  138MOL   H11022304   7.713   4.532   0.103  1.7166 -0.0720  0.0739
  138MOL   H11122305   7.634   4.614   7.832  1.2783  0.5496 -2.9489
  138MOL   H11222306   0.027   4.675   7.754  1.3382  1.8848  0.9200
  138MOL   H11322307   0.061   4.650   0.057 -0.1925 -0.0181  0.9216
  138MOL   C11422308   0.031   4.921   7.858 -0.0220  0.0506 -0.6880
  138MOL   C11522309   0.002   5.051   0.075 -0.0585 -0.1854 -0.8256
  138MOL   C11622310   0.131   5.135   0.098 -0.5197 -0.1250  0.2996
  138MOL   O11722311   0.221   5.145   0.015  0.7698  0.3165 -0.5609
  138MOL   H11822312   0.038   4.946   7.752  1.7393 -2.7298 -1.3068
  138MOL   H11922313   0.121   4.873   0.039 -1.0998 -1.1986  0.2800
  138MOL   H12022314   7.817   5.034   0.173 -0.2396  3.1301 -0.2758
  138MOL   H12122315   7.789   5.115   0.024 -1.9611  0.2726  2.3325
  138MOL   C12222316   0.139   5.223   0.223  0.4773  0.1011 -0.3223
  138MOL   C12322317   0.256   5.316   0.218 -0.0459  0.0714 -0.2183
  138MOL   C12422318   0.231   5.440   0.305  0.7937 -0.2157  0.2693
  138MOL   O12522319   0.127   5.503   0.278  0.0026  0.2123  0.0481
  138MOL   H12622320   0.155   5.161   0.311 -0.1864 -0.0365 -0.3004
  138MOL   H12722321   0.045   5.278   0.223 -1.1017 -2.5421 -0.2911
  138MOL   H12822322   0.273   5.357   0.118 -0.4389  1.0610  0.1200
  138MOL   H12922323   0.340   5.263   0.264  0.3968  1.5707  0.7192
  138MOL   C13022324   0.330   5.474   0.407  0.1529 -0.3572  0.1775
  138MOL   C13122325   0.276   5.519   0.545  0.2623 -0.2320  0.6406
  138MOL   C13222326   0.320   5.663   0.588  0.0763  0.2873 -0.4541
  138MOL   O13322327   0.441   5.690   0.573  0.0247  0.1093  0.0830
  138MOL   H13422328   0.379   5.561   0.362 -0.3134  1.8430  3.7282
  138MOL   H13522329   0.405   5.398   0.425 -0.4818 -0.7131  1.3539
  138MOL   H13622330   0.306   5.441   0.616  0.8475  0.0815  0.7394
  138MOL   H13722331   0.167   5.526   0.536  0.3240  0.9680  0.7790
  138MOL   C13822332   0.214   5.764   0.633  0.2259 -0.3662  0.2915
  138MOL   C13922333   0.273   5.906   0.637 -0.6285 -0.0812  0.0352
  138MOL   C14022334   0.345   5.924   0.773 -0.7620  0.3229  0.9610
  138MOL   O14122335   0.339   5.830   0.857  0.0556 -0.1176  0.3432
  138MOL   H14222336   0.184   5.729   0.732  0.5940  2.6350  1.5070
  138MOL   H14322337   0.128   5.765   0.566  0.6157  0.7940 -0.1985
  138MOL   H14422338   0.193   5.978   0.625  1.5176  2.2383 -1.0316
  138MOL   H14522339   0.334   5.923   0.548  0.3214 -0.9069  0.5197
  138MOL   C14622340   0.449   6.034   0.773 -1.5339 -0.4566  0.5337
  138MOL   C14722341   0.552   6.030   0.884 -0.1185 -0.4842 -0.2684
  138MOL   C14822342   0.672   6.130   0.876  0.1098 -0.7349 -0.2502
  138MOL   O14922343   0.706   6.189   0.773 -0.1209  0.7859 -0.2716
  138MOL   H15022344   0.391   6.125   0.788  3.1074  2.6737  0.5142
  138MOL   H15122345   0.492   6.020   0.673  0.9835 -0.4181  1.5805
  138MOL   H15222346   0.591   5.928   0.894 -0.5465 -0.5720  0.5756
  138MOL   H15322347   0.504   6.053   0.979 -1.0892  0.3579 -0.9667
  138MOL   C15422348   0.741   6.170   1.003  0.0846 -0.0122  0.0830
  138MOL   C15522349   0.771   6.311   1.026  0.1074  0.2031  0.3116
  138MOL   C15622350   0.778   6.353   1.166 -0.9121  0.1517  0.0114
  138MOL   O15722351   0.831   6.288   1.254 -0.1907 -0.1402  0.3872
  138MOL   H15822352   0.830   6.107   0.996 -0.7225 -1.1801  0.0624
  138MOL   H15922353   0.671   6.146   1.083  2.1888 -0.1739  1.9180
  138MOL   H16022354   0.689   6.368   0.983  0.3285 -0.6802 -1.3085
  138MOL   H16122355   0.861   6.331   0.969 -1.9718  1.6481 -2.6024
  138MOL   H16222356   0.726   6.445   1.192 -1.7986 -0.6517  1.1520
  139MOL     C122357   4.248   5.098   0.064 -0.4909  0.2987  0.6034
  139MOL     C222358   4.338   5.183   0.148 -0.7910  0.1936  0.2419
  139MOL     C322359   4.425   5.278   0.071 -0.4547 -0.9529 -0.6889
  139MOL     O422360   4.394   5.328   7.818  0.1171 -0.6658  0.4653
  139MOL     H522361   4.189   5.157   7.852 -2.2706 -0.4794  1.4069
  139MOL     H622362   4.285   5.006   0.018 -0.2681  0.6651  0.0508
  139MOL     H722363   4.396   5.114   0.210  0.3259  0.1011 -0.8763
  139MOL     H822364   4.284   5.255   0.208 -0.0555  0.4570  0.5881
  139MOL     H922365   4.176   5.053   0.133 -0.2628 -4.5142 -2.0343
  139MOL    C1022366   4.552   5.327   0.139 -0.2105 -0.1646 -1.1847
  139MOL    C1122367   4.622   5.449   0.074 -0.0590  0.2449  0.5535
  139MOL    C1222368   4.669   5.541   0.198  0.4182 -0.6238  0.4452
  139MOL    O1322369   4.777   5.522   0.252 -0.1076  0.0377  0.2993
  139MOL    H1422370   4.615   5.238   0.136 -1.0330 -0.7786 -0.2828
  139MOL    H1522371   4.527   5.336   0.244  0.4912  2.7943 -1.2157
  139MOL    H1622372   4.553   5.509   0.016 -1.5125 -1.2389  0.7234
  139MOL    H1722373   4.715   5.410   0.030 -0.2090 -0.9506  1.2579
  139MOL    C1822374   4.584   5.663   0.224  0.3130 -1.2998 -0.1953
  139MOL    C1922375   4.646   5.762   0.328 -0.3310  0.2576  0.0248
  139MOL    C2022376   4.617   5.911   0.303  0.1812  0.4830 -0.3307
  139MOL    O2122377   4.524   5.943   0.234  0.0382  0.0953 -0.2913
  139MOL    H2222378   4.486   5.632   0.258 -0.8383  2.2671 -0.1151
  139MOL    H2322379   4.571   5.728   0.137  0.6271 -0.3288  0.4806
  139MOL    H2422380   4.752   5.736   0.340 -0.6059 -1.3672 -0.9608
  139MOL    H2522381   4.624   5.740   0.433 -0.3937 -0.5039 -0.1457
  139MOL    C2622382   4.716   6.004   0.376  0.2020  0.2806 -0.7491
  139MOL    C2722383   4.660   6.147   0.407 -0.1672  0.3264  0.4092
  139MOL    C2822384   4.599   6.149   0.553  0.3774 -0.4167  0.6834
  139MOL    O2922385   4.532   6.058   0.599  0.2089 -0.3705 -0.2588
  139MOL    H3022386   4.806   6.014   0.316 -0.6384  2.7314 -1.6977
  139MOL    H3122387   4.750   5.961   0.470  1.1694  1.0271 -0.7520
  139MOL    H3222388   4.597   6.191   0.329  1.4335 -0.9930 -1.7059
  139MOL    H3322389   4.746   6.214   0.399  1.2910 -1.6210 -0.5210
  139MOL    C3422390   4.637   6.275   0.625  0.2177  0.0589  0.0952
  139MOL    C3522391   4.556   6.290   0.758 -0.7663 -0.1079  0.0405
  139MOL    C3622392   4.427   6.375   0.740  0.2923  0.3072 -0.5598
  139MOL    O3722393   4.360   6.364   0.638  0.0492 -0.7489  0.3541
  139MOL    H3822394   4.621   6.367   0.569 -0.2977  1.1215  1.9631
  139MOL    H3922395   4.734   6.266   0.674  1.3769  2.1383 -1.7104
  139MOL    H4022396   4.606   6.346   0.837  0.4694  0.8300 -1.3873
  139MOL    H4122397   4.519   6.204   0.814 -1.9661  1.5419  1.8345
  139MOL    C4222398   4.404   6.474   0.858 -0.4297  0.8503 -0.6777
  139MOL    C4322399   4.256   6.524   0.854  0.3372 -0.6362 -0.6018
  139MOL    C4422400   4.233   6.658   0.776  0.0446  0.0493 -0.4830
  139MOL    O4522401   4.321   6.697   0.694 -0.1361 -0.4817 -0.4309
  139MOL    H4622402   4.473   6.558   0.843 -1.0240  1.1378 -1.9247
  139MOL    H4722403   4.421   6.430   0.956 -1.9053 -0.5519 -1.0405
  139MOL    H4822404   4.214   6.531   0.954  2.7572  0.0127  0.3960
  139MOL    H4922405   4.197   6.447   0.804  1.0638 -0.9986 -0.8978
  139MOL    C5022406   4.111   6.748   0.821 -0.2055  0.0865  0.1473
  139MOL    C5122407   4.071   6.834   0.706 -0.2672 -0.6599  0.0501
  139MOL    C5222408   4.092   6.983   0.732  0.2611 -0.3581  0.6847
  139MOL    O5322409   4.061   7.026   0.840 -0.5166 -0.5368  0.1253
  139MOL    H5422410   4.137   6.812   0.906 -2.3794 -0.7355  1.4780
  139MOL    H5522411   4.036   6.678   0.858  0.1345  0.2586  1.1990
  139MOL    H5622412   3.968   6.812   0.678 -0.0794 -1.8129  0.2301
  139MOL    H5722413   4.118   6.809   0.611  0.7300 -0.3596  0.4650
  139MOL    C5822414   4.128   7.079   0.609 -0.1644  0.2035 -0.8981
  139MOL    C5922415   4.135   7.227   0.648  0.1293 -0.4743 -0.2722
  139MOL    C6022416   4.071   7.324   0.544  0.5500 -0.8349  0.3201
  139MOL    O6122417   4.113   7.321   0.429  0.1023  0.6205 -0.0179
  139MOL    H6222418   4.039   7.065   0.547 -0.8223  1.4425 -0.2521
  139MOL    H6322419   4.211   7.036   0.554  0.1788 -0.2215 -0.0656
  139MOL    H6422420   4.241   7.254   0.645 -0.1748  1.3748  3.3778
  139MOL    H6522421   4.099   7.243   0.749  1.4599  0.4791  0.0705
  139MOL    C6622422   3.951   7.409   0.585  0.9417  0.9165  0.5963
  139MOL    C6722423   3.908   7.515   0.474  0.2704  0.5896 -0.2697
  139MOL    C6822424   3.783   7.485   0.403 -0.4459 -0.3884 -0.4312
  139MOL    O6922425   3.729   7.376   0.424  0.0724 -0.2429 -0.3594
  139MOL    H7022426   3.973   7.466   0.676 -0.5273  2.1557  0.1908
  139MOL    H7122427   3.868   7.347   0.618  0.8950 -0.7916 -2.5379
  139MOL    H7222428   3.993   7.527   0.408  1.1335 -2.1617  0.2410
  139MOL    H7322429   3.885   7.605   0.530 -1.7912  0.0548 -0.2096
  139MOL    C7422430   3.725   7.587   0.305 -0.4738 -0.3731 -0.2544
  139MOL    C7522431   3.674   7.718   0.366  0.4533  1.0220  0.2744
  139MOL    C7622432   3.768   7.837   0.348  0.2009  0.1632  0.1763
  139MOL    O7722433   3.851   0.015   0.435 -0.1058  0.4736  0.2820
  139MOL    H7822434   3.649   7.525   0.257 -0.7394  0.4609 -0.9359
  139MOL    H7922435   3.797   7.602   0.226 -1.0050 -0.1954 -0.7091
  139MOL    H8022436   3.647   7.711   0.471 -0.4288  2.2190  0.1309
  139MOL    H8122437   3.584   7.748   0.312  0.3437  3.0281  1.5232
  139MOL    C8222438   3.752   0.064   0.217  0.1534 -0.4306 -0.4654
  139MOL    C8322439   3.832   0.201   0.214 -0.2017  0.2392 -0.6118
  139MOL    C8422440   3.764   0.305   0.126  0.6767  0.4411  0.5210
  139MOL    O8522441   3.669   0.273   0.057  0.7266 -0.5658 -0.2340
  139MOL    H8622442   3.648   0.080   0.190 -0.4423 -1.2321  1.2885
  139MOL    H8722443   3.809   0.014   0.139  1.1887 -1.2678  0.7859
  139MOL    H8822444   3.930   0.190   0.168  0.6325  0.4859  1.0962
  139MOL    H8922445   3.839   0.251   0.310 -0.6032  0.1463 -0.5309
  139MOL    C9022446   3.819   0.448   0.113  0.3607  0.5545  1.2151
  139MOL    C9122447   3.711   0.554   0.135 -0.2067  0.0544 -0.3968
  139MOL    C9222448   3.669   0.634   0.010 -0.0831  1.1730  0.2152
  139MOL    O9322449   3.688   0.589   7.761 -0.2053  0.4802 -0.5710
  139MOL    H9422450   3.862   0.454   0.013 -3.1021  0.0496 -0.3759
  139MOL    H9522451   3.898   0.471   0.185  0.6241  0.1393  1.0679
  139MOL    H9622452   3.748   0.619   0.214  0.3547 -1.0185  0.2400
  139MOL    H9722453   3.620   0.505   0.169 -1.1670  0.0627 -2.8228
  139MOL    C9822454   3.621   0.775   0.035  0.0846 -0.0656 -0.5193
  139MOL    C9922455   3.676   0.866   7.787  0.0432 -1.2857 -0.5240
  139MOL   C10022456   3.824   0.898   7.811 -0.8150 -0.0482  0.3332
  139MOL   O10122457   3.897   0.838   0.029 -0.4532 -0.1322 -0.2750
  139MOL   H10222458   3.645   0.815   0.133 -1.3317 -0.2024 -0.1118
  139MOL   H10322459   3.513   0.784   0.028  0.2861  1.0144 -2.5517
  139MOL   H10422460   3.620   0.959   7.782 -1.5607 -2.0482  2.0984
  139MOL   H10522461   3.672   0.821   7.687 -0.3097  0.0232 -1.1043
  139MOL   C10622462   3.879   1.027   7.741  0.5715 -0.2691  0.3486
  139MOL   C10722463   3.914   1.005   7.595 -0.1353 -0.1045 -0.5104
  139MOL   C10822464   3.857   1.108   7.502  0.5516  0.5146  0.1226
  139MOL   O10922465   3.873   1.230   7.513 -0.4716 -0.3463  0.1702
  139MOL   H11022466   3.969   1.056   7.797  0.2430 -0.0588  0.7708
  139MOL   H11122467   3.797   1.098   7.750  0.4698  0.0403 -2.4878
  139MOL   H11222468   3.865   0.911   7.567 -0.0613 -0.1078 -0.6271
  139MOL   H11322469   4.021   0.989   7.592 -0.0889 -0.8505  2.9903
  139MOL   C11422470   3.753   1.059   7.398 -0.3408  0.3605  0.2758
  139MOL   C11522471   3.635   1.154   7.360  0.8616 -0.9299  0.2997
  139MOL   C11622472   3.526   1.184   7.461  0.6003 -0.9430 -0.2439
  139MOL   O11722473   3.494   1.096   7.541 -0.1983 -0.1235 -0.6306
  139MOL   H11822474   3.708   0.965   7.429  0.0603  0.0670 -0.0166
  139MOL   H11922475   3.800   1.041   7.302  2.0205  0.9325  1.2795
  139MOL   H12022476   3.591   1.109   7.271  0.4458  1.7121 -0.8771
  139MOL   H12122477   3.669   1.255   7.337 -1.4555 -0.3724 -0.8086
  139MOL   C12222478   3.454   1.314   7.464 -0.3885 -0.2109  0.5615
  139MOL   C12322479   3.313   1.307   7.526 -0.0692  0.2887  0.1588
  139MOL   C12422480   3.197   1.297   7.429 -0.2531 -0.3407  0.7444
  139MOL   O12522481   3.205   1.313   7.313  0.0631  0.1737 -0.1402
  139MOL   H12622482   3.445   1.354   7.363  0.0054  2.9984  1.7195
  139MOL   H12722483   3.524   1.375   7.522 -0.7209 -0.6509  1.4337
  139MOL   H12822484   3.308   1.412   7.557 -1.4904  0.5560 -0.8986
  139MOL   H12922485   3.301   1.238   7.609 -1.1530  2.3181  1.7287
  139MOL   C13022486   3.055   1.295   7.484 -0.3402  0.0319 -0.5316
  139MOL   C13122487   2.965   1.415   7.438  0.0573 -0.0798 -0.5102
  139MOL   C13222488   2.985   1.538   7.529 -0.2253 -0.0958  0.9255
  139MOL   O13322489   3.070   1.537   7.618  0.4443 -0.4370  0.4828
  139MOL   H13422490   3.062   1.288   7.593 -1.9540 -1.3834 -0.5003
  139MOL   H13522491   3.009   1.202   7.453 -0.7534  0.6213 -1.7122
  139MOL   H13622492   2.860   1.389   7.426  0.3041 -0.3420 -2.2008
  139MOL   H13722493   2.993   1.439   7.336  1.9194  0.3835  0.0854
  139MOL   C13822494   2.912   1.665   7.498 -0.2295 -0.1593  0.1411
  139MOL   C13922495   2.979   1.793   7.561 -0.5350  0.1734  0.3450
  139MOL   C14022496   2.923   1.830   7.698  0.3947  0.3947 -0.2929
  139MOL   O14122497   2.822   1.766   7.737 -0.5558  0.4017 -0.4910
  139MOL   H14222498   2.810   1.651   7.535  0.2559  1.0452  2.0076
  139MOL   H14322499   2.904   1.673   7.389  1.0472 -1.1843 -0.0358
  139MOL   H14422500   2.964   1.883   7.502  0.6278 -0.1364 -0.4254
  139MOL   H14522501   3.086   1.775   7.566 -0.5267  0.1123 -0.0562
  139MOL   C14622502   2.978   1.933   7.787 -1.0940 -0.2774 -0.9036
  139MOL   C14722503   3.017   2.062   7.709 -1.0042  1.1195 -0.4326
  139MOL   C14822504   3.165   2.092   7.735  0.3346 -0.3059  0.1241
  139MOL   O14922505   3.240   2.093   7.637  0.3909 -0.0863  0.4272
  139MOL   H15022506   3.054   1.905   0.001 -2.0827 -0.4723  0.0609
  139MOL   H15122507   2.885   1.942   7.844  0.4547 -0.8666  1.7948
  139MOL   H15222508   2.944   2.140   7.733 -1.8279  0.0082  0.7766
  139MOL   H15322509   3.008   2.033   7.604 -2.7348 -1.4983  0.3945
  139MOL   C15422510   3.202   2.139   0.026  0.1518  0.3002 -0.2172
  139MOL   C15522511   3.346   2.201   0.036 -0.8374 -0.4682 -0.7477
  139MOL   C15622512   3.354   2.350   0.011  0.3540 -0.3610  0.4503
  139MOL   O15722513   3.259   2.420   7.825  0.8675  0.1493  0.0171
  139MOL   H15822514   3.187   2.057   0.097  0.6872 -0.8375 -1.3982
  139MOL   H15922515   3.142   2.226   0.053 -0.9246 -0.4284 -0.2580
  139MOL   H16022516   3.419   2.147   7.833 -0.9932 -1.2456 -0.2489
  139MOL   H16122517   3.385   2.191   0.137 -0.0520 -0.4700 -1.0407
  139MOL   H16222518   3.451   2.387   0.046  0.2692 -1.8122  2.3216
  140MOL     C122519   2.557   3.722   6.637 -0.4416  0.2178 -0.0947
  140MOL     C222520   2.427   3.784   6.706  0.1318  0.3865 -0.3565
  140MOL     C322521   2.383   3.719   6.841 -0.1911 -0.3817 -0.0368
  140MOL     O422522   2.441   3.620   6.886  0.5126 -0.0390 -0.6381
  140MOL     H522523   2.562   3.614   6.653 -2.7096  0.1112 -0.0460
  140MOL     H622524   2.556   3.753   6.532 -1.9888  1.9881  0.4229
  140MOL     H722525   2.347   3.792   6.632 -1.1945  1.0188  1.1382
  140MOL     H822526   2.443   3.889   6.730  3.0245 -0.1074  0.0694
  140MOL     H922527   2.650   3.760   6.679 -1.5010  3.4660 -0.5501
  140MOL    C1022528   2.252   3.766   6.905  0.3653 -0.0308  0.0105
  140MOL    C1122529   2.246   3.765   7.061 -0.0643 -0.0002 -0.1902
  140MOL    C1222530   2.313   3.887   7.115  0.0133  0.7238  0.2106
  140MOL    O1322531   2.434   3.911   7.093 -0.2471  0.3417 -0.1738
  140MOL    H1422532   2.171   3.700   6.874 -0.0872 -0.6259  2.3204
  140MOL    H1522533   2.218   3.864   6.873 -1.2923 -1.8863 -4.3255
  140MOL    H1622534   2.280   3.676   7.115 -1.4814 -1.2193 -1.2578
  140MOL    H1722535   2.142   3.784   7.087 -0.4246  1.0344 -2.2931
  140MOL    C1822536   2.228   3.978   7.200  0.6407  0.0774 -0.5240
  140MOL    C1922537   2.313   4.099   7.243 -0.9656  0.3045  0.3603
  140MOL    C2022538   2.228   4.211   7.303 -0.6248  0.1131  0.2329
  140MOL    O2122539   2.133   4.188   7.377 -0.0323 -0.3263  0.3228
  140MOL    H2222540   2.165   3.936   7.278  0.1708  0.3917 -0.7361
  140MOL    H2322541   2.154   4.022   7.133 -0.4044  0.8826  1.1334
  140MOL    H2422542   2.363   4.148   7.160 -1.2804  0.5547  0.3173
  140MOL    H2522543   2.388   4.062   7.313  0.4947 -0.1598 -1.4164
  140MOL    C2622544   2.269   4.351   7.247  0.0638 -0.0060  0.3290
  140MOL    C2722545   2.217   4.466   7.340 -0.3777 -0.5191 -0.3909
  140MOL    C2822546   2.313   4.504   7.453  0.0317 -0.7720  0.5740
  140MOL    O2922547   2.418   4.447   7.470 -0.9869 -0.0966 -0.3833
  140MOL    H3022548   2.216   4.357   7.152  1.2053  0.4760 -0.2880
  140MOL    H3122549   2.377   4.359   7.241  0.1913 -1.3378  0.6881
  140MOL    H3222550   2.121   4.452   7.389  0.6182  3.4243  2.8870
  140MOL    H3322551   2.217   4.559   7.284  0.1120 -0.1773  0.1698
  140MOL    C3422552   2.253   4.598   7.553  0.3560 -0.0820  0.3605
  140MOL    C3522553   2.349   4.702   7.615 -0.3239  0.3296  0.3470
  140MOL    C3622554   2.434   4.657   7.735 -0.0981  0.5084 -0.1363
  140MOL    O3722555   2.415   4.543   7.789 -0.2439  0.0949 -0.2173
  140MOL    H3822556   2.218   4.535   7.635  2.7579 -0.5282  1.0653
  140MOL    H3922557   2.164   4.642   7.508  1.5568  0.2876 -1.7192
  140MOL    H4022558   2.287   4.788   7.638 -0.3974  0.3096  0.2251
  140MOL    H4122559   2.411   4.751   7.540 -3.0132  2.2930 -0.6485
  140MOL    C4222560   2.530   4.760   7.792 -0.0212 -0.1413 -0.1887
  140MOL    C4322561   2.649   4.710   0.021  0.2463 -0.4682  1.3378
  140MOL    C4422562   2.782   4.767   7.844 -0.3809  1.2712 -0.7137
  140MOL    O4522563   2.798   4.884   7.856  0.2240  0.2921  0.1642
  140MOL    H4622564   2.473   4.825   7.858 -1.4445 -1.1521 -0.3950
  140MOL    H4722565   2.576   4.813   7.708 -1.6872  0.3150 -0.8392
  140MOL    H4822566   2.664   4.605   7.854  2.6943 -0.0445  0.9250
  140MOL    H4922567   2.643   4.704   0.130  0.3356  0.2587  1.3880
  140MOL    C5022568   2.897   4.668   7.820 -0.3968  0.6204  0.0355
  140MOL    C5122569   3.031   4.728   7.781 -0.6548 -0.3847  0.3895
  140MOL    C5222570   3.153   4.681   0.008  0.2599  0.4997  0.4975
  140MOL    O5322571   3.148   4.608   0.108  0.3312  0.2305 -0.0282
  140MOL    H5422572   2.861   4.597   7.746 -0.2611 -0.1226  0.6814
  140MOL    H5522573   2.909   4.615   0.055  1.2861  2.1493  0.7085
  140MOL    H5622574   3.026   4.836   7.769 -0.9582 -0.4501 -0.0850
  140MOL    H5722575   3.057   4.698   7.679  1.3898 -1.0318  1.0763
  140MOL    C5822576   3.290   4.730   7.823  0.4300 -0.4972 -0.6289
  140MOL    C5922577   3.345   4.635   7.721  0.0934  0.6682 -0.0186
  140MOL    C6022578   3.485   4.594   7.758 -0.8774 -0.4200  0.0535
  140MOL    O6122579   3.498   4.508   7.845 -0.4013 -0.4873  0.3508
  140MOL    H6222580   3.358   4.748   0.047  2.4614  3.1670 -2.9590
  140MOL    H6322581   3.268   4.826   7.775  1.0825  0.4177  0.8594
  140MOL    H6422582   3.362   4.691   7.629 -0.0832  2.5434  1.0462
  140MOL    H6522583   3.285   4.545   7.707 -0.9206  1.2235  0.6650
  140MOL    C6622584   3.600   4.637   7.674 -0.2799 -0.6057  0.5423
  140MOL    C6722585   3.735   4.644   7.756 -0.6785 -0.1376  0.0139
  140MOL    C6822586   3.862   4.605   7.679 -0.3698  0.2704  0.8989
  140MOL    O6922587   3.886   4.651   7.567 -0.4002 -0.3376  0.1877
  140MOL    H7022588   3.575   4.731   7.625 -1.1486 -2.4097 -2.5518
  140MOL    H7122589   3.612   4.560   7.598 -0.1948 -0.2625  0.2068
  140MOL    H7222590   3.728   4.582   7.846  0.8140 -0.4814 -0.0999
  140MOL    H7322591   3.757   4.746   7.786  0.6396 -0.7478  1.1815
  140MOL    C7422592   3.952   4.502   7.746  0.0811  0.3094 -1.1356
  140MOL    C7522593   4.001   4.391   7.648 -1.2755 -0.0343  0.0777
  140MOL    C7622594   4.114   4.312   7.708 -0.1606  0.1626 -0.5577
  140MOL    O7722595   4.188   4.349   7.804 -0.3183 -0.3442 -0.0120
  140MOL    H7822596   3.891   4.461   7.827  2.8611 -0.1885  0.7888
  140MOL    H7922597   4.038   4.552   7.791  0.2707 -0.9685 -0.0291
  140MOL    H8022598   4.041   4.428   7.554  2.0746 -0.6228  1.2227
  140MOL    H8122599   3.919   4.331   7.607 -2.0793  0.7930  0.4356
  140MOL    C8222600   4.131   4.172   7.655 -0.2768  0.0415  0.3611
  140MOL    C8322601   4.128   4.145   7.503  0.4349  0.3469 -0.0100
  140MOL    C8422602   4.229   4.043   7.453 -0.1472 -0.5530  0.2961
  140MOL    O8522603   4.262   3.952   7.527 -0.5489  0.9701  0.4060
  140MOL    H8622604   4.058   4.100   7.691 -0.2667 -0.6662 -0.9875
  140MOL    H8722605   4.224   4.140   7.703  0.0513  1.7174  0.8678
  140MOL    H8822606   4.156   4.241   7.461  1.5553  0.6510  1.3953
  140MOL    H8922607   4.027   4.125   7.466  0.3685 -2.7054  1.6746
  140MOL    C9022608   4.270   4.040   7.312 -0.7707  0.5212 -0.2663
  140MOL    C9122609   4.417   3.986   7.282  0.6765 -0.4791 -0.4976
  140MOL    C9222610   4.533   4.089   7.285  0.5991  0.2396 -0.2469
  140MOL    O9322611   4.530   4.207   7.335  0.3521  0.6806  0.8888
  140MOL    H9422612   4.266   4.145   7.285  0.8552  0.8461  0.6795
  140MOL    H9522613   4.203   3.984   7.247 -0.7696 -1.4493  1.3581
  140MOL    H9622614   4.418   3.936   7.185 -2.5504  0.7321 -1.2214
  140MOL    H9722615   4.429   3.905   7.355 -0.1386  0.1941  0.4094
  140MOL    C9822616   4.667   4.047   7.229  0.6471 -0.7309  0.3241
  140MOL    C9922617   4.722   3.914   7.272 -0.6935 -0.2379  0.2946
  140MOL   C10022618   4.861   3.888   7.218 -0.2500  0.5099  0.1049
  140MOL   O10122619   4.885   3.929   7.102 -0.0821  0.5178 -0.0452
  140MOL   H10222620   4.740   4.124   7.253 -0.3569  0.5439 -0.6199
  140MOL   H10322621   4.669   4.060   7.120  0.4025  1.1176  0.5205
  140MOL   H10422622   4.647   3.843   7.240 -0.0982 -0.1642 -1.2720
  140MOL   H10522623   4.732   3.900   7.380 -0.8784  2.0284  0.6407
  140MOL   C10622624   4.962   3.812   7.300  0.4996 -0.3935 -0.4701
  140MOL   C10722625   4.980   3.670   7.245  0.0823 -0.3802  0.2283
  140MOL   C10822626   4.898   3.574   7.325 -0.1880  0.0642 -0.3169
  140MOL   O10922627   4.785   3.611   7.364 -0.5033  0.1626 -0.3994
  140MOL   H11022628   4.933   3.817   7.405 -0.6919 -0.2191 -0.8036
  140MOL   H11122629   5.059   3.861   7.290  2.1515 -3.1874  1.2970
  140MOL   H11222630   5.082   3.633   7.252 -0.6931 -2.5256  0.5240
  140MOL   H11322631   4.952   3.668   7.139 -1.0792 -1.8350  0.5346
  140MOL   C11422632   4.935   3.428   7.345 -0.6101 -0.0376 -0.2028
  140MOL   C11522633   4.822   3.324   7.342 -0.1711 -0.2339  0.6526
  140MOL   C11622634   4.870   3.190   7.403 -0.7537  0.3318 -0.1350
  140MOL   O11722635   4.981   3.178   7.453  0.6850  0.1886 -0.3480
  140MOL   H11822636   4.993   3.424   7.438  0.9252  0.7680 -1.1050
  140MOL   H11922637   4.999   3.400   7.261  1.7576 -1.4621  1.9962
  140MOL   H12022638   4.799   3.303   7.238  1.0607  1.7288 -0.0471
  140MOL   H12122639   4.738   3.358   7.402 -0.0378 -0.5579  1.0283
  140MOL   C12222640   4.780   3.065   7.388  0.2073 -0.2792  0.2760
  140MOL   C12322641   4.805   2.968   7.501  0.1612  0.5362  0.5516
  140MOL   C12422642   4.911   2.862   7.463 -0.4387 -0.6478  0.0693
  140MOL   O12522643   4.987   2.878   7.361  0.3212 -0.5134 -0.6122
  140MOL   H12622644   4.809   3.018   7.293 -0.6566  0.2187 -0.2415
  140MOL   H12722645   4.677   3.101   7.381  1.0932  2.6921  1.5715
  140MOL   H12822646   4.720   2.906   7.529  0.6670 -0.9915 -1.1809
  140MOL   H12922647   4.839   3.028   7.585  0.7773  0.3044  0.4691
  140MOL   C13022648   4.931   2.751   7.560 -0.0262 -0.5138  0.1370
  140MOL   C13122649   5.030   2.797   7.667 -0.1435  0.0229  0.3380
  140MOL   C13222650   4.961   2.851   7.795 -0.0796 -0.8928  0.1908
  140MOL   O13322651   4.837   2.856   7.797 -0.3640 -0.1783  0.7284
  140MOL   H13422652   4.974   2.664   7.511  0.5567 -1.5324  2.4221
  140MOL   H13522653   4.832   2.713   7.585 -0.1491  0.0308  0.4788
  140MOL   H13622654   5.086   2.880   7.625 -2.7434  1.6040 -0.1395
  140MOL   H13722655   5.107   2.723   7.686  2.1260  2.5033  1.0598
  140MOL   C13822656   5.040   2.878   0.059 -0.2453 -0.3598  0.8812
  140MOL   C13922657   5.003   3.011   0.134  0.0313 -0.1397 -0.6258
  140MOL   C14022658   5.063   3.010   0.274 -0.2694 -0.1217  0.4790
  140MOL   O14122659   5.142   2.925   0.311 -0.3344 -0.3928 -0.1177
  140MOL   H14222660   5.146   2.884   0.033 -0.5557 -1.5477 -0.7550
  140MOL   H14322661   5.024   2.786   0.114  0.1496 -1.3697 -0.6469
  140MOL   H14422662   4.894   3.019   0.143  0.1131  2.6632 -1.7685
  140MOL   H14522663   5.033   3.098   0.075  2.3671  1.1433  2.3737
  140MOL   C14622664   5.011   3.120   0.366  0.3167 -0.1581 -0.3283
  140MOL   C14722665   5.116   3.226   0.396 -0.7820  0.0011 -0.0200
  140MOL   C14822666   5.125   3.332   0.287  0.0135 -0.1180  0.2125
  140MOL   O14922667   5.046   3.337   0.195  0.0007  0.2733 -0.2045
  140MOL   H15022668   4.958   3.090   0.456 -1.3849  2.5957 -0.3406
  140MOL   H15122669   4.927   3.165   0.311  1.3536  1.7311 -0.4275
  140MOL   H15222670   5.213   3.177   0.409 -0.9961 -0.4062  0.0739
  140MOL   H15322671   5.098   3.275   0.491  2.3512 -2.8991  2.1959
  140MOL   C15422672   5.235   3.441   0.305  0.8955  0.4675  0.7015
  140MOL   C15522673   5.199   3.575   0.242  0.4286 -0.1340  0.1338
  140MOL   C15622674   5.098   3.649   0.328 -0.4854  0.0148  0.1223
  140MOL   O15722675   5.076   3.612   0.446  0.1483 -0.6264 -0.4916
  140MOL   H15822676   5.322   3.397   0.256  1.0411  0.3232  1.0867
  140MOL   H15922677   5.255   3.463   0.410  1.1579  0.7439  0.5953
  140MOL   H16022678   5.154   3.562   0.144 -0.6413  1.4137  0.3959
  140MOL   H16122679   5.287   3.640   0.240  0.2646  0.0653 -1.6063
  140MOL   H16222680   5.068   3.747   0.290  0.4868 -0.0312 -0.7892
  141MOL     C122681   2.828   1.771   6.776  0.2485 -0.2145 -0.3475
  141MOL     C222682   2.797   1.825   6.918  0.3487  0.3860  0.0311
  141MOL     C322683   2.740   1.966   6.907 -0.5678  0.2874 -0.2216
  141MOL     O422684   2.805   2.059   6.941 -0.0552  0.4496 -0.3437
  141MOL     H522685   2.746   1.764   6.704  0.5989 -1.5924 -0.6340
  141MOL     H622686   2.908   1.825   6.725  0.0823  0.9345  0.5796
  141MOL     H722687   2.885   1.830   6.981  0.4674  1.3178 -0.2066
  141MOL     H822688   2.722   1.757   6.958  0.5055  0.3175  0.2057
  141MOL     H922689   2.865   1.669   6.786 -0.0972 -0.2232  0.9248
  141MOL    C1022690   2.597   1.978   6.858 -0.0898  0.3330  0.3477
  141MOL    C1122691   2.540   2.118   6.869 -0.3987  0.5188 -0.2226
  141MOL    C1222692   2.446   2.143   6.987  0.4724 -1.1977 -0.2368
  141MOL    O1322693   2.436   2.067   7.080 -0.2536 -0.2420 -0.0881
  141MOL    H1422694   2.534   1.918   6.923  1.8404 -0.7496  1.2767
  141MOL    H1522695   2.588   1.923   6.764 -1.4893  0.9770  0.0946
  141MOL    H1622696   2.480   2.134   6.780 -0.9845 -1.7351 -0.2480
  141MOL    H1722697   2.621   2.191   6.868  0.2266 -0.1773 -0.7641
  141MOL    C1822698   2.359   2.268   6.982  0.3061  0.2165 -0.2275
  141MOL    C1922699   2.226   2.238   7.051 -0.1714  0.4913 -0.2414
  141MOL    C2022700   2.155   2.370   7.073  1.1525 -0.2958  0.1927
  141MOL    O2122701   2.211   2.461   7.133  0.5732  0.0403 -0.5848
  141MOL    H2222702   2.343   2.287   6.876  2.8606  1.2843 -0.4617
  141MOL    H2322703   2.422   2.346   7.025  0.5179 -0.2684  0.3390
  141MOL    H2422704   2.231   2.203   7.154 -1.3686 -1.2157 -0.7351
  141MOL    H2522705   2.175   2.164   6.989  2.1343 -0.2104 -1.3370
  141MOL    C2622706   2.008   2.381   7.041 -0.6099  1.2067 -0.5425
  141MOL    C2722707   1.923   2.321   7.159  0.2944  0.0764 -0.0019
  141MOL    C2822708   1.879   2.175   7.145  0.6220 -0.2454  0.8727
  141MOL    O2922709   1.883   2.119   7.035 -0.1041  0.4295  0.1890
  141MOL    H3022710   1.999   2.320   6.952  2.3433 -1.2899  0.7538
  141MOL    H3122711   1.983   2.485   7.017  0.1242  1.5046 -0.0298
  141MOL    H3222712   1.836   2.384   7.176  0.7473  0.5659  0.5633
  141MOL    H3322713   1.989   2.319   7.246 -0.2981 -1.1571  0.4359
  141MOL    C3422714   1.827   2.111   7.269  0.0436  0.1688 -0.7112
  141MOL    C3522715   1.746   1.984   7.242  0.0012  0.4454  0.2932
  141MOL    C3622716   1.659   1.948   7.362 -0.4980  0.3618 -0.8104
  141MOL    O3722717   1.638   2.031   7.451  1.2250  0.0138  0.3655
  141MOL    H3822718   1.760   2.180   7.320  0.3315  0.6769 -1.0286
  141MOL    H3922719   1.907   2.075   7.333 -1.4825 -2.6884 -0.3157
  141MOL    H4022720   1.809   1.902   7.207 -1.6521 -1.3691  1.4687
  141MOL    H4122721   1.685   1.996   7.152 -2.1974  1.0941  1.8409
  141MOL    C4222722   1.598   1.810   7.366  0.2369 -0.3235  0.4778
  141MOL    C4322723   1.481   1.794   7.465  0.1700 -0.6208 -0.5268
  141MOL    C4422724   1.528   1.776   7.611 -0.7550 -0.0458 -0.1451
  141MOL    O4522725   1.640   1.732   7.631  1.2629 -0.3262 -0.2250
  141MOL    H4622726   1.684   1.743   7.374  0.9516  0.7087  1.6429
  141MOL    H4722727   1.563   1.787   7.266  2.9991  1.9803 -1.0809
  141MOL    H4822728   1.417   1.712   7.433 -0.7853 -0.5022  1.0211
  141MOL    H4922729   1.416   1.881   7.457  1.8378  0.8495  1.3939
  141MOL    C5022730   1.420   1.783   7.712  0.6854 -0.3257 -0.5659
  141MOL    C5122731   1.442   1.679   7.829  0.3716 -0.4319 -0.0332
  141MOL    C5222732   1.476   1.736   0.100  0.4287 -0.3992 -0.2350
  141MOL    O5322733   1.394   1.733   0.191 -0.3567 -0.1071  0.0404
  141MOL    H5422734   1.328   1.749   7.665 -0.8340 -0.6834  2.5893
  141MOL    H5522735   1.402   1.883   7.752  1.5099  0.4607 -2.1051
  141MOL    H5622736   1.527   1.614   7.810  0.0411 -0.5515 -1.1660
  141MOL    H5722737   1.350   1.624   7.845 -0.6108  2.1561  4.0986
  141MOL    C5822738   1.610   1.817   0.118  0.6376 -0.0546 -0.3645
  141MOL    C5922739   1.641   1.873   0.258 -0.5874 -0.0314  0.7680
  141MOL    C6022740   1.766   1.807   0.307  0.5327  0.0547  0.4136
  141MOL    O6122741   1.828   1.717   0.243  0.2662  0.0533 -0.4678
  141MOL    H6222742   1.607   1.906   0.055 -1.4793 -0.0999 -0.3551
  141MOL    H6322743   1.689   1.758   0.071  2.2159  1.4180  0.3684
  141MOL    H6422744   1.569   1.859   0.338 -0.6757  0.8076  0.8379
  141MOL    H6522745   1.661   1.980   0.257  1.4045 -0.3321 -2.9772
  141MOL    C6622746   1.797   1.847   0.452 -1.1245  0.3313 -0.7564
  141MOL    C6722747   1.932   1.784   0.514  0.5351 -0.4258 -0.2756
  141MOL    C6822748   2.041   1.888   0.500  0.1808 -0.6832  0.5978
  141MOL    O6922749   2.013   2.001   0.461 -0.1805 -0.1040  0.0342
  141MOL    H7022750   1.719   1.811   0.520  0.7265  1.3522  2.0047
  141MOL    H7122751   1.785   1.955   0.441  0.1676  0.7225  1.3339
  141MOL    H7222752   1.977   1.700   0.461 -1.7408 -3.4510  2.3827
  141MOL    H7322753   1.920   1.746   0.615  1.2350 -0.5904 -0.2571
  141MOL    C7422754   2.187   1.853   0.531  0.6249 -0.2938 -0.5418
  141MOL    C7522755   2.297   1.942   0.467 -0.1729  0.1676 -0.2629
  141MOL    C7622756   2.414   1.993   0.552 -0.1143 -0.0813  0.4159
  141MOL    O7722757   2.418   1.970   0.670 -0.1266 -0.0280  0.0300
  141MOL    H7822758   2.206   1.752   0.495 -0.6439  0.1506 -2.5311
  141MOL    H7922759   2.207   1.871   0.637 -0.3939  1.1848 -0.5836
  141MOL    H8022760   2.260   2.029   0.413 -0.7966  0.6914  0.9824
  141MOL    H8122761   2.345   1.882   0.390  2.3044  0.9395  0.6464
  141MOL    C8222762   2.526   2.070   0.485  0.1336 -0.1345  0.2264
  141MOL    C8322763   2.654   2.089   0.573 -0.1202 -0.1726  0.3866
  141MOL    C8422764   2.659   2.227   0.632  0.1412 -0.6806 -0.3531
  141MOL    O8522765   2.554   2.290   0.663 -0.3827 -0.6907 -0.0994
  141MOL    H8622766   2.491   2.168   0.454  0.9027  0.2728  0.6180
  141MOL    H8722767   2.550   2.027   0.388  2.4989 -0.0198  0.7208
  141MOL    H8822768   2.742   2.082   0.509 -1.0347  0.0515 -0.9153
  141MOL    H8922769   2.659   2.013   0.651 -1.6005 -1.6291 -0.8972
  141MOL    C9022770   2.805   2.276   0.677 -0.7729  0.5302  0.3540
  141MOL    C9122771   2.801   2.396   0.770  0.4474  0.7597 -0.2239
  141MOL    C9222772   2.794   2.347   0.913 -0.5480 -0.5018  0.2311
  141MOL    O9322773   2.865   2.256   0.945 -0.4985  0.2832 -0.3487
  141MOL    H9422774   2.858   2.298   0.584 -0.8774 -1.4233 -0.1896
  141MOL    H9522775   2.853   2.189   0.721 -1.8816 -1.0495 -1.4675
  141MOL    H9622776   2.716   2.464   0.757 -1.9222 -1.2051  3.7972
  141MOL    H9722777   2.889   2.457   0.749 -0.8222  2.5008 -0.6440
  141MOL    C9822778   2.702   2.421   1.007  0.2054 -0.8119  0.0141
  141MOL    C9922779   2.682   2.358   1.145 -0.0985 -0.2418  0.1906
  141MOL   C10022780   2.546   2.398   1.210 -0.0414 -0.5410 -0.4467
  141MOL   O10122781   2.467   2.474   1.154  0.0010  0.3818 -0.1763
  141MOL   H10222782   2.607   2.434   0.955 -0.8563  0.3120  2.1798
  141MOL   H10322783   2.740   2.522   1.021 -1.6401 -0.3521  1.7936
  141MOL   H10422784   2.766   2.387   1.209  0.0701 -1.2706  0.4584
  141MOL   H10522785   2.695   2.250   1.129 -1.4515 -0.2480 -0.9420
  141MOL   C10622786   2.519   2.342   1.348  0.1404  0.2322  0.0141
  141MOL   C10722787   2.432   2.433   1.436 -0.8726 -0.6462  0.2956
  141MOL   C10822788   2.321   2.368   1.516  0.0981  0.1379  0.4078
  141MOL   O10922789   2.344   2.272   1.591  0.1014  0.3461  0.3457
  141MOL   H11022790   2.613   2.313   1.394  0.4133  0.8617 -0.1491
  141MOL   H11122791   2.465   2.249   1.330  2.8391 -1.4435  0.2919
  141MOL   H11222792   2.381   2.512   1.380 -2.7875 -0.5471  2.1160
  141MOL   H11322793   2.495   2.496   1.498 -0.3529  0.6395 -1.4789
  141MOL   C11422794   2.181   2.420   1.480 -0.4642 -0.4490  0.4570
  141MOL   C11522795   2.074   2.316   1.494 -0.4986 -0.0660 -0.6191
  141MOL   C11622796   1.956   2.351   1.397 -0.1080  0.0205 -0.1082
  141MOL   O11722797   1.949   2.457   1.335 -0.0518 -0.5121 -0.5513
  141MOL   H11822798   2.192   2.440   1.373  0.9992 -1.9229  0.3125
  141MOL   H11922799   2.154   2.512   1.531 -0.7104  0.3802 -1.1220
  141MOL   H12022800   2.043   2.301   1.597  1.0641  0.9870  0.0143
  141MOL   H12122801   2.118   2.227   1.448 -1.1876 -0.4772 -0.4851
  141MOL   C12222802   1.858   2.235   1.363 -0.1814  0.0240 -0.2627
  141MOL   C12322803   1.759   2.255   1.246 -0.1177 -0.0648 -0.6162
  141MOL   C12422804   1.627   2.190   1.280  0.0718 -0.0480 -0.0712
  141MOL   O12522805   1.617   2.103   1.371 -0.0555 -0.6410 -0.9841
  141MOL   H12622806   1.820   2.185   1.453  0.5520  1.5320  0.9078
  141MOL   H12722807   1.918   2.145   1.346  2.2877  1.7169 -0.8203
  141MOL   H12822808   1.795   2.220   1.149  0.2941  1.0621 -0.8710
  141MOL   H12922809   1.728   2.359   1.238  0.2920 -0.1421 -3.5666
  141MOL   C13022810   1.504   2.235   1.200 -0.2978 -0.4717 -0.3945
  141MOL   C13122811   1.378   2.148   1.216 -0.8120  0.6693 -0.2733
  141MOL   C13222812   1.265   2.216   1.292  0.3785  0.1690 -0.7690
  141MOL   O13322813   1.242   2.175   1.409 -0.3319  0.2316  0.2578
  141MOL   H13422814   1.540   2.248   1.098 -4.3285 -0.5154 -1.9478
  141MOL   H13522815   1.483   2.336   1.234 -2.9379 -0.9581 -0.4223
  141MOL   H13622816   1.401   2.057   1.272 -0.7430  0.8088 -0.0754
  141MOL   H13722817   1.319   2.122   1.127  1.6475 -0.4555 -1.6405
  141MOL   C13822818   1.215   2.356   1.245 -0.0433 -0.0939 -0.1062
  141MOL   C13922819   1.062   2.374   1.239 -0.1070  0.4521  0.7291
  141MOL   C14022820   1.022   2.388   1.094 -0.1041 -1.3164  0.4349
  141MOL   O14122821   1.058   2.296   1.016 -0.6292  0.1029 -0.1957
  141MOL   H14222822   1.266   2.397   1.158 -0.5807 -2.1064 -1.4125
  141MOL   H14322823   1.252   2.425   1.320 -0.4919  0.9888 -0.8802
  141MOL   H14422824   1.042   2.467   1.293 -2.1621  0.1501  0.5317
  141MOL   H14522825   1.004   2.303   1.299 -0.2985 -0.6615 -0.7485
  141MOL   C14622826   0.949   2.513   1.040 -0.7179 -0.3274  0.5001
  141MOL   C14722827   0.872   2.484   0.900 -0.0426  0.1562 -0.3109
  141MOL   C14822828   0.752   2.573   0.884 -0.7078 -0.6939 -0.3343
  141MOL   O14922829   0.727   2.658   0.968  0.1648  0.6879 -0.5859
  141MOL   H15022830   1.023   2.591   1.021 -0.7066 -0.1854  1.1133
  141MOL   H15122831   0.889   2.552   1.122 -0.6423  2.2729 -0.6356
  141MOL   H15222832   0.829   2.383   0.905  1.7270 -0.5727  0.5086
  141MOL   H15322833   0.936   2.495   0.812  0.9341  0.1122  0.3864
  141MOL   C15422834   0.669   2.565   0.753 -0.3611  0.1079  0.2610
  141MOL   C15522835   0.697   2.673   0.646 -0.0758  0.2358 -0.7673
  141MOL   C15622836   0.754   2.624   0.511  0.2182  0.0211  0.2151
  141MOL   O15722837   0.695   2.531   0.452 -0.3941 -0.4217 -0.4173
  141MOL   H15822838   0.564   2.573   0.779 -0.6687 -1.1269 -0.5559
  141MOL   H15922839   0.678   2.461   0.721  0.8041  0.2270  0.1613
  141MOL   H16022840   0.771   2.736   0.695  0.0581  1.0195 -1.9338
  141MOL   H16122841   0.610   2.734   0.619  0.7284  0.4966 -2.8282
  141MOL   H16222842   0.840   2.684   0.481 -0.3394 -0.2941 -2.1159
  142MOL     C122843   4.382   2.943   3.212 -0.2568  0.5912  0.3057
  142MOL     C222844   4.319   3.088   3.215  0.3122  0.1120  0.4298
  142MOL     C322845   4.294   3.156   3.079  0.0875  0.2088 -0.8587
  142MOL     O422846   4.362   3.256   3.053 -0.8497 -0.4750 -0.0166
  142MOL     H522847   4.309   2.876   3.166  0.9829 -1.0711  0.7131
  142MOL     H622848   4.459   2.946   3.135 -1.2718 -0.2417 -0.7618
  142MOL     H722849   4.378   3.161   3.269 -0.1605  0.5029  0.4209
  142MOL     H822850   4.216   3.079   3.251  0.2111 -0.2337  0.0643
  142MOL     H922851   4.409   2.892   3.305 -1.2341 -0.7373 -0.1224
  142MOL    C1022852   4.184   3.105   2.983 -0.5516 -0.8481 -0.6673
  142MOL    C1122853   4.076   3.213   2.959 -0.4204  0.2944 -0.2981
  142MOL    C1222854   3.993   3.227   3.092  0.0469 -0.1225  0.4582
  142MOL    O1322855   3.992   3.139   3.175 -0.0578  0.5135 -0.2108
  142MOL    H1422856   4.157   3.012   3.033  0.0968 -1.2937 -1.1381
  142MOL    H1522857   4.231   3.080   2.888  0.0735 -1.6759 -0.1431
  142MOL    H1622858   4.006   3.174   2.886 -0.1826  0.5828 -0.6815
  142MOL    H1722859   4.117   3.308   2.923 -0.4764 -0.1371 -1.5031
  142MOL    C1822860   3.911   3.359   3.097 -0.1999  0.6344  0.1105
  142MOL    C1922861   3.838   3.369   3.232 -0.6954 -0.9470  0.0532
  142MOL    C2022862   3.693   3.339   3.214  0.4981  0.1024 -0.4448
  142MOL    O2122863   3.608   3.431   3.235 -0.3308 -0.0088  0.3590
  142MOL    H2222864   3.838   3.346   3.017  1.4300 -0.8017 -1.1799
  142MOL    H2322865   3.962   3.451   3.068  0.2866 -0.2592 -1.9565
  142MOL    H2422866   3.852   3.467   3.278 -0.2919 -1.3988  0.9091
  142MOL    H2522867   3.879   3.310   3.314 -1.6352 -0.6246  0.7633
  142MOL    C2622868   3.654   3.197   3.177 -0.3836 -0.1234 -0.5708
  142MOL    C2722869   3.504   3.164   3.202  0.1904 -0.1941 -0.7304
  142MOL    C2822870   3.403   3.238   3.110 -0.8841  0.4540 -0.1422
  142MOL    O2922871   3.444   3.283   3.003  0.9233  0.3191  0.3895
  142MOL    H3022872   3.716   3.132   3.239 -1.2707 -0.7863 -0.3787
  142MOL    H3122873   3.668   3.178   3.070 -0.5730 -1.0692 -0.4337
  142MOL    H3222874   3.471   3.189   3.303  1.4276  0.3656 -0.4434
  142MOL    H3322875   3.502   3.056   3.195  0.7301 -0.2298 -0.3957
  142MOL    C3422876   3.256   3.221   3.136 -0.3418 -0.3512 -0.2545
  142MOL    C3522877   3.177   3.198   3.007 -0.0759 -0.5468  0.5135
  142MOL    C3622878   3.119   3.059   2.988  0.1125  0.2858  0.5087
  142MOL    O3722879   3.180   2.959   3.029  0.0369 -0.1335 -0.3947
  142MOL    H3822880   3.212   3.311   3.178 -2.6770 -1.3213 -0.5245
  142MOL    H3922881   3.234   3.137   3.202 -0.9181  1.8028  2.3944
  142MOL    H4022882   3.235   3.213   2.916 -2.5881  0.3986 -0.9737
  142MOL    H4122883   3.099   3.273   2.999 -0.8044 -1.1036  2.3144
  142MOL    C4222884   2.988   3.046   2.911  0.1156 -0.5052 -0.0004
  142MOL    C4322885   2.907   2.922   2.953  0.1748 -0.1451 -0.8136
  142MOL    C4422886   2.946   2.786   2.905  0.1592  0.3453  0.4326
  142MOL    O4522887   3.021   2.782   2.808 -0.3981 -0.2564 -0.2399
  142MOL    H4622888   3.011   3.044   2.804 -1.0515 -3.6064 -0.2432
  142MOL    H4722889   2.930   3.137   2.925  0.7314 -0.3601  1.6923
  142MOL    H4822890   2.808   2.944   2.915 -0.8124 -1.4513  0.9348
  142MOL    H4922891   2.905   2.910   3.062  1.5571 -2.7862 -1.0379
  142MOL    C5022892   2.913   2.670   2.989 -0.0998  0.2576  0.4217
  142MOL    C5122893   3.038   2.601   3.042 -0.2343 -0.4273 -0.1004
  142MOL    C5222894   3.051   2.452   2.999  0.6095 -1.2344  0.3099
  142MOL    O5322895   3.096   2.428   2.892 -0.4053  0.4240 -0.1367
  142MOL    H5422896   2.869   2.605   2.913 -0.2808  0.8762 -0.0053
  142MOL    H5522897   2.843   2.702   3.067 -0.7405  0.3569 -0.1860
  142MOL    H5622898   3.026   2.597   3.150  0.4843  1.6529  0.0698
  142MOL    H5722899   3.130   2.657   3.023  0.6233 -1.9434 -0.5544
  142MOL    C5822900   3.008   2.344   3.099  0.2557 -0.6217 -0.0263
  142MOL    C5922901   3.002   2.206   3.039  0.0628 -0.0374  0.0040
  142MOL    C6022902   2.925   2.103   3.119 -0.5521 -0.2186 -0.1862
  142MOL    O6122903   2.871   2.134   3.223  0.0538 -0.0147 -0.2018
  142MOL    H6222904   2.906   2.366   3.131  0.4765 -1.0387  0.9777
  142MOL    H6322905   3.068   2.349   3.190  0.0222  0.5148  0.0778
  142MOL    H6422906   3.106   2.177   3.025  0.8283  1.7395  1.8148
  142MOL    H6522907   2.951   2.218   2.944 -0.5836  0.4729  0.4083
  142MOL    C6622908   2.936   1.965   3.062 -0.0028 -0.2664  0.8836
  142MOL    C6722909   2.815   1.927   2.967 -0.0813 -0.1823  0.5974
  142MOL    C6822910   2.841   1.974   2.816 -0.2954  0.7088 -0.1965
  142MOL    O6922911   2.933   1.925   2.749  0.3449 -0.0190  0.0182
  142MOL    H7022912   2.939   1.896   3.146 -2.1672 -1.8534 -0.2882
  142MOL    H7122913   3.031   1.938   3.016 -0.0927  0.0737  0.4907
  142MOL    H7222914   2.725   1.973   3.009 -0.1960  0.2685 -0.1340
  142MOL    H7322915   2.802   1.819   2.976 -1.2202 -0.3397 -2.4019
  142MOL    C7422916   2.755   2.095   2.761 -0.4116 -0.2840 -0.0348
  142MOL    C7522917   2.829   2.177   2.657  0.2182  1.2826  0.7176
  142MOL    C7622918   2.837   2.327   2.692  0.0988  0.0072  0.2318
  142MOL    O7722919   2.765   2.374   2.779 -0.3602  0.8022  0.2179
  142MOL    H7822920   2.727   2.162   2.842 -0.7107 -2.4153  1.6716
  142MOL    H7922921   2.669   2.051   2.711 -0.4719 -0.5232  0.2729
  142MOL    H8022922   2.759   2.182   2.574  1.9570 -3.2608 -1.1474
  142MOL    H8122923   2.919   2.127   2.621 -0.2853  0.6945  0.2827
  142MOL    C8222924   2.929   2.412   2.610  0.0955 -0.3299  0.1281
  142MOL    C8322925   2.890   2.559   2.608 -0.5660  0.0507  0.8067
  142MOL    C8422926   2.821   2.594   2.479 -0.4723 -0.1860 -0.5320
  142MOL    O8522927   2.697   2.609   2.473 -0.4296  1.0066 -0.4126
  142MOL    H8622928   2.944   2.369   2.511  1.0718 -1.8521  0.9104
  142MOL    H8722929   3.011   2.404   2.682  1.4502  1.4013 -1.1504
  142MOL    H8822930   2.987   2.609   2.600 -0.3535  0.4764  5.1982
  142MOL    H8922931   2.832   2.592   2.694 -1.5796 -0.7375  0.4255
  142MOL    C9022932   2.915   2.593   2.358 -0.0919  0.2094 -0.1700
  142MOL    C9122933   2.878   2.690   2.241 -0.3656  0.1641 -0.2258
  142MOL    C9222934   2.945   2.829   2.270 -0.0281 -0.4409 -1.3791
  142MOL    O9322935   2.954   2.881   2.385 -0.2134  0.4508  0.2709
  142MOL    H9422936   2.914   2.494   2.311 -1.6046  1.1261 -2.1773
  142MOL    H9522937   3.016   2.598   2.398 -0.5140 -1.6124  1.1876
  142MOL    H9622938   2.772   2.713   2.227 -0.4767 -0.5064 -0.4975
  142MOL    H9722939   2.916   2.650   2.147 -1.6333  1.5367 -1.3534
  142MOL    C9822940   2.980   2.912   2.145 -1.0265 -0.2186  0.5729
  142MOL    C9922941   2.893   3.034   2.126 -0.2650  0.2815  0.1224
  142MOL   C10022942   2.751   2.993   2.081  0.1485 -0.1163  1.0286
  142MOL   O10122943   2.730   2.885   2.030 -0.0407  0.4915  0.1251
  142MOL   H10222944   2.979   2.841   2.062  1.3051  0.5257 -0.1259
  142MOL   H10322945   3.079   2.953   2.165 -1.7908  2.0690 -0.2750
  142MOL   H10422946   2.930   3.101   2.048  2.0705  1.1765  1.9179
  142MOL   H10522947   2.876   3.093   2.216 -0.8652 -0.8740  0.7654
  142MOL   C10622948   2.639   3.103   2.098  0.1780  0.0536  0.2407
  142MOL   C10722949   2.533   3.110   1.979  0.2770  0.2957 -0.3615
  142MOL   C10822950   2.558   3.226   1.890 -0.4805  0.3046 -0.6648
  142MOL   O10922951   2.618   3.320   1.932  0.1679 -0.1741  0.4170
  142MOL   H11022952   2.693   3.193   2.127  0.6897 -0.7956  1.9799
  142MOL   H11122953   2.582   3.073   2.186  1.7280  0.1187  1.2956
  142MOL   H11222954   2.431   3.125   2.015  0.2679 -2.1467  0.7311
  142MOL   H11322955   2.523   3.019   1.921 -0.2189 -0.0671  0.2781
  142MOL   C11422956   2.495   3.218   1.754 -0.0519  0.6359 -0.0336
  142MOL   C11522957   2.531   3.340   1.673 -0.3224 -1.4816 -0.1362
  142MOL   C11622958   2.619   3.293   1.555  0.7381 -0.5532 -0.2202
  142MOL   O11722959   2.740   3.329   1.546  0.2778  0.3031 -0.2112
  142MOL   H11822960   2.387   3.219   1.771  0.0619  0.9847  0.7069
  142MOL   H11922961   2.516   3.124   1.703  2.3894  1.1314  0.0117
  142MOL   H12022962   2.589   3.417   1.724 -2.2758 -0.3125  0.3610
  142MOL   H12122963   2.438   3.386   1.641  0.3825 -0.2936 -0.4996
  142MOL   C12222964   2.543   3.200   1.457  0.3152  0.5141 -1.0294
  142MOL   C12322965   2.609   3.208   1.318  0.1848  0.2442 -0.4984
  142MOL   C12422966   2.503   3.226   1.210  1.0421  0.0366 -0.0753
  142MOL   O12522967   2.443   3.131   1.162 -0.1117  0.1088 -0.1174
  142MOL   H12622968   2.435   3.209   1.449  0.3517  0.3369 -1.7461
  142MOL   H12722969   2.559   3.100   1.499 -0.8619  0.6005 -0.3608
  142MOL   H12822970   2.658   3.113   1.297  0.6431  0.4976 -0.5794
  142MOL   H12922971   2.684   3.286   1.305  0.2573 -0.2211 -3.3314
  142MOL   C13022972   2.494   3.365   1.157 -0.7380  0.1927 -0.4851
  142MOL   C13122973   2.448   3.375   1.016 -0.0233  0.7375  0.0653
  142MOL   C13222974   2.302   3.411   1.009  1.2450 -0.2873 -0.8341
  142MOL   O13322975   2.245   3.493   1.080 -0.7468  0.5389 -0.0783
  142MOL   H13422976   2.586   3.423   1.159 -0.5940 -0.0454 -0.3139
  142MOL   H13522977   2.427   3.431   1.213 -3.2227 -0.7339 -2.2684
  142MOL   H13622978   2.463   3.289   0.951 -0.2878  0.6733  0.0891
  142MOL   H13722979   2.504   3.462   0.983 -0.0110  0.1967 -1.3862
  142MOL   C13822980   2.224   3.355   0.897  0.5229 -0.7915  0.6409
  142MOL   C13922981   2.211   3.199   0.894  0.5395 -0.1734 -0.8566
  142MOL   C14022982   2.173   3.139   0.757 -0.1640  0.4784 -0.1030
  142MOL   O14122983   2.131   3.205   0.662  0.0406 -0.7308 -0.0860
  142MOL   H14222984   2.285   3.384   0.811  1.4007 -0.9507  1.1968
  142MOL   H14322985   2.131   3.409   0.879  0.6722 -0.7084  0.1060
  142MOL   H14422986   2.144   3.169   0.975  3.4032  0.7635  1.9911
  142MOL   H14522987   2.295   3.152   0.944  0.0791  0.5667  0.6595
  142MOL   C14622988   2.198   2.991   0.749  0.0210  0.4101  0.1117
  142MOL   C14722989   2.259   2.949   0.613  0.0553 -0.0253 -0.0885
  142MOL   C14822990   2.152   2.920   0.514  0.1690 -0.8777  0.3969
  142MOL   O14922991   2.039   2.896   0.542 -0.3714  0.2750 -0.4944
  142MOL   H15022992   2.113   2.932   0.782  1.4513 -1.3746  0.6759
  142MOL   H15122993   2.265   2.961   0.830 -1.1162 -1.8937  0.2443
  142MOL   H15222994   2.317   2.859   0.634 -0.8381 -0.2121  1.6872
  142MOL   H15322995   2.329   3.023   0.573 -0.7337  1.4426  1.1682
  142MOL   C15422996   2.191   2.914   0.366 -0.4890 -0.1747 -0.2381
  142MOL   C15522997   2.224   2.769   0.329 -0.2294  0.2767 -0.3975
  142MOL   C15622998   2.367   2.739   0.294  0.3918  0.0773 -0.4129
  142MOL   O15722999   2.462   2.803   0.339  0.2565  0.1221  0.1164
  142MOL   H15823000   2.259   2.996   0.345 -1.1755  0.7790  1.1781
  142MOL   H15923001   2.097   2.940   0.316  0.2075  3.6441  0.2997
  142MOL   H16023002   2.170   2.747   0.237 -0.1976  0.7298 -0.5284
  142MOL   H16123003   2.180   2.697   0.398  0.8713  0.6699  0.7396
  142MOL   H16223004   2.388   2.650   0.235 -0.7767 -2.0682  2.3101
  143MOL     C123005   1.666   5.231   4.600 -0.4589 -0.3606  0.5826
  143MOL     C223006   1.582   5.356   4.565 -0.2156  1.1709  0.3579
  143MOL     C323007   1.577   5.461   4.677  0.4182  0.3315  0.1272
  143MOL     O423008   1.543   5.433   4.794 -0.1533  0.2131  0.0048
  143MOL     H523009   1.773   5.242   4.578 -0.9676 -0.9000 -2.2934
  143MOL     H623010   1.647   5.179   4.693 -0.0611 -2.0020 -0.2328
  143MOL     H723011   1.481   5.316   4.577  0.4247 -0.2116  1.3589
  143MOL     H823012   1.595   5.402   4.468  2.2157  2.4121  1.2380
  143MOL     H923013   1.626   5.173   4.517  0.2683  0.7860 -0.5876
  143MOL    C1023014   1.640   5.593   4.645  0.2294 -0.6872  0.0829
  143MOL    C1123015   1.784   5.618   4.701 -0.1754 -0.8717 -1.2805
  143MOL    C1223016   1.883   5.625   4.590 -0.0744 -0.5790 -0.7045
  143MOL    O1323017   1.853   5.569   4.486  0.2548 -0.1719  0.0407
  143MOL    H1423018   1.580   5.662   4.704 -0.3010 -0.8645 -0.2444
  143MOL    H1523019   1.630   5.622   4.540 -1.3107 -1.3163  0.0453
  143MOL    H1623020   1.809   5.537   4.769  0.4974 -1.8479 -2.6588
  143MOL    H1723021   1.804   5.709   4.757 -2.4557  1.1518 -3.6033
  143MOL    C1823022   2.028   5.674   4.615  0.3730 -0.1304  0.4344
  143MOL    C1923023   2.090   5.730   4.482  0.3301  0.1082  0.5258
  143MOL    C2023024   2.047   5.869   4.442 -0.4839 -0.2037  1.1095
  143MOL    O2123025   1.965   5.929   4.509 -0.2337  0.3083  0.1551
  143MOL    H2223026   2.077   5.582   4.649  1.8011  0.6122  0.4247
  143MOL    H2323027   2.026   5.727   4.711  0.8261 -0.7075  0.7680
  143MOL    H2423028   2.070   5.663   4.398  1.7018  2.9237 -2.1416
  143MOL    H2523029   2.195   5.735   4.512 -0.3725  1.7137  2.8023
  143MOL    C2623030   2.115   5.930   4.314  0.4663 -0.5511 -0.2906
  143MOL    C2723031   2.081   6.081   4.305 -0.3597 -0.0658 -0.1645
  143MOL    C2823032   2.079   6.141   4.165  0.0177 -0.0399 -0.3115
  143MOL    O2923033   2.142   6.094   4.069  0.2888 -0.0524  0.4108
  143MOL    H3023034   2.080   5.873   4.229  0.9521 -0.9391 -0.2335
  143MOL    H3123035   2.223   5.924   4.329  0.8077 -0.1142 -2.4555
  143MOL    H3223036   2.150   6.135   4.369  0.0492 -0.2285 -0.4670
  143MOL    H3323037   1.976   6.089   4.334 -0.3080  0.4856 -0.1311
  143MOL    C3423038   1.993   6.265   4.159 -0.4700 -0.0617  0.4073
  143MOL    C3523039   2.058   6.370   4.064  0.2747 -0.0671 -0.0256
  143MOL    C3623040   2.163   6.465   4.136 -0.5438  0.1220  0.6685
  143MOL    O3723041   2.185   6.455   4.256  0.8010 -0.0456  0.1222
  143MOL    H3823042   1.980   6.291   4.264 -1.4846  3.3292 -0.4890
  143MOL    H3923043   1.893   6.253   4.116  0.8105  0.9894 -3.0419
  143MOL    H4023044   1.987   6.430   4.007  0.9284  0.6375 -0.1013
  143MOL    H4123045   2.113   6.321   3.984 -0.9372  0.6000 -1.2785
  143MOL    C4223046   2.243   6.564   4.043 -0.0434 -0.2980 -0.0902
  143MOL    C4323047   2.217   6.714   4.089  0.6790 -0.3130  0.6728
  143MOL    C4423048   2.092   6.769   4.020 -0.0592 -0.3517 -0.1424
  143MOL    O4523049   2.028   6.701   3.942  0.1070 -0.4397  0.1544
  143MOL    H4623050   2.219   6.557   3.937 -3.2339  1.1833  0.4780
  143MOL    H4723051   2.349   6.539   4.050  0.4663  2.2427  1.8652
  143MOL    H4823052   2.296   6.783   4.059  0.3152  0.2074  0.9054
  143MOL    H4923053   2.198   6.721   4.196  0.4683  1.2804  0.5357
  143MOL    C5023054   2.075   6.920   4.034 -0.5872 -0.2443  0.2581
  143MOL    C5123055   1.927   6.958   4.001  0.5744 -0.1237 -0.2508
  143MOL    C5223056   1.845   6.955   4.132  0.1104  0.8269  1.1005
  143MOL    O5323057   1.889   6.903   4.229 -0.4447  0.1088 -0.8422
  143MOL    H5423058   2.153   6.953   3.966 -1.2528 -0.7517 -0.7649
  143MOL    H5523059   2.098   6.962   4.132  0.6350 -0.3308  0.0143
  143MOL    H5623060   1.882   6.883   3.936 -1.3014 -0.8601  1.8421
  143MOL    H5723061   1.916   7.053   3.949 -0.2327 -0.1934 -0.2095
  143MOL    C5823062   1.710   7.015   4.142  0.7868  0.1380 -0.3427
  143MOL    C5923063   1.626   6.993   4.273  0.2469  0.0709 -0.7681
  143MOL    C6023064   1.654   7.093   4.383 -0.3874  0.2560 -0.5462
  143MOL    O6123065   1.609   7.212   4.379  0.0074 -0.9723 -0.4545
  143MOL    H6223066   1.645   6.984   4.060  0.6649  2.5444 -1.1834
  143MOL    H6323067   1.739   7.119   4.132  3.5672 -0.6690 -1.3829
  143MOL    H6423068   1.632   6.895   4.319  1.5598  1.0652  1.2565
  143MOL    H6523069   1.521   7.002   4.247  0.6897  1.0600 -2.3564
  143MOL    C6623070   1.727   7.048   4.511 -0.1334 -0.7207 -0.0084
  143MOL    C6723071   1.674   7.113   4.637 -0.3504 -0.2972  0.4492
  143MOL    C6823072   1.734   7.050   4.761 -0.4676  0.1842 -0.5693
  143MOL    O6923073   1.824   6.968   4.764 -0.3261 -0.6385 -0.6350
  143MOL    H7023074   1.833   7.071   4.499 -0.4113 -0.0148 -1.2178
  143MOL    H7123075   1.708   6.942   4.526 -4.8421  0.0040 -0.2449
  143MOL    H7223076   1.567   7.107   4.656 -0.8250 -2.7786 -2.5979
  143MOL    H7323077   1.702   7.219   4.637 -1.0634 -0.1059  0.1236
  143MOL    C7423078   1.692   7.105   4.899  0.1385 -0.5673  0.3535
  143MOL    C7523079   1.800   7.136   4.995 -0.1049  0.4437  0.0066
  143MOL    C7623080   1.772   7.075   5.126 -0.2348 -0.5982  0.0116
  143MOL    O7723081   1.687   7.122   5.201 -0.1053 -0.9769  0.3046
  143MOL    H7823082   1.630   7.028   4.945 -2.1320  1.5949  1.0711
  143MOL    H7923083   1.632   7.195   4.880  0.2817 -0.6977 -0.7919
  143MOL    H8023084   1.802   7.244   5.005 -1.7896  0.4987 -0.1020
  143MOL    H8123085   1.898   7.100   4.965  1.5095  3.5181  1.4767
  143MOL    C8223086   1.833   6.946   5.159  0.3199  0.8040 -0.1478
  143MOL    C8323087   1.905   6.944   5.296 -0.1548  0.1848 -0.6028
  143MOL    C8423088   2.053   6.936   5.272 -0.1151 -0.3328  0.5389
  143MOL    O8523089   2.113   7.022   5.207  0.7247  1.0525 -0.2989
  143MOL    H8623090   1.897   6.918   5.076 -0.7836  1.3744 -1.2108
  143MOL    H8723091   1.747   6.879   5.162  0.6372  0.4452  1.3002
  143MOL    H8823092   1.868   6.855   5.345 -0.5749 -0.8091 -2.6714
  143MOL    H8923093   1.897   7.032   5.360  1.2780 -0.0026 -0.1386
  143MOL    C9023094   2.128   6.819   5.348 -0.0456 -0.0047  0.0093
  143MOL    C9123095   2.267   6.796   5.282 -0.3316  0.4709  0.2564
  143MOL    C9223096   2.368   6.885   5.350  0.1720  0.0918 -0.0300
  143MOL    O9323097   2.359   6.944   5.459 -0.2919  0.1534 -0.2690
  143MOL    H9423098   2.067   6.733   5.318 -0.8124  0.6340 -0.2758
  143MOL    H9523099   2.140   6.827   5.456 -1.5103  1.0330  0.1052
  143MOL    H9623100   2.263   6.820   5.176 -0.3484 -0.9528 -0.0695
  143MOL    H9723101   2.299   6.692   5.284  1.2146  0.9378  1.2826
  143MOL    C9823102   2.503   6.891   5.277 -0.2278 -0.2595  0.3331
  143MOL    C9923103   2.587   7.023   5.279  0.6013  0.1057 -0.2189
  143MOL   C10023104   2.638   7.074   5.140  0.5726  0.9107 -0.7455
  143MOL   O10123105   2.588   7.039   5.033  0.5197  0.1234  0.0225
  143MOL   H10223106   2.483   6.854   5.177 -1.6185  0.1970  0.4280
  143MOL   H10323107   2.559   6.808   5.320  0.9918 -1.8424 -4.1074
  143MOL   H10423108   2.674   7.005   5.342 -0.3352  0.6370  1.2556
  143MOL   H10523109   2.541   7.115   5.314  0.6574  1.3629 -3.3322
  143MOL   C10623110   2.738   7.186   5.148 -0.0411  0.2885  0.4678
  143MOL   C10723111   2.690   7.309   5.062 -0.0760 -0.1856 -0.3311
  143MOL   C10823112   2.809   7.375   4.987  0.5477  0.8366 -0.3779
  143MOL   O10923113   2.911   7.315   4.957  0.3930 -0.5022  0.4713
  143MOL   H11023114   2.836   7.149   5.120 -0.3174  1.0120 -1.5541
  143MOL   H11123115   2.752   7.221   5.250 -0.2578 -0.3730  0.7292
  143MOL   H11223116   2.644   7.389   5.120 -1.9247 -1.2185 -0.3428
  143MOL   H11323117   2.629   7.273   4.979 -0.2419 -2.7598  0.8560
  143MOL   C11423118   2.796   7.523   4.951  0.5284  0.3258 -0.8830
  143MOL   C11523119   2.857   7.547   4.815  0.2685  0.6240  0.7893
  143MOL   C11623120   2.827   7.686   4.773 -0.0568 -0.3652  0.4687
  143MOL   O11723121   2.722   7.720   4.724  0.3475  0.6286  0.0896
  143MOL   H11823122   2.837   7.582   5.033  0.0512  0.4127 -0.7075
  143MOL   H11923123   2.689   7.544   4.952  0.3127 -0.7924  1.7850
  143MOL   H12023124   2.828   7.462   4.753 -0.2476  0.1625  1.6521
  143MOL   H12123125   2.965   7.540   4.821  0.2144 -0.1161  0.9070
  143MOL   C12223126   2.938   7.787   4.789 -0.2339 -0.4601  0.5941
  143MOL   C12323127   2.934   0.038   4.691  0.8770 -0.1032  0.3062
  143MOL   C12423128   3.029   0.153   4.718 -0.0190  0.2106 -0.2854
  143MOL   O12523129   3.139   0.139   4.774  0.1055 -0.1721  0.0677
  143MOL   H12623130   3.039   7.746   4.776  1.4771  2.6219  3.2259
  143MOL   H12723131   2.930   7.820   4.893  0.2494  0.2464  0.4159
  143MOL   H12823132   2.829   0.068   4.692  0.3820 -1.7705  1.3191
  143MOL   H12923133   2.962   0.006   4.591  0.4687  3.1510 -0.9119
  143MOL   C13023134   2.990   0.278   4.658 -0.0101 -0.3549 -0.1044
  143MOL   C13123135   3.083   0.398   4.692 -0.6159 -0.8985 -0.2742
  143MOL   C13223136   3.167   0.450   4.575  0.3252  0.2381 -0.2333
  143MOL   O13323137   3.202   0.379   4.478  0.2421 -0.2827  0.2372
  143MOL   H13423138   2.885   0.302   4.675 -0.0057  1.1298 -2.0785
  143MOL   H13523139   2.999   0.262   4.551  0.3154 -1.4516  0.0764
  143MOL   H13623140   3.134   0.378   4.786  2.5803 -0.0994 -1.7902
  143MOL   H13723141   3.014   0.480   4.712 -1.3495 -2.2735  3.2100
  143MOL   C13823142   3.215   0.588   4.594 -0.1243 -0.4079 -0.6753
  143MOL   C13923143   3.302   0.641   4.478 -0.1536  0.5833  0.3447
  143MOL   C14023144   3.249   0.766   4.408 -0.4572 -0.8527 -0.1205
  143MOL   O14123145   3.137   0.802   4.420 -0.0089 -0.4332 -0.1311
  143MOL   H14223146   3.280   0.570   4.680  1.4104  1.3288 -1.4650
  143MOL   H14323147   3.130   0.652   4.619 -0.0976 -1.1154  1.3568
  143MOL   H14423148   3.288   0.574   4.393  0.6372 -1.1565  1.5354
  143MOL   H14523149   3.409   0.638   4.498  0.2627 -1.6143 -1.9525
  143MOL   C14623150   3.339   0.840   4.311  0.7466  0.2153 -0.7770
  143MOL   C14723151   3.378   0.755   4.186  0.2837 -0.1553 -0.1286
  143MOL   C14823152   3.440   0.842   4.077 -0.7160 -0.1682 -0.4476
  143MOL   O14923153   3.370   0.893   3.981 -0.2027  0.0067  0.5358
  143MOL   H15023154   3.430   0.877   4.355 -0.1458  1.0569  0.3722
  143MOL   H15123155   3.279   0.922   4.272  0.8711  1.1637  0.9902
  143MOL   H15223156   3.298   0.704   4.133  1.5088 -2.7338  0.4374
  143MOL   H15323157   3.454   0.679   4.205  2.3503  1.4972 -1.5493
  143MOL   C15423158   3.587   0.873   4.103 -0.4909 -0.2240 -0.4321
  143MOL   C15523159   3.631   0.993   4.030 -0.4148  0.6957 -0.0437
  143MOL   C15623160   3.752   1.078   4.085  0.0438  0.1240  0.3989
  143MOL   O15723161   3.858   1.027   4.100 -0.4823 -0.0355  0.4358
  143MOL   H15823162   3.644   0.788   4.066  2.7323  2.1910 -1.3174
  143MOL   H15923163   3.602   0.877   4.211  2.4973  3.7328 -0.8905
  143MOL   H16023164   3.552   1.067   4.040 -1.0127  0.1717 -0.8607
  143MOL   H16123165   3.638   0.983   3.922  1.0101 -2.1230  0.2663
  143MOL   H16223166   3.733   1.185   4.076 -2.0732 -0.3341 -1.0052
  144MOL     C123167   1.740   2.371   6.739  0.2353  0.6744 -0.0357
  144MOL     C223168   1.666   2.277   6.646  0.2153  0.7476  0.4168
  144MOL     C323169   1.728   2.270   6.506  0.1716 -0.2153  0.2660
  144MOL     O423170   1.821   2.347   6.478  0.4536 -0.1053  0.0661
  144MOL     H523171   1.755   2.469   6.694  1.6786  1.8903  2.8931
  144MOL     H623172   1.703   2.369   6.842  1.4839 -2.5796  0.4383
  144MOL     H723173   1.562   2.303   6.624 -0.3944 -0.4360  1.7765
  144MOL     H823174   1.663   2.183   6.701  0.3571  0.6602  0.2729
  144MOL     H923175   1.846   2.344   6.744  0.6859  2.5166  0.8083
  144MOL    C1023176   1.697   2.153   6.422  0.9720 -0.7190 -0.4419
  144MOL    C1123177   1.807   2.110   6.331 -0.0914 -0.0758  0.2644
  144MOL    C1223178   1.798   2.174   6.197  0.6983 -0.3137 -0.0262
  144MOL    O1323179   1.724   2.128   6.113 -0.2278  0.3793 -0.0305
  144MOL    H1423180   1.605   2.152   6.364  1.1458 -2.2993 -0.7112
  144MOL    H1523181   1.677   2.067   6.486  1.0742 -0.1763  0.3199
  144MOL    H1623182   1.799   2.002   6.325 -3.7213  0.1261  0.2779
  144MOL    H1723183   1.904   2.123   6.379  0.1279 -0.8580  0.0355
  144MOL    C1823184   1.903   2.278   6.157  0.3670  0.6216  0.8478
  144MOL    C1923185   1.850   2.384   6.058 -0.3607 -0.1319  0.3260
  144MOL    C2023186   1.884   2.350   5.913  0.4734 -0.4643  0.1728
  144MOL    O2123187   1.981   2.284   5.889 -0.1250 -0.0721 -0.3144
  144MOL    H2223188   1.990   2.228   6.116 -0.3379  0.8209 -0.9816
  144MOL    H2323189   1.934   2.327   6.249  0.6553  1.1893  0.4506
  144MOL    H2423190   1.894   2.482   6.077 -2.7080  1.1656 -0.6908
  144MOL    H2523191   1.741   2.388   6.059 -0.4503 -2.4426  2.3527
  144MOL    C2623192   1.787   2.403   5.799  0.8894 -0.0876 -0.4879
  144MOL    C2723193   1.742   2.287   5.701  0.4479 -0.1337  0.4397
  144MOL    C2823194   1.627   2.203   5.752  0.0705  0.4580 -0.5599
  144MOL    O2923195   1.582   2.226   5.863  0.0045  0.2238  0.2153
  144MOL    H3023196   1.843   2.486   5.755  1.4549 -0.1626  0.0791
  144MOL    H3123197   1.702   2.449   5.849  0.3685 -0.3039 -1.1596
  144MOL    H3223198   1.826   2.221   5.675  1.7740  2.5661 -2.3701
  144MOL    H3323199   1.720   2.336   5.606  0.3623 -0.4614  0.2887
  144MOL    C3423200   1.551   2.107   5.659  0.6999 -0.3505 -0.8963
  144MOL    C3523201   1.449   2.013   5.729  0.9220  0.2569  0.6266
  144MOL    C3623202   1.318   2.080   5.764  0.4101 -0.3948  0.4829
  144MOL    O3723203   1.256   2.146   5.683  0.1353 -0.4755  0.3264
  144MOL    H3823204   1.642   2.055   5.628  1.5670  1.7212 -1.9479
  144MOL    H3923205   1.514   2.162   5.573  0.7716  0.7051 -0.2500
  144MOL    H4023206   1.487   1.974   5.824  1.2450 -1.9551 -0.3749
  144MOL    H4123207   1.434   1.923   5.670 -2.6599  1.5946 -0.5983
  144MOL    C4223208   1.265   2.063   5.903  0.4578 -0.3885 -0.2368
  144MOL    C4323209   1.291   2.192   5.981  0.0504 -0.0994 -0.4777
  144MOL    C4423210   1.329   2.168   6.127 -0.5428  0.4667  0.1882
  144MOL    O4523211   1.317   2.056   6.181  0.1781 -0.0424  0.1066
  144MOL    H4623212   1.324   1.981   5.944  1.2403 -0.5623 -1.6799
  144MOL    H4723213   1.160   2.038   5.895  0.8020 -1.9482 -0.0748
  144MOL    H4823214   1.200   2.249   5.964 -0.3858 -0.9248 -0.9776
  144MOL    H4923215   1.378   2.243   5.942  0.2626  0.3158  0.5364
  144MOL    C5023216   1.378   2.289   6.206  0.0260  0.0115 -0.1114
  144MOL    C5123217   1.325   2.290   6.348  0.8756  0.2020  0.1987
  144MOL    C5223218   1.339   2.423   6.428 -0.3959  0.5268 -0.3328
  144MOL    O5323219   1.420   2.509   6.398 -0.5267 -0.2171  0.2955
  144MOL    H5423220   1.344   2.380   6.157  1.3185  0.1041 -0.8460
  144MOL    H5523221   1.487   2.280   6.203  0.1323  0.3825  1.7379
  144MOL    H5623222   1.379   2.209   6.397 -1.5149 -1.2064  0.5911
  144MOL    H5723223   1.219   2.266   6.358  1.3118 -1.5533  0.7291
  144MOL    C5823224   1.227   2.457   6.533 -1.0168  0.2732  0.2152
  144MOL    C5923225   1.269   2.409   6.670  0.1550 -0.3499  0.6025
  144MOL    C6023226   1.158   2.434   6.776  0.0526  0.5725 -0.3000
  144MOL    O6123227   1.149   2.543   6.827  0.1383  0.1395  0.2918
  144MOL    H6223228   1.129   2.410   6.517 -1.1608  0.1574  1.3680
  144MOL    H6323229   1.198   2.562   6.532  2.3352  1.2377 -0.2840
  144MOL    H6423230   1.351   2.472   6.705  0.5756  0.5630 -1.8843
  144MOL    H6523231   1.305   2.306   6.668  1.5684  0.1404  0.4475
  144MOL    C6623232   1.068   2.314   6.807 -0.0837 -0.8433 -0.4221
  144MOL    C6723233   0.968   2.348   6.917  0.5497  0.0987 -0.2646
  144MOL    C6823234   0.906   2.213   6.965  0.1427  0.5444 -0.2062
  144MOL    O6923235   0.957   2.102   6.943  0.2342 -0.2697  0.1653
  144MOL    H7023236   1.136   2.237   6.843 -2.6822 -2.6249  0.8258
  144MOL    H7123237   1.014   2.285   6.717 -1.0314 -1.2872  0.2909
  144MOL    H7223238   0.890   2.414   6.878 -0.7901 -2.7043 -2.4589
  144MOL    H7323239   1.005   2.407   7.002  1.7299 -0.9821 -0.0162
  144MOL    C7423240   0.777   2.221   7.047 -0.5785 -0.0600  0.2246
  144MOL    C7523241   0.769   2.100   7.146  0.4452 -0.3735 -0.4165
  144MOL    C7623242   0.657   2.007   7.124 -0.2356 -0.0012  0.0665
  144MOL    O7723243   0.556   2.032   7.058  0.4114 -0.1954  0.7848
  144MOL    H7823244   0.688   2.233   6.985  0.2802  2.0876 -0.6343
  144MOL    H7923245   0.775   2.309   7.110  2.1924  1.2432 -1.4296
  144MOL    H8023246   0.749   2.142   7.244 -0.0296 -1.2693 -0.1228
  144MOL    H8123247   0.860   2.041   7.147  0.9286  0.3626 -0.3644
  144MOL    C8223248   0.669   1.876   7.198  0.3029  0.2388 -0.0879
  144MOL    C8323249   0.545   1.790   7.174 -0.3867 -0.2659 -0.1582
  144MOL    C8423250   0.552   1.666   7.267 -0.3436  0.0412 -0.2943
  144MOL    O8523251   0.666   1.617   7.280 -0.4866  0.1617 -0.3422
  144MOL    H8623252   0.676   1.900   7.303 -1.2341  1.0038 -0.1376
  144MOL    H8723253   0.764   1.827   7.177  0.6606  1.4456 -1.3777
  144MOL    H8823254   0.553   1.753   7.071  3.5606  1.0471 -0.4178
  144MOL    H8923255   0.455   1.850   7.187  1.3165  2.3502 -0.1262
  144MOL    C9023256   0.422   1.611   7.326  0.3509  0.1339 -0.2650
  144MOL    C9123257   0.438   1.490   7.416 -0.4779 -0.1112 -0.5294
  144MOL    C9223258   0.360   1.362   7.378 -0.1908  0.2747  0.3542
  144MOL    O9323259   0.306   1.336   7.268 -0.4232 -0.4249 -0.0528
  144MOL    H9423260   0.360   1.568   7.247  0.8692 -1.4951  0.1940
  144MOL    H9523261   0.357   1.685   7.372 -0.0415 -0.7981  0.7009
  144MOL    H9623262   0.431   1.511   7.522 -1.3796  3.1704 -1.1557
  144MOL    H9723263   0.544   1.463   7.411 -1.0263 -2.3392 -0.2703
  144MOL    C9823264   0.340   1.264   7.491  0.0096 -0.6867  0.2077
  144MOL    C9923265   0.330   1.120   7.439 -0.1763 -0.3446 -0.4424
  144MOL   C10023266   0.191   1.086   7.400  0.4218 -0.0279 -0.3884
  144MOL   O10123267   0.097   1.105   7.477 -0.2475  0.5476  0.0822
  144MOL   H10223268   0.242   1.286   7.534 -0.2403  2.6390 -1.9483
  144MOL   H10323269   0.423   1.287   7.558  2.3682 -2.7799 -1.8966
  144MOL   H10423270   0.353   1.064   7.530 -0.7821  1.1554  0.6596
  144MOL   H10523271   0.402   1.107   7.358 -0.9902 -0.7713 -1.1005
  144MOL   C10623272   0.171   1.017   7.269  0.0800 -0.6812  0.0777
  144MOL   C10723273   0.040   1.069   7.201  0.4885 -0.2625 -0.0124
  144MOL   C10823274   7.798   0.962   7.161  0.1591 -0.2086  0.9831
  144MOL   O10923275   7.813   0.847   7.201  0.4092  0.7589  0.3648
  144MOL   H11023276   0.183   0.911   7.292 -1.9037 -1.0234 -0.4479
  144MOL   H11123277   0.254   1.038   7.202  0.2081  0.4302  0.5720
  144MOL   H11223278   0.072   1.123   7.112  1.5998 -1.4390 -0.3543
  144MOL   H11323279   7.840   1.144   7.254  1.9555  1.3248 -0.6048
  144MOL   C11423280   7.706   1.005   7.047 -0.4601 -0.2178  0.3203
  144MOL   C11523281   7.579   1.054   7.104  0.8203 -0.1853  0.2787
  144MOL   C11623282   7.563   1.206   7.108 -0.7458  0.2740  0.8835
  144MOL   O11723283   7.659   1.282   7.108  0.5055  0.1003 -0.1514
  144MOL   H11823284   7.684   0.924   6.977  2.7082  0.1189 -1.1559
  144MOL   H11923285   7.754   1.079   6.983 -2.2392  0.6545 -0.0386
  144MOL   H12023286   7.557   1.007   7.200 -1.4472  0.3788  0.0538
  144MOL   H12123287   7.496   1.021   7.041  0.7048 -1.6054  1.1605
  144MOL   C12223288   7.416   1.252   7.103 -0.4069 -0.2692  0.3665
  144MOL   C12323289   7.399   1.390   7.037  0.1069 -0.2193  0.2700
  144MOL   C12423290   7.314   1.481   7.122 -0.4181 -0.2095  0.0292
  144MOL   O12523291   7.327   1.472   7.245  0.1435 -0.1483  0.0935
  144MOL   H12623292   7.378   1.240   7.205  0.2509 -0.8404  0.5447
  144MOL   H12723293   7.364   1.183   7.036  0.9746 -0.5014 -0.4824
  144MOL   H12823294   7.354   1.385   6.938  0.4239  1.1888  0.0398
  144MOL   H12923295   7.498   1.436   7.032  0.0797 -0.2013 -0.2103
  144MOL   C13023296   7.241   1.603   7.072  0.0292 -0.1590 -0.5794
  144MOL   C13123297   7.212   1.728   7.165 -0.5069  0.0030 -0.1357
  144MOL   C13223298   7.336   1.815   7.175 -0.2138  0.5132 -0.2879
  144MOL   O13323299   7.440   1.765   7.132  0.2041  0.1450 -0.1720
  144MOL   H13423300   7.140   1.570   7.047 -0.3403  2.4382 -2.7383
  144MOL   H13523301   7.285   1.645   6.981  1.7863 -1.3612 -0.3152
  144MOL   H13623302   7.178   1.695   7.263  0.1049 -0.4590 -0.0788
  144MOL   H13723303   7.136   1.788   7.114  0.6635  0.6838 -1.0984
  144MOL   C13823304   7.330   1.946   7.252 -0.1294 -1.4265 -0.1704
  144MOL   C13923305   7.465   1.987   7.305 -0.1091 -0.5183 -0.0120
  144MOL   C14023306   7.493   1.973   7.460 -0.4695 -0.2969  0.3859
  144MOL   O14123307   7.411   1.985   7.549 -0.1111  1.0786 -0.3517
  144MOL   H14223308   7.268   1.915   7.336  0.1942 -3.3166 -0.6016
  144MOL   H14323309   7.293   2.032   7.196 -0.4695  0.4639  2.8996
  144MOL   H14423310   7.460   2.095   7.292  0.5521 -0.5140 -0.2571
  144MOL   H14523311   7.544   1.937   7.249 -2.2160 -2.7736 -1.0982
  144MOL   C14623312   7.639   1.942   7.490  0.5720  0.2859 -0.3874
  144MOL   C14723313   7.678   1.939   7.645  0.1587  0.4142  0.6209
  144MOL   C14823314   7.741   2.072   7.701 -0.4887 -0.7423  0.2783
  144MOL   O14923315   7.825   2.144   7.650 -0.0584  0.0093 -0.2442
  144MOL   H15023316   7.697   2.022   7.444  3.3883 -1.0828  0.6704
  144MOL   H15123317   7.667   1.846   7.446  3.5571  0.2163  1.5017
  144MOL   H15223318   7.760   1.867   7.650  0.2373  0.4088 -0.6632
  144MOL   H15323319   7.610   1.897   7.719  0.4655  0.6340  1.0337
  144MOL   C15423320   7.685   2.104   7.838 -0.0428  0.5481  0.7924
  144MOL   C15523321   7.571   2.197   7.838  0.7783 -0.1115  0.2855
  144MOL   C15623322   7.431   2.128   7.852 -0.1640  0.5067 -0.1874
  144MOL   O15723323   7.413   2.065   0.099 -0.0817 -0.1141 -0.4004
  144MOL   H15823324   7.770   2.136   0.039  2.0304 -2.3789 -0.4399
  144MOL   H15923325   7.657   2.009   0.023  0.8853  0.3500  0.9653
  144MOL   H16023326   7.570   2.259   7.748 -0.7932  0.5750  0.7627
  144MOL   H16123327   7.592   2.256   0.069 -0.0903 -0.5665  0.7906
  144MOL   H16223328   7.366   2.137   7.765  1.4899 -1.9706 -1.7453
  145MOL     C123329   0.064   6.571   1.778 -0.3184 -0.4014 -0.1236
  145MOL     C223330   7.816   6.597   1.669  0.4371 -0.5967  0.1590
  145MOL     C323331   0.010   6.558   1.529  0.0624 -0.0706  0.1162
  145MOL     O423332   0.121   6.513   1.504 -0.0299  0.0649  0.1090
  145MOL     H523333   0.160   6.610   1.746  0.4118 -1.4468  0.7635
  145MOL     H623334   0.051   6.633   1.867  1.4765  0.0236 -0.1392
  145MOL     H723335   7.785   6.701   1.665 -0.5290 -0.8784  0.3530
  145MOL     H823336   7.732   6.534   1.696 -0.7559  0.6033 -0.7339
  145MOL     H923337   0.076   6.468   1.813 -0.6476 -0.1897  0.6179
  145MOL    C1023338   7.779   6.588   1.412  0.4180 -0.1077  0.5087
  145MOL    C1123339   7.803   6.493   1.288 -0.4136  0.0120 -0.3487
  145MOL    C1223340   7.827   6.570   1.161 -0.3871  0.6768 -0.0460
  145MOL    O1323341   0.067   6.647   1.146 -0.7657 -0.1061 -0.3316
  145MOL    H1423342   7.802   6.694   1.399  1.6660 -0.4683 -0.3686
  145MOL    H1523343   7.675   6.586   1.442  0.3618 -0.7453  0.2721
  145MOL    H1623344   7.715   6.430   1.279 -1.2138  0.7809  1.8233
  145MOL    H1723345   0.029   6.427   1.305  0.7280  1.6224  0.3234
  145MOL    C1823346   7.716   6.557   1.061 -0.1847  0.2163  0.0986
  145MOL    C1923347   7.752   6.605   0.917 -0.1282 -0.6931 -0.7697
  145MOL    C2023348   7.832   6.509   0.830  0.7841  0.1813 -0.3758
  145MOL    O2123349   0.068   6.445   0.872  0.0371 -0.2219 -0.0245
  145MOL    H2223350   7.623   6.602   1.096 -0.6848 -0.1305 -0.7648
  145MOL    H2323351   7.680   6.455   1.055  0.8904 -0.2211  0.9153
  145MOL    H2423352   7.810   6.697   0.915 -3.9986  1.8586  0.1191
  145MOL    H2523353   7.657   6.631   0.870 -1.2541 -2.8487  0.2550
  145MOL    C2623354   7.785   6.494   0.682  0.5880  0.3814 -0.3309
  145MOL    C2723355   0.006   6.397   0.602 -0.0477 -0.2626  0.0357
  145MOL    C2823356   7.815   6.393   0.459 -0.2092 -0.5419  0.1516
  145MOL    O2923357   7.725   6.469   0.417 -0.4999 -0.3536  0.1541
  145MOL    H3023358   7.789   6.594   0.637 -3.0314 -0.1518 -2.0344
  145MOL    H3123359   7.677   6.482   0.687  0.5519  1.6033  3.1446
  145MOL    H3223360   7.842   6.302   0.650 -1.8025 -0.5894 -1.3987
  145MOL    H3323361   0.115   6.395   0.610  0.0178 -0.4711 -0.9145
  145MOL    C3423362   0.025   6.298   0.365  0.3010  0.1034  0.0428
  145MOL    C3523363   7.839   6.155   0.387  0.1314  0.4582  0.0883
  145MOL    C3623364   0.031   6.056   0.279  0.7063 -0.9054 -0.5434
  145MOL    O3723365   0.040   6.086   0.163  0.1700 -0.0059  0.2533
  145MOL    H3823366   0.133   6.309   0.375  0.2751 -0.7877  1.3604
  145MOL    H3923367   0.016   6.327   0.261  0.7904  0.5155  0.1143
  145MOL    H4023368   7.730   6.154   0.388  0.1313 -1.3803  1.2803
  145MOL    H4123369   0.009   6.113   0.484  0.2527  1.3734  0.4490
  145MOL    C4223370   0.105   5.934   0.330  0.1871  0.2981 -0.0051
  145MOL    C4323371   0.157   5.854   0.211 -0.0140 -0.2622  0.1358
  145MOL    C4423372   0.311   5.842   0.201  0.5460  0.5682 -0.6935
  145MOL    O4523373   0.376   5.792   0.294 -0.4015 -0.4257 -0.0056
  145MOL    H4623374   0.037   5.874   0.393  1.9043  0.5875  2.1925
  145MOL    H4723375   0.185   5.967   0.395  0.6741  2.7077 -1.7850
  145MOL    H4823376   0.123   5.874   0.109  1.6671  0.4416 -0.3103
  145MOL    H4923377   0.113   5.754   0.212  0.3040 -0.3896  2.2339
  145MOL    C5023378   0.371   5.855   0.060 -0.4155 -0.4358  0.1090
  145MOL    C5123379   0.494   5.764   0.037 -0.8071 -0.1152 -0.0836
  145MOL    C5223380   0.465   5.620   7.857 -0.1937  0.0965 -0.0850
  145MOL    O5323381   0.355   5.574   0.018  0.5642  0.4704  0.5820
  145MOL    H5423382   0.401   5.957   0.036  1.6345 -1.2963 -1.1041
  145MOL    H5523383   0.301   5.829   7.840 -0.1092 -2.0265  0.3416
  145MOL    H5623384   0.559   5.755   0.124 -0.2823  2.4706 -0.1695
  145MOL    H5723385   0.558   5.814   7.823 -0.6606  1.0014  0.8109
  145MOL    C5823386   0.572   5.533   7.783  0.0477  0.1300 -0.0984
  145MOL    C5923387   0.564   5.386   7.814  0.7833  0.0304 -0.1679
  145MOL    C6023388   0.615   5.295   7.704 -0.1604  0.9198 -0.2893
  145MOL    O6123389   0.673   5.337   7.603  0.7085  0.0806 -0.0415
  145MOL    H6223390   0.673   5.572   7.792 -0.1377  0.9196 -1.3793
  145MOL    H6323391   0.553   5.540   7.676 -0.1422  0.1519 -0.0627
  145MOL    H6423392   0.457   5.363   7.814  1.0204 -1.1080 -0.3124
  145MOL    H6523393   0.615   5.362   0.049 -0.1080  0.6911  0.4916
  145MOL    C6623394   0.580   5.147   7.725 -0.5357  0.2288 -0.2507
  145MOL    C6723395   0.691   5.056   7.669 -0.1725 -0.0308 -0.2301
  145MOL    C6823396   0.782   5.003   7.777 -0.1869 -0.1319 -0.4046
  145MOL    O6923397   0.771   5.029   0.038  0.5022 -0.5293 -0.3976
  145MOL    H7023398   0.483   5.122   7.681  0.0892 -3.2076  0.2462
  145MOL    H7123399   0.550   5.145   7.830 -1.6211  2.3465 -0.4831
  145MOL    H7223400   0.755   5.111   7.600  0.0916  0.5184  0.4447
  145MOL    H7323401   0.654   4.964   7.623 -0.3434 -1.0720  1.8916
  145MOL    C7423402   0.907   4.926   7.722 -0.7029  0.2172  0.6204
  145MOL    C7523403   1.038   4.940   7.809  0.5000  0.2198 -0.4730
  145MOL    C7623404   1.109   4.809   7.826 -0.8389  0.6267  0.9087
  145MOL    O7723405   1.061   4.700   7.791 -0.7584 -0.3137  0.3661
  145MOL    H7823406   0.926   4.955   7.619 -3.4735 -0.5262 -0.1496
  145MOL    H7923407   0.885   4.820   7.707  1.4326 -0.1094 -0.3929
  145MOL    H8023408   1.018   4.994   0.043  2.5166 -0.1614  0.2037
  145MOL    H8123409   1.115   5.000   7.761  0.8247 -0.7405 -1.1872
  145MOL    C8223410   1.245   4.816   0.039 -0.9124  0.2176  0.2975
  145MOL    C8323411   1.374   4.819   7.807 -0.3856 -0.2929  0.2652
  145MOL    C8423412   1.432   4.957   7.786  0.3613  0.3709  0.0251
  145MOL    O8523413   1.356   5.050   7.798 -0.8298 -0.6087  0.0100
  145MOL    H8623414   1.262   4.720   0.087  0.4226  0.5229  0.4626
  145MOL    H8723415   1.242   4.901   0.107 -0.2316  0.8837 -0.4881
  145MOL    H8823416   1.356   4.782   7.705 -1.1473 -0.0913  0.3237
  145MOL    H8923417   1.458   4.753   7.829 -0.7716 -0.4540  1.2634
  145MOL    C9023418   1.577   4.990   7.758  0.1646  0.2995  0.3739
  145MOL    C9123419   1.679   4.922   7.851 -0.1511 -0.0374 -0.1669
  145MOL    C9223420   1.734   4.786   7.823  0.2238 -0.9951 -0.1276
  145MOL    O9323421   1.704   4.684   0.029  0.2655 -0.0996  0.3131
  145MOL    H9423422   1.573   5.095   7.785 -4.7064  0.3395 -0.0700
  145MOL    H9523423   1.599   4.982   7.652 -0.7411  1.1842  0.1116
  145MOL    H9623424   1.632   4.921   0.090 -1.3427 -1.1046 -0.7336
  145MOL    H9723425   1.769   4.981   0.006 -0.8109  1.0235 -0.4008
  145MOL    C9823426   1.820   4.774   7.696 -0.1258 -0.3234  0.3855
  145MOL    C9923427   1.897   4.640   7.676 -0.3321 -0.2275 -0.0883
  145MOL   C10023428   1.844   4.559   7.560 -0.4575  0.0547  0.4103
  145MOL   O10123429   1.890   4.582   7.448  0.3261 -0.3767 -0.9076
  145MOL   H10223430   1.884   4.863   7.702 -1.5684  0.7888 -0.2657
  145MOL   H10323431   1.757   4.804   7.613  0.9945  1.4966  0.1431
  145MOL   H10423432   1.881   4.592   7.772  0.7570 -1.0774 -0.3142
  145MOL   H10523433   2.003   4.653   7.653 -0.9659 -0.9609 -3.9077
  145MOL   C10623434   1.741   4.446   7.574 -0.2282 -0.1883  0.0227
  145MOL   C10723435   1.810   4.314   7.533 -0.3304  0.3693 -0.0429
  145MOL   C10823436   1.755   4.228   7.416  0.1431 -0.3993  0.0924
  145MOL   O10923437   1.672   4.278   7.340 -0.2275 -0.1201  0.5200
  145MOL   H11023438   1.668   4.476   7.499 -0.0049 -0.0287 -0.1306
  145MOL   H11123439   1.694   4.433   7.671 -2.0558  1.1121 -0.6643
  145MOL   H11223440   1.819   4.251   7.622  1.4037 -0.3089 -0.6841
  145MOL   H11323441   1.914   4.336   7.509 -0.2996  0.2215 -0.0424
  145MOL   C11423442   1.818   4.102   7.374 -0.4209  0.0827  0.3045
  145MOL   C11523443   1.880   4.114   7.229 -0.1925 -0.3842  0.6346
  145MOL   C11623444   1.791   4.051   7.119 -0.0535  1.1421 -0.1914
  145MOL   O11723445   1.673   4.019   7.140  0.1888 -0.2048 -0.9433
  145MOL   H11823446   1.748   4.018   7.378  0.1514 -0.3730  0.8922
  145MOL   H11923447   1.891   4.062   7.445  0.4435 -0.9796 -1.1595
  145MOL   H12023448   1.980   4.071   7.234  0.4838  0.9086 -1.1097
  145MOL   H12123449   1.897   4.215   7.193 -1.1945 -0.3301  0.2852
  145MOL   C12223450   1.871   4.017   6.992 -0.2386  0.2417  0.2930
  145MOL   C12323451   1.781   3.964   6.878 -0.2838 -0.8472 -0.7683
  145MOL   C12423452   1.802   3.811   6.850 -0.0405 -0.7497 -0.0528
  145MOL   O12523453   1.859   3.741   6.932  0.1531 -0.3680 -0.0853
  145MOL   H12623454   1.959   3.957   7.013  0.5979  1.1384 -0.6224
  145MOL   H12723455   1.921   4.108   6.959 -0.9500 -0.3438 -2.5334
  145MOL   H12823456   1.792   4.017   6.783 -0.7702  1.9427  0.6592
  145MOL   H12923457   1.679   3.994   6.903  0.3198 -0.7755  1.7380
  145MOL   C13023458   1.769   3.757   6.713  0.3232 -0.4165  0.4546
  145MOL   C13123459   1.881   3.665   6.665  0.1028  0.5194 -0.7785
  145MOL   C13223460   1.918   3.670   6.517  0.2266  0.6751 -0.1915
  145MOL   O13323461   1.833   3.666   6.426  0.5143  0.8521  0.2098
  145MOL   H13423462   1.765   3.843   6.647 -0.2049  0.9345  2.2016
  145MOL   H13523463   1.669   3.715   6.716  1.0316 -2.1379  0.6717
  145MOL   H13623464   1.853   3.564   6.693 -0.0721  0.6747 -0.3902
  145MOL   H13723465   1.967   3.669   6.732 -1.1512  1.0236  0.8512
  145MOL   C13823466   2.065   3.685   6.486 -0.0118  0.3675  0.0538
  145MOL   C13923467   2.089   3.741   6.341  0.9259 -0.4980  0.6311
  145MOL   C14023468   2.238   3.755   6.308 -0.8832  0.2270 -0.7461
  145MOL   O14123469   2.322   3.817   6.376 -0.0484  0.0339  0.1460
  145MOL   H14223470   2.118   3.591   6.500  1.0550  0.8179 -0.8859
  145MOL   H14323471   2.112   3.755   6.554  0.8249 -1.1681  1.0678
  145MOL   H14423472   2.036   3.835   6.329  1.8533  0.2419  2.1267
  145MOL   H14523473   2.038   3.679   6.268 -0.8466 -1.9928  3.0623
  145MOL   C14623474   2.296   3.660   6.208 -0.2359 -0.1218 -0.1798
  145MOL   C14723475   2.448   3.615   6.229  0.2696 -0.9654  0.4272
  145MOL   C14823476   2.468   3.489   6.316  0.0711 -0.5527  0.3271
  145MOL   O14923477   2.371   3.413   6.342 -0.2055 -0.3080 -0.0404
  145MOL   H15023478   2.277   3.707   6.111 -1.0524  1.2015  0.5953
  145MOL   H15123479   2.226   3.578   6.195  0.2805 -0.3637 -1.4970
  145MOL   H15223480   2.497   3.701   6.276  0.6536 -0.7717 -0.3215
  145MOL   H15323481   2.498   3.604   6.133  1.7103  2.0533  0.7618
  145MOL   C15423482   2.609   3.463   6.370  1.0548  0.1519 -0.2859
  145MOL   C15523483   2.620   3.325   6.450 -0.7589 -0.3544 -0.1422
  145MOL   C15623484   2.766   3.297   6.484 -0.8644 -0.6026  0.2663
  145MOL   O15723485   2.823   3.362   6.576 -0.3445  0.1430  0.3867
  145MOL   H15823486   2.645   3.549   6.426  2.0718 -1.2372  1.2603
  145MOL   H15923487   2.676   3.448   6.285  2.3121 -1.8997  1.0028
  145MOL   H16023488   2.599   3.247   6.376 -2.3069 -1.6121  1.5727
  145MOL   H16123489   2.562   3.320   6.542 -0.0891 -0.8991  0.2656
  145MOL   H16223490   2.822   3.231   6.418  1.2733 -0.1085  1.5420
  146MOL     C123491   2.742   4.661   4.802  0.2988 -0.3161  0.1513
  146MOL     C223492   2.788   4.720   4.669  0.1910 -0.5634  0.2495
  146MOL     C323493   2.935   4.692   4.643  0.2583 -0.1401 -0.5526
  146MOL     O423494   2.978   4.580   4.671 -0.3840 -0.0657 -0.2814
  146MOL     H523495   2.794   4.723   4.874  0.5821 -0.2491 -0.1084
  146MOL     H623496   2.634   4.676   4.807  0.4820  1.1531 -0.1776
  146MOL     H723497   2.759   4.823   4.648  0.1532 -0.8980 -1.4352
  146MOL     H823498   2.738   4.668   4.588  4.3508 -0.7617 -2.3295
  146MOL     H923499   2.760   4.554   4.817 -0.2846 -0.2355  1.5368
  146MOL    C1023500   3.014   4.795   4.569 -1.0391 -0.0390 -0.2375
  146MOL    C1123501   3.167   4.792   4.579 -0.0704 -0.5434  0.2855
  146MOL    C1223502   3.238   4.893   4.486  0.1037 -0.0516 -0.4912
  146MOL    O1323503   3.190   4.939   4.383  0.6938 -0.2501  0.0559
  146MOL    H1423504   2.987   4.888   4.618 -1.4220 -1.5688  2.5599
  146MOL    H1523505   2.972   4.800   4.468  1.0505 -0.4502 -1.1686
  146MOL    H1623506   3.201   4.690   4.562 -1.3537 -1.0381  0.5939
  146MOL    H1723507   3.198   4.812   4.681 -2.4842  0.5594  0.8631
  146MOL    C1823508   3.374   4.942   4.532  0.3314  0.0879  0.0826
  146MOL    C1923509   3.440   5.035   4.430  0.4398  0.2323  0.7813
  146MOL    C2023510   3.590   5.043   4.466 -0.7632 -0.3712  0.4511
  146MOL    O2123511   3.633   5.153   4.504 -0.6934  0.5318  0.3537
  146MOL    H2223512   3.426   4.847   4.542 -0.6952 -0.3448  1.5486
  146MOL    H2323513   3.365   4.995   4.627  0.3821  2.8406 -1.4038
  146MOL    H2423514   3.376   5.124   4.439 -1.2819 -0.7945 -0.8805
  146MOL    H2523515   3.428   4.997   4.328 -0.0927 -1.7460  1.5626
  146MOL    C2623516   3.680   4.929   4.421  0.4290  0.3992  0.0306
  146MOL    C2723517   3.756   4.880   4.544 -0.0709  0.5118 -0.1942
  146MOL    C2823518   3.833   4.754   4.499 -0.7230 -0.4462 -0.4486
  146MOL    O2923519   3.834   4.706   4.385  0.1993 -0.1794 -0.0215
  146MOL    H3023520   3.752   4.954   4.343  0.6957  1.5837  0.6387
  146MOL    H3123521   3.608   4.856   4.383  1.3918 -0.9100  0.6461
  146MOL    H3223522   3.684   4.853   4.621 -1.5741 -0.4599 -1.8992
  146MOL    H3323523   3.822   4.956   4.586  0.8439  0.2175 -1.0654
  146MOL    C3423524   3.902   4.685   4.616  0.4327  0.1297  0.2695
  146MOL    C3523525   3.858   4.537   4.637 -0.6143 -0.5524  0.5643
  146MOL    C3623526   3.784   4.516   4.768  0.0877 -0.2523 -0.0349
  146MOL    O3723527   3.730   4.601   4.833 -0.5332 -0.6880  0.2074
  146MOL    H3823528   3.877   4.736   4.708  0.6173 -0.1113  0.4520
  146MOL    H3923529   4.009   4.696   4.604  0.8463 -4.1650 -0.9558
  146MOL    H4023530   3.938   4.463   4.624  0.4213  0.4255  1.3085
  146MOL    H4123531   3.773   4.516   4.572  1.3300 -0.7799 -1.9596
  146MOL    C4223532   3.790   4.372   4.834 -0.5047  0.1551  0.3019
  146MOL    C4323533   3.756   4.264   4.733 -0.0685 -0.1135 -0.5540
  146MOL    C4423534   3.794   4.129   4.787  0.1294  0.8907 -0.0887
  146MOL    O4523535   3.906   4.107   4.828  0.1570  0.2486 -0.2784
  146MOL    H4623536   3.744   4.356   4.931  0.0704 -1.2487  0.3633
  146MOL    H4723537   3.897   4.366   4.858 -0.6695  0.4859  1.1317
  146MOL    H4823538   3.810   4.288   4.641 -1.4050 -0.4264 -1.4271
  146MOL    H4923539   3.652   4.279   4.704  0.1178  0.8612 -0.7308
  146MOL    C5023540   3.678   4.029   4.798  0.3108 -0.0307 -0.5208
  146MOL    C5123541   3.740   3.891   4.845  0.3496 -0.8626  0.7002
  146MOL    C5223542   3.758   3.875   4.994 -0.2900  0.1617  0.3800
  146MOL    O5323543   3.695   3.950   5.065 -0.9398  0.3327  0.0194
  146MOL    H5423544   3.634   4.002   4.702  0.7230  1.1000 -1.0316
  146MOL    H5523545   3.616   4.077   4.874 -0.4494 -0.1530 -1.0636
  146MOL    H5623546   3.824   3.863   4.783 -0.2593  0.2913 -0.6673
  146MOL    H5723547   3.668   3.813   4.818  1.3411 -0.9947 -1.6422
  146MOL    C5823548   3.846   3.762   5.051 -0.9240  0.5799 -0.3587
  146MOL    C5923549   3.865   3.759   5.197  0.2530 -0.4744  1.0061
  146MOL    C6023550   3.936   3.636   5.252 -0.7986  0.2495 -0.2149
  146MOL    O6123551   3.967   3.539   5.178  0.7332 -0.7313 -0.9942
  146MOL    H6223552   3.934   3.758   4.988 -0.3333 -1.8592  0.5962
  146MOL    H6323553   3.787   3.674   5.025 -2.0128  1.8694 -2.4188
  146MOL    H6423554   3.776   3.789   5.254  0.4689  0.2980  0.9441
  146MOL    H6523555   3.936   3.839   5.216 -1.3140  1.6241 -1.5704
  146MOL    C6623556   3.986   3.642   5.391  0.6055  0.6591  0.1795
  146MOL    C6723557   4.057   3.516   5.443  0.2957  0.4004  0.0542
  146MOL    C6823558   3.972   3.417   5.525  0.0202 -0.0495  0.1699
  146MOL    O6923559   3.854   3.443   5.552 -0.7926 -0.0975  0.9515
  146MOL    H7023560   3.903   3.671   5.456 -1.4451  0.2056 -2.1895
  146MOL    H7123561   4.064   3.718   5.399  1.6443 -0.2919 -0.8190
  146MOL    H7223562   4.141   3.546   5.506  0.2026 -0.5510  0.6385
  146MOL    H7323563   4.109   3.464   5.362  0.1714  2.1781 -1.1957
  146MOL    C7423564   4.038   3.295   5.593 -0.3154  0.7079  0.4548
  146MOL    C7523565   3.942   3.180   5.596  0.6129  0.0429  0.4007
  146MOL    C7623566   3.985   3.064   5.696  0.1156  0.4337  0.8297
  146MOL    O7723567   3.925   3.047   5.806  0.2673 -0.2272  0.1065
  146MOL    H7823568   4.084   3.313   5.690  4.7028  1.4774 -1.8717
  146MOL    H7923569   4.124   3.267   5.531 -1.7295 -1.1783 -0.7276
  146MOL    H8023570   3.902   3.143   5.502  0.2785  0.5783  0.3336
  146MOL    H8123571   3.853   3.223   5.643  1.7330  0.7307  1.9200
  146MOL    C8223572   4.100   2.979   5.650  0.0342  0.3166  0.4769
  146MOL    C8323573   4.169   2.904   5.763  0.0003 -0.5806 -0.2005
  146MOL    C8423574   4.311   2.963   5.784  0.6784  0.8917  0.8919
  146MOL    O8523575   4.400   2.979   5.700 -0.6576 -0.9417 -0.1765
  146MOL    H8623576   4.165   3.048   5.597 -0.5426  0.8585  0.4639
  146MOL    H8723577   4.060   2.908   5.577 -0.7228  0.8748  0.3454
  146MOL    H8823578   4.182   2.802   5.725  1.1310  0.5284 -2.9138
  146MOL    H8923579   4.114   2.884   5.855 -0.4974  1.2868 -0.0746
  146MOL    C9023580   4.329   3.023   5.926 -0.1258 -0.1382  0.1912
  146MOL    C9123581   4.475   2.995   5.975  0.8592  0.5536  0.4630
  146MOL    C9223582   4.496   2.976   6.124 -0.2956  0.2748 -0.6097
  146MOL    O9323583   4.507   3.070   6.208  0.2364 -0.5984  0.3957
  146MOL    H9423584   4.257   2.982   5.998 -2.1096 -0.0233 -1.6740
  146MOL    H9523585   4.319   3.131   5.928  2.1863  0.1270 -1.7337
  146MOL    H9623586   4.543   3.075   5.947  4.3282 -2.4245 -0.0507
  146MOL    H9723587   4.517   2.906   5.928 -0.3459  0.2680 -0.0817
  146MOL    C9823588   4.487   2.832   6.170  0.1920 -0.2120 -0.7341
  146MOL    C9923589   4.504   2.814   6.323  0.0921  0.1780 -0.5204
  146MOL   C10023590   4.510   2.674   6.375 -0.3330  0.3222 -0.3333
  146MOL   O10123591   4.589   2.590   6.339  0.0523  0.0087 -0.5202
  146MOL   H10223592   4.569   2.774   6.126  0.9929  0.4851 -0.1876
  146MOL   H10323593   4.393   2.785   6.143 -1.2901  1.3656  1.4653
  146MOL   H10423594   4.410   2.862   6.352  0.0042  0.1980 -0.8298
  146MOL   H10523595   4.581   2.874   6.370 -0.9076 -1.1123  2.9090
  146MOL   C10623596   4.396   2.631   6.469  0.1818  0.5016 -0.4891
  146MOL   C10723597   4.303   2.515   6.418 -0.3147  0.2639 -0.0901
  146MOL   C10823598   4.187   2.573   6.343  0.1269  0.2545 -0.1059
  146MOL   O10923599   4.204   2.672   6.270 -0.0130 -0.0618 -0.1865
  146MOL   H11023600   4.339   2.721   6.493  0.0880  0.3226 -0.0444
  146MOL   H11123601   4.443   2.596   6.561 -1.3586  0.2395  0.2159
  146MOL   H11223602   4.254   2.464   6.501 -2.8052  2.4011 -0.1660
  146MOL   H11323603   4.362   2.446   6.358 -0.3741  0.1565 -0.0246
  146MOL   C11423604   4.046   2.531   6.380  0.3334 -0.4948 -0.8337
  146MOL   C11523605   3.989   2.618   6.499 -0.1870 -0.7543 -0.1671
  146MOL   C11623606   3.849   2.659   6.472  0.5988 -0.3403 -0.7093
  146MOL   O11723607   3.789   2.652   6.359 -0.0562 -0.3518  0.4798
  146MOL   H11823608   4.049   2.431   6.423 -0.1333 -0.1448  0.0314
  146MOL   H11923609   3.979   2.526   6.295  0.3372  1.7066 -1.0081
  146MOL   H12023610   4.041   2.710   6.525  0.4151 -1.0389 -0.3597
  146MOL   H12123611   3.980   2.557   6.588 -1.6064 -1.4208 -0.7487
  146MOL   C12223612   3.780   2.736   6.585 -0.4845 -0.2771 -0.4753
  146MOL   C12323613   3.630   2.771   6.555 -0.2346 -0.5591 -0.4186
  146MOL   C12423614   3.602   2.919   6.532 -0.2566 -0.2740 -0.0905
  146MOL   O12523615   3.566   2.958   6.419  0.4534 -0.2189 -0.0257
  146MOL   H12623616   3.842   2.824   6.605 -0.0228 -0.8168  0.4997
  146MOL   H12723617   3.780   2.674   6.674 -0.6828  0.9407  0.3863
  146MOL   H12823618   3.573   2.738   6.642 -0.8352  4.4286  1.1947
  146MOL   H12923619   3.585   2.720   6.469 -0.7720 -1.1212  0.1912
  146MOL   C13023620   3.605   3.006   6.657  0.1024  0.3663 -0.1714
  146MOL   C13123621   3.667   3.139   6.629  0.4867  0.0302 -1.0823
  146MOL   C13223622   3.765   3.186   6.739 -0.3678 -0.1619  0.4074
  146MOL   O13323623   3.788   3.127   6.842  0.2033  0.3488 -0.0001
  146MOL   H13423624   3.662   2.965   6.740  1.1701 -1.4613 -1.7631
  146MOL   H13523625   3.503   3.023   6.691 -0.5427 -2.3016 -0.6196
  146MOL   H13623626   3.589   3.213   6.612 -2.0448 -1.9198  1.7512
  146MOL   H13723627   3.723   3.151   6.536  0.6207  0.2715 -0.9722
  146MOL   C13823628   3.841   3.312   6.711  0.0516 -0.0878  0.5898
  146MOL   C13923629   3.977   3.318   6.786  0.4784 -0.4777  0.0048
  146MOL   C14023630   4.035   3.459   6.783  0.0592  0.6444 -0.6755
  146MOL   O14123631   3.971   3.548   6.723  0.4524  0.2574 -0.0591
  146MOL   H14223632   3.775   3.389   6.750 -0.6246 -0.8260  0.9239
  146MOL   H14323633   3.860   3.328   6.605 -1.6501 -1.6278  0.0170
  146MOL   H14423634   4.048   3.239   6.762  0.5121 -0.8448  1.2750
  146MOL   H14523635   3.954   3.300   6.891 -1.2810  1.0279 -0.1030
  146MOL   C14623636   4.170   3.483   6.851  0.0436 -0.6385 -0.1632
  146MOL   C14723637   4.241   3.611   6.795 -0.8622  0.1267 -0.4515
  146MOL   C14823638   4.391   3.613   6.808 -0.4085 -0.2732  0.5889
  146MOL   O14923639   4.459   3.516   6.776 -0.0190  0.5212  0.7183
  146MOL   H15023640   4.233   3.399   6.823  2.1213  0.9925 -0.4963
  146MOL   H15123641   4.157   3.476   6.959 -1.1512  0.2983 -0.2308
  146MOL   H15223642   4.185   3.695   6.838 -1.3178 -0.1327 -0.5352
  146MOL   H15323643   4.228   3.618   6.687  1.8835 -0.1638 -0.8172
  146MOL   C15423644   4.457   3.726   6.886  0.2186 -0.2473  0.2707
  146MOL   C15523645   4.613   3.735   6.876  0.0223 -0.5413 -0.1443
  146MOL   C15623646   4.689   3.675   6.996 -0.2112  1.0798 -0.0474
  146MOL   O15723647   4.636   3.643   7.104  0.3846 -0.2366 -0.5195
  146MOL   H15823648   4.434   3.695   6.989  1.6117  3.9381  1.9432
  146MOL   H15923649   4.417   3.825   6.866  1.4742  0.2294  0.1041
  146MOL   H16023650   4.655   3.834   6.866 -0.7026 -0.1028  1.0580
  146MOL   H16123651   4.647   3.677   6.790  1.3721  1.2996 -0.8793
  146MOL   H16223652   4.797   3.672   6.982 -0.4464 -0.4325 -1.7901
  147MOL     C123653   4.437   2.343   7.088 -0.0363 -0.2653 -0.6501
  147MOL     C223654   4.464   2.416   6.950 -0.3417 -0.0382  0.5756
  147MOL     C323655   4.439   2.570   6.955  0.2563 -0.3508  0.9660
  147MOL     O423656   4.367   2.616   7.036  0.4458 -0.0682 -0.2634
  147MOL     H523657   4.529   2.355   7.145  0.4847  2.2125 -1.9628
  147MOL     H623658   4.352   2.373   7.149 -0.6624 -1.1748 -1.0734
  147MOL     H723659   4.393   2.381   6.875 -0.9424  2.1233  0.0988
  147MOL     H823660   4.565   2.404   6.911 -0.8029 -2.8512  0.1528
  147MOL     H923661   4.427   2.235   7.075  0.5413 -0.3276 -0.6070
  147MOL    C1023662   4.471   2.652   6.832  0.5251 -0.8420  0.1170
  147MOL    C1123663   4.502   2.799   6.859 -0.0105 -0.1942  0.2569
  147MOL    C1223664   4.431   2.898   6.760 -0.2000  0.2780 -0.9694
  147MOL    O1323665   4.321   2.872   6.710 -0.0191 -0.2736  0.1639
  147MOL    H1423666   4.394   2.644   6.755 -0.8973  0.0018  1.4093
  147MOL    H1523667   4.556   2.617   6.775  0.2125 -0.6856 -0.4483
  147MOL    H1623668   4.611   2.808   6.866  0.0409 -1.1000  0.8463
  147MOL    H1723669   4.458   2.820   6.956 -0.7286 -2.9623  0.5916
  147MOL    C1823670   4.506   3.018   6.719  1.2432 -0.0742 -0.1943
  147MOL    C1923671   4.467   3.130   6.818  0.3765  0.4898 -0.1349
  147MOL    C2023672   4.546   3.131   6.947  0.3985 -0.2207  0.1105
  147MOL    O2123673   4.605   3.035   6.997 -0.1399  0.5831  0.7167
  147MOL    H2223674   4.467   3.047   6.622 -0.5529  0.0401  0.5416
  147MOL    H2323675   4.611   2.993   6.707  1.1409 -0.2321 -0.8077
  147MOL    H2423676   4.362   3.131   6.848  0.4902  1.0876  0.2665
  147MOL    H2523677   4.494   3.226   6.773 -0.8030  0.4327 -0.9826
  147MOL    C2623678   4.547   3.263   7.025  0.3279  0.0708 -0.0251
  147MOL    C2723679   4.472   3.273   7.159 -0.5399 -0.4097 -0.2650
  147MOL    C2823680   4.326   3.238   7.169 -0.0226 -0.6211  0.0352
  147MOL    O2923681   4.238   3.277   7.093 -0.0082  0.3342  0.5866
  147MOL    H3023682   4.516   3.336   6.949  0.7993 -0.4858 -0.7627
  147MOL    H3123683   4.652   3.292   7.033  0.0537  0.8692  0.8633
  147MOL    H3223684   4.468   3.377   7.192  0.2035 -0.9499  1.6170
  147MOL    H3323685   4.523   3.219   7.239  1.6957  1.1076 -0.5993
  147MOL    C3423686   4.272   3.156   7.290  0.0890  0.5435  0.6616
  147MOL    C3523687   4.163   3.055   7.256  0.1840 -0.0827  0.6321
  147MOL    C3623688   4.174   2.991   7.127 -0.0547 -0.1775  0.8267
  147MOL    O3723689   4.271   2.926   7.092  0.4155 -1.2507  0.5083
  147MOL    H3823690   4.236   3.229   7.362 -1.4804 -0.3748  0.8408
  147MOL    H3923691   4.350   3.096   7.337  0.4993  1.5021  1.2002
  147MOL    H4023692   4.061   3.091   7.271 -0.5556 -1.2493 -1.3575
  147MOL    H4123693   4.167   2.970   7.323  2.4138 -0.1042  0.4836
  147MOL    C4223694   4.055   3.015   7.033 -0.1881  0.2007 -0.5348
  147MOL    C4323695   4.055   2.954   6.898 -0.2928  0.2364  0.2053
  147MOL    C4423696   3.989   2.812   6.914  0.6327 -0.3836 -0.0532
  147MOL    O4523697   3.864   2.802   6.916  0.2926  0.0380 -0.0613
  147MOL    H4623698   4.037   3.123   7.031 -1.2989  0.0641  1.4090
  147MOL    H4723699   3.967   2.982   7.087 -2.0677  0.3031 -3.4192
  147MOL    H4823700   4.157   2.932   6.866  0.2076  2.6908  0.0638
  147MOL    H4923701   4.003   3.018   6.827 -1.8270 -1.8848 -0.6424
  147MOL    C5023702   4.077   2.689   6.941  0.3352 -0.5882  0.1757
  147MOL    C5123703   4.010   2.552   6.948  0.5406  0.4751 -0.2076
  147MOL    C5223704   4.079   2.439   6.881 -0.1689  0.6936  0.6674
  147MOL    O5323705   4.164   2.458   6.791 -0.2505 -0.0410 -0.8279
  147MOL    H5423706   4.123   2.713   7.037  0.1850  2.3884 -0.4538
  147MOL    H5523707   4.159   2.685   6.870 -1.2220 -1.3704 -1.5940
  147MOL    H5623708   3.907   2.566   6.915  0.5944  1.3957  0.0044
  147MOL    H5723709   3.996   2.530   7.054 -1.1687  2.4712  0.0134
  147MOL    C5823710   4.018   2.301   6.905 -0.5667  0.2227 -0.3815
  147MOL    C5923711   4.119   2.181   6.909  0.8106 -0.3451 -0.5563
  147MOL    C6023712   4.056   2.046   6.886 -0.0238 -0.7455 -0.9622
  147MOL    O6123713   4.002   2.027   6.778 -0.0303 -0.2928  0.0833
  147MOL    H6223714   3.954   2.280   6.819 -1.5324  1.1598  0.1019
  147MOL    H6323715   3.964   2.293   6.999 -0.8598 -1.4383 -0.6615
  147MOL    H6423716   4.178   2.192   7.000  0.2124 -0.4788 -0.1491
  147MOL    H6523717   4.197   2.196   6.835 -0.0569  0.4021 -1.3261
  147MOL    C6623718   4.065   1.935   6.998 -0.0254 -0.4289 -0.1425
  147MOL    C6723719   4.101   1.792   6.941  0.6431  0.5105 -0.2260
  147MOL    C6823720   4.255   1.785   6.901  0.3881 -0.4181 -0.5543
  147MOL    O6923721   4.326   1.890   6.904 -0.7794 -0.1992  0.2968
  147MOL    H7023722   3.969   1.925   7.048  1.3293  1.7154  3.0194
  147MOL    H7123723   4.130   1.974   7.076  1.3001 -1.6045 -0.6222
  147MOL    H7223724   4.045   1.780   6.849  1.7037  1.9510 -1.0872
  147MOL    H7323725   4.074   1.719   7.017 -1.4495  1.3504 -0.1613
  147MOL    C7423726   4.304   1.649   6.858 -1.0665  0.4335 -0.4963
  147MOL    C7523727   4.452   1.661   6.806  0.4025  0.0598 -0.0682
  147MOL    C7623728   4.497   1.522   6.758  0.1358  0.1529 -0.7990
  147MOL    O7723729   4.550   1.442   6.836 -0.4702  0.1898 -0.3374
  147MOL    H7823730   4.252   1.620   6.766  1.4409 -0.7436 -1.5711
  147MOL    H7923731   4.286   1.583   6.942  0.4803  1.7943  0.9274
  147MOL    H8023732   4.513   1.692   6.891 -1.0571  1.5027  0.4572
  147MOL    H8123733   4.457   1.735   6.726 -3.1410 -0.1597 -0.5373
  147MOL    C8223734   4.455   1.485   6.622 -1.0208 -0.4779 -0.3888
  147MOL    C8323735   4.550   1.375   6.561  0.0253 -0.0359  0.3762
  147MOL    C8423736   4.487   1.240   6.514 -0.6882  0.5406  0.1713
  147MOL    O8523737   4.368   1.218   6.532  0.2421 -0.7415  0.0602
  147MOL    H8623738   4.435   1.564   6.549  0.8466  1.0234  0.6850
  147MOL    H8723739   4.364   1.426   6.634  0.7884 -3.0016  1.4385
  147MOL    H8823740   4.629   1.341   6.628  1.2278  0.1128 -0.9315
  147MOL    H8923741   4.603   1.411   6.473  0.9745 -0.5636  0.7232
  147MOL    C9023742   4.579   1.126   6.459 -0.1152  0.1357  0.7060
  147MOL    C9123743   4.509   1.006   6.405  0.2875 -0.2732  0.3135
  147MOL    C9223744   4.524   0.880   6.494  0.7392  0.0417 -0.3951
  147MOL    O9323745   4.549   0.893   6.616 -0.0067  0.5598 -0.0706
  147MOL    H9423746   4.652   1.103   6.537 -1.0156 -2.2055  0.8940
  147MOL    H9523747   4.641   1.179   6.387 -0.9722  1.2733  0.7914
  147MOL    H9623748   4.549   0.983   6.306  0.0902 -1.4739  0.4990
  147MOL    H9723749   4.404   1.030   6.388  0.4377  0.7315  0.7956
  147MOL    C9823750   4.485   0.746   6.433 -0.0393 -0.1625  0.8908
  147MOL    C9923751   4.421   0.644   6.537  0.5776 -0.4493  0.2926
  147MOL   C10023752   4.272   0.676   6.565  0.0287 -0.5894  0.2171
  147MOL   O10123753   4.207   0.730   6.479 -0.3704 -0.3662 -0.5119
  147MOL   H10223754   4.581   0.702   6.406 -0.0022 -0.4713  1.5290
  147MOL   H10323755   4.428   0.756   6.341 -0.1455  0.8342  1.0670
  147MOL   H10423756   4.487   0.647   6.624 -1.1797 -2.5458  1.7261
  147MOL   H10523757   4.428   0.542   6.500  2.7563 -0.8741  1.7914
  147MOL   C10623758   4.209   0.641   6.698 -0.4616  0.2259  0.0347
  147MOL   C10723759   4.140   0.763   6.771  0.1890 -0.0335  0.1334
  147MOL   C10823760   4.114   0.738   6.922 -1.0110  0.5000 -0.9313
  147MOL   O10923761   4.115   0.627   6.971  0.3836  0.7808  0.0791
  147MOL   H11023762   4.302   0.620   6.751 -1.8670  0.5026  2.6951
  147MOL   H11123763   4.155   0.547   6.701  0.8411 -0.5669 -1.2048
  147MOL   H11223764   4.044   0.792   6.730 -0.4272  0.4097  1.8354
  147MOL   H11323765   4.207   0.849   6.768 -0.9186  0.8047 -0.6027
  147MOL   C11423766   4.086   0.860   7.011 -0.5851  0.4460  0.3203
  147MOL   C11523767   4.150   0.846   7.148 -0.1172 -0.4883 -0.2815
  147MOL   C11623768   4.154   0.978   7.226 -0.6432 -0.4264  0.4036
  147MOL   O11723769   4.077   1.074   7.200  0.3185  0.2529 -0.3850
  147MOL   H11823770   3.978   0.863   7.026 -0.3292 -0.0795  2.4965
  147MOL   H11923771   4.137   0.944   6.963 -1.9939  0.9799 -0.2653
  147MOL   H12023772   4.255   0.817   7.142  0.4853  1.9253 -2.1501
  147MOL   H12123773   4.099   0.778   7.216  1.6469 -0.0548  1.5160
  147MOL   C12223774   4.257   0.981   7.338 -0.5376 -0.0469 -0.1482
  147MOL   C12323775   4.268   1.108   7.417 -0.2932 -0.1494  0.9253
  147MOL   C12423776   4.349   1.211   7.335 -0.3822  0.8990 -0.2371
  147MOL   O12523777   4.419   1.176   7.239 -0.5492  0.1480  0.2052
  147MOL   H12623778   4.353   0.943   7.303  0.0090  0.3166  0.9242
  147MOL   H12723779   4.206   0.912   7.405  0.3212  1.2002  1.8434
  147MOL   H12823780   4.336   1.075   7.495  0.1131 -0.0790  0.6030
  147MOL   H12923781   4.172   1.151   7.447  0.8671  2.9058  0.4567
  147MOL   C13023782   4.346   1.351   7.387 -0.2377 -0.9035 -0.1216
  147MOL   C13123783   4.338   1.456   7.274 -0.4264  0.1721  0.0400
  147MOL   C13223784   4.456   1.556   7.275 -0.2332  0.3619  0.1244
  147MOL   O13323785   4.559   1.546   7.339  0.0439 -0.9829 -0.2738
  147MOL   H13423786   4.429   1.369   7.455 -1.1378  0.9503  0.5273
  147MOL   H13523787   4.260   1.356   7.453  1.2607 -0.7902  1.8690
  147MOL   H13623788   4.247   1.514   7.287  0.2238  0.4874  3.5923
  147MOL   H13723789   4.331   1.413   7.174  2.2802  0.8137 -0.4454
  147MOL   C13823790   4.432   1.675   7.186 -0.4857 -0.4131  0.0195
  147MOL   C13923791   4.457   1.811   7.253  0.1797  0.1895 -0.2396
  147MOL   C14023792   4.335   1.868   7.326 -0.4267  0.3384  0.2987
  147MOL   O14123793   4.243   1.798   7.362 -0.2421  0.0747 -0.1283
  147MOL   H14223794   4.327   1.662   7.157 -0.4289 -1.0427  0.0794
  147MOL   H14323795   4.496   1.663   7.099 -3.0046 -0.2165 -1.9312
  147MOL   H14423796   4.479   1.879   7.171 -2.1126 -0.0114 -1.0580
  147MOL   H14523797   4.540   1.806   7.324 -0.7492 -0.0434  0.8529
  147MOL   C14623798   4.338   2.016   7.351  0.0523 -0.3472 -0.0914
  147MOL   C14723799   4.218   2.085   7.425  0.1596 -0.4478  0.6204
  147MOL   C14823800   4.164   2.208   7.356 -0.2745  0.6792 -0.2112
  147MOL   O14923801   4.112   2.190   7.249  0.4092  0.1474 -0.2553
  147MOL   H15023802   4.348   2.075   7.260 -1.0350 -1.6178 -1.0563
  147MOL   H15123803   4.430   2.044   7.402 -1.4828  2.2253  1.3577
  147MOL   H15223804   4.264   2.119   7.518 -1.7105  2.7069  0.4298
  147MOL   H15323805   4.137   2.018   7.454  1.6348 -2.8459 -0.6066
  147MOL   C15423806   4.178   2.347   7.419 -0.1309  0.4552 -0.1572
  147MOL   C15523807   4.067   2.440   7.386  0.3682  0.5841 -0.5963
  147MOL   C15623808   4.132   2.552   7.302  0.0191  0.1610 -0.2835
  147MOL   O15723809   4.143   2.667   7.346  0.4474  0.3992 -0.0733
  147MOL   H15823810   4.270   2.393   7.382  1.2972 -1.9949  0.2164
  147MOL   H15923811   4.202   2.334   7.525 -0.0405  1.0383 -0.1016
  147MOL   H16023812   4.024   2.474   7.481  1.3522 -1.7638  0.7450
  147MOL   H16123813   3.998   2.391   7.317  0.1119  1.4787 -0.9757
  147MOL   H16223814   4.146   2.524   7.198  0.1455  1.3027 -0.5792
  148MOL     C123815   4.818   0.002   4.900 -0.0045  0.0172  0.1086
  148MOL     C223816   4.722   7.828   4.788  0.3426  0.2380  0.2278
  148MOL     C323817   4.587   7.767   4.821  0.5171  0.7757  0.6262
  148MOL     O423818   4.561   7.715   4.931 -0.5083 -0.0226  0.1176
  148MOL     H523819   4.762   0.062   4.971 -0.7250 -0.2439 -0.2323
  148MOL     H623820   4.842   7.778   4.967  0.9746 -0.7188 -1.1359
  148MOL     H723821   4.768   7.755   4.721 -0.5328  0.6739 -0.8636
  148MOL     H823822   4.717   0.053   4.718 -2.0125 -0.9960 -1.1274
  148MOL     H923823   4.904   0.066   4.879  1.2899 -2.0246 -0.9918
  148MOL    C1023824   4.473   7.779   4.720 -0.6261 -0.2019 -0.0493
  148MOL    C1123825   4.404   7.642   4.695 -0.0686  0.7229 -0.1371
  148MOL    C1223826   4.256   7.664   4.665 -0.4793  0.2470  1.3001
  148MOL    O1323827   4.221   7.769   4.613 -0.7876 -0.6918  0.2200
  148MOL    H1423828   4.507   7.819   4.624 -1.1988 -0.0291 -0.1772
  148MOL    H1523829   4.400   7.845   4.765 -1.6242 -0.1178 -1.7363
  148MOL    H1623830   4.408   7.586   4.788  1.9391 -0.4850 -0.9176
  148MOL    H1723831   4.452   7.595   4.609  1.1700 -0.7225  1.3193
  148MOL    C1823832   4.147   7.559   4.698  0.0152  0.8763 -0.1933
  148MOL    C1923833   4.051   7.533   4.586 -0.4432  0.0569  0.4863
  148MOL    C2023834   4.001   7.384   4.573  0.1615  0.5367 -0.1697
  148MOL    O2123835   4.050   7.294   4.641 -0.0773  0.0676 -0.1438
  148MOL    H2223836   4.099   7.603   4.785  0.9964  0.8385  0.3753
  148MOL    H2323837   4.201   7.469   4.729  0.6120  0.9667 -0.9491
  148MOL    H2423838   4.081   7.575   4.490 -2.4107 -0.2789 -0.3131
  148MOL    H2523839   3.969   7.603   4.601  0.1208  1.1183 -1.2814
  148MOL    C2623840   3.890   7.364   4.474 -0.0707 -0.6428 -0.0584
  148MOL    C2723841   3.831   7.224   4.464  0.6071  0.1167  0.3616
  148MOL    C2823842   3.738   7.188   4.586  0.0492 -0.7015 -0.1043
  148MOL    O2923843   3.660   7.271   4.636 -0.2720 -0.1880  0.3025
  148MOL    H3023844   3.968   7.369   4.398  0.6211  2.6018  0.7923
  148MOL    H3123845   3.823   7.449   4.459  0.7009  0.4870  2.5794
  148MOL    H3223846   3.917   7.158   4.450 -1.1370 -2.8226  2.9125
  148MOL    H3323847   3.767   7.219   4.375 -0.9228  0.8837  1.3986
  148MOL    C3423848   3.750   7.055   4.662  0.2970 -0.1903 -0.1432
  148MOL    C3523849   3.770   7.067   4.808  0.5284 -0.4629  0.4305
  148MOL    C3623850   3.833   6.939   4.860  0.1641  0.1036  0.0765
  148MOL    O3723851   3.924   6.890   4.804 -0.4163 -0.1190  0.1850
  148MOL    H3823852   3.820   6.989   4.610 -0.0526 -0.9161  0.3099
  148MOL    H3923853   3.659   6.996   4.649  0.8082 -0.6006 -2.0252
  148MOL    H4023854   3.673   7.074   4.857  2.0974 -1.7108  3.8202
  148MOL    H4123855   3.823   7.157   4.838  1.1614 -0.7877  0.2817
  148MOL    C4223856   3.748   6.870   4.965  0.1105 -0.1926  0.3459
  148MOL    C4323857   3.689   6.733   4.927  0.4507 -0.1673 -0.0013
  148MOL    C4423858   3.539   6.731   4.903  0.4065  0.9336 -0.5642
  148MOL    O4523859   3.463   6.740   4.997  0.2541 -0.5083 -0.4439
  148MOL    H4623860   3.672   6.935   5.008  0.4572 -0.6174  1.6436
  148MOL    H4723861   3.823   6.861   5.044  3.5242 -1.5839 -2.8933
  148MOL    H4823862   3.711   6.669   5.012 -0.4399 -0.0409  0.3284
  148MOL    H4923863   3.739   6.690   4.840 -0.6040  0.0323 -0.7136
  148MOL    C5023864   3.485   6.699   4.763  1.0822  0.2517 -0.2248
  148MOL    C5123865   3.330   6.702   4.744 -0.1746  0.5795 -0.1409
  148MOL    C5223866   3.262   6.840   4.737 -0.8087 -0.0411  0.0847
  148MOL    O5323867   3.322   6.938   4.772 -0.4310 -0.1141  0.1897
  148MOL    H5423868   3.517   6.598   4.737 -2.0173 -0.5470 -1.1046
  148MOL    H5523869   3.526   6.773   4.695 -0.1285  0.2118 -1.0096
  148MOL    H5623870   3.284   6.642   4.822  0.0744  2.0614  1.1618
  148MOL    H5723871   3.305   6.662   4.645  1.7726  0.5784 -0.6715
  148MOL    C5823872   3.120   6.852   4.687  0.1908  0.1329 -0.2561
  148MOL    C5923873   3.046   6.975   4.747 -0.8107  0.2823  0.3410
  148MOL    C6023874   2.924   7.018   4.667 -0.1561  0.2457 -0.2156
  148MOL    O6123875   2.900   6.965   4.561 -0.2140 -0.3784 -0.3564
  148MOL    H6223876   3.065   6.765   4.721 -0.4699  0.3224 -0.8179
  148MOL    H6323877   3.114   6.847   4.579 -0.3543  1.0395 -0.2727
  148MOL    H6423878   3.104   7.067   4.758 -0.8370 -0.0037  3.3723
  148MOL    H6523879   3.013   6.954   4.849  1.3829 -0.6181  0.8942
  148MOL    C6623880   2.835   7.130   4.717  0.9853 -0.1157 -0.8049
  148MOL    C6723881   2.695   7.132   4.649 -0.6487  0.0242  0.1521
  148MOL    C6823882   2.669   7.256   4.565  0.5634 -0.4351  0.4380
  148MOL    O6923883   2.750   7.342   4.538 -0.2778 -0.2634  0.2547
  148MOL    H7023884   2.890   7.219   4.685  0.3263  0.5537 -0.0783
  148MOL    H7123885   2.840   7.131   4.826  1.3788 -0.5051 -0.8175
  148MOL    H7223886   2.631   7.122   4.737 -1.1610 -1.7433 -0.4006
  148MOL    H7323887   2.669   7.040   4.597  1.6878 -0.2546 -0.5733
  148MOL    C7423888   2.519   7.278   4.535 -0.2804 -0.1252  0.3782
  148MOL    C7523889   2.473   7.426   4.542 -0.5845  0.7825 -0.5430
  148MOL    C7623890   2.459   7.475   4.689 -1.1757  0.5770  0.7196
  148MOL    O7723891   2.510   7.421   4.784  0.2036 -0.7022 -0.7948
  148MOL    H7823892   2.459   7.206   4.589  0.9793 -0.4241  1.3923
  148MOL    H7923893   2.511   7.236   4.435  2.9618  0.2654 -0.0970
  148MOL    H8023894   2.376   7.447   4.498 -1.1397  1.2369  0.8672
  148MOL    H8123895   2.549   7.489   4.494  3.2527 -0.8598  3.0383
  148MOL    C8223896   2.407   7.617   4.698 -0.3187 -0.7264  0.0036
  148MOL    C8323897   2.285   7.620   4.796 -0.3326  0.0477 -0.5626
  148MOL    C8423898   2.205   7.751   4.780 -0.3526  0.1856  0.1195
  148MOL    O8523899   2.243   7.834   4.703  0.1469 -0.0352 -0.1314
  148MOL    H8623900   2.395   7.662   4.600 -0.5162 -0.1819  0.2804
  148MOL    H8723901   2.494   7.669   4.739 -0.7068 -0.7673  0.9009
  148MOL    H8823902   2.328   7.594   4.892 -2.7420 -0.0836  0.5114
  148MOL    H8923903   2.219   7.538   4.769 -0.7590  0.7934 -1.8636
  148MOL    C9023904   2.083   7.773   4.870  0.2929  0.1330  0.8275
  148MOL    C9123905   2.106   0.035   4.957  0.0931  0.8156  0.1252
  148MOL    C9223906   2.043   0.157   4.895  0.3430  0.0189 -0.2632
  148MOL    O9323907   1.916   0.164   4.881  0.1034  0.6870 -0.0584
  148MOL    H9423908   2.071   7.685   4.934 -1.3141 -1.1663 -1.1777
  148MOL    H9523909   1.985   7.766   4.822  1.7009 -2.7937 -1.8221
  148MOL    H9623910   2.211   0.050   4.984 -0.0243  0.6877  0.6638
  148MOL    H9723911   2.061   0.012   5.054 -0.0862 -2.4606 -0.6723
  148MOL    C9823912   2.129   0.269   4.845 -0.3999  0.1100 -0.6047
  148MOL    C9923913   2.064   0.348   4.732 -0.8295 -0.0498 -0.1460
  148MOL   C10023914   2.094   0.497   4.743  0.1859 -0.9552 -0.8242
  148MOL   O10123915   2.067   0.557   4.846 -0.6308  0.2659  0.2305
  148MOL   H10223916   2.231   0.235   4.826 -0.3440 -0.1270  0.0794
  148MOL   H10323917   2.145   0.331   4.934 -0.6378 -1.5713  0.6477
  148MOL   H10423918   1.955   0.340   4.732 -0.8517  0.3138  0.3027
  148MOL   H10523919   2.094   0.313   4.633  0.9197  0.4645  0.1791
  148MOL   C10623920   2.142   0.572   4.621  0.4902 -0.2255 -0.0853
  148MOL   C10723921   2.288   0.569   4.593  0.5631  0.4905  0.1793
  148MOL   C10823922   2.327   0.483   4.474 -0.2708 -0.0275 -0.1694
  148MOL   O10923923   2.341   0.360   4.483 -0.6163 -0.4895 -0.6666
  148MOL   H11023924   2.109   0.676   4.624 -1.9453 -0.9772  0.8599
  148MOL   H11123925   2.101   0.522   4.534 -1.6318 -0.3126  0.9191
  148MOL   H11223926   2.350   0.538   4.677  0.8525  1.2760  0.2565
  148MOL   H11323927   2.329   0.668   4.571  0.1658  0.6855  0.3044
  148MOL   C11423928   2.358   0.565   4.349 -0.4767  0.4630 -0.5185
  148MOL   C11523929   2.383   0.471   4.226  0.5227  0.2617 -0.1540
  148MOL   C11623930   2.421   0.548   4.101 -0.0252 -0.0831 -0.0326
  148MOL   O11723931   2.457   0.664   4.104 -0.7214 -0.0713  0.1697
  148MOL   H11823932   2.449   0.623   4.364 -0.5744  0.9251 -1.7051
  148MOL   H11923933   2.282   0.640   4.326  1.0205  1.4530 -2.3235
  148MOL   H12023934   2.288   0.425   4.197  1.4601 -2.5806  1.1519
  148MOL   H12123935   2.456   0.391   4.238  1.8978  1.4502 -0.4829
  148MOL   C12223936   2.408   0.472   3.973  0.0644  0.2788  1.0390
  148MOL   C12323937   2.498   0.533   3.863  0.2247 -0.1478 -0.3148
  148MOL   C12423938   2.650   0.511   3.881  0.1970 -0.2500 -0.1205
  148MOL   O12523939   2.691   0.456   3.984 -0.6938 -0.1108 -0.3290
  148MOL   H12623940   2.303   0.462   3.947  0.5321 -0.4857 -0.5818
  148MOL   H12723941   2.437   0.369   3.997 -1.5227 -0.5250 -0.4276
  148MOL   H12823942   2.464   0.626   3.818 -0.1209  0.7880  1.8209
  148MOL   H12923943   2.473   0.460   3.786  1.8825  0.2742 -1.2842
  148MOL   C13023944   2.732   0.559   3.762  0.1037 -0.4528  0.5832
  148MOL   C13123945   2.860   0.645   3.806 -0.4402 -0.3489 -0.5066
  148MOL   C13223946   2.995   0.584   3.765  0.0632 -0.7817 -0.0548
  148MOL   O13323947   3.001   0.473   3.710 -0.0008  0.5670 -0.0753
  148MOL   H13423948   2.667   0.627   3.707  0.8200 -0.9561 -0.9110
  148MOL   H13523949   2.755   0.477   3.694 -1.5192  1.5416 -2.5028
  148MOL   H13623950   2.857   0.659   3.914 -0.2961 -0.1309 -0.5285
  148MOL   H13723951   2.852   0.743   3.759  1.0632 -0.3773 -0.8511
  148MOL   C13823952   3.117   0.673   3.797 -0.1535 -0.2323 -0.5633
  148MOL   C13923953   3.239   0.584   3.816  0.3328 -0.0479 -0.3928
  148MOL   C14023954   3.356   0.603   3.714 -0.1628 -0.0238 -0.1544
  148MOL   O14123955   3.345   0.650   3.601 -0.4006  0.1102 -0.6993
  148MOL   H14223956   3.095   0.715   3.895  2.6493  1.3606 -0.5554
  148MOL   H14323957   3.142   0.763   3.740 -0.2342  1.8309  2.5102
  148MOL   H14423958   3.210   0.481   3.835 -1.1528  1.0743  4.1770
  148MOL   H14523959   3.278   0.629   3.907  0.7507 -2.0941  0.4525
  148MOL   C14623960   3.493   0.556   3.767 -0.3256 -0.4280  0.0438
  148MOL   C14723961   3.504   0.422   3.830  0.3814  0.3564  0.1957
  148MOL   C14823962   3.552   0.432   3.975  0.4516 -0.5664  0.5632
  148MOL   O14923963   3.625   0.523   4.025 -0.0629  0.5921  0.1172
  148MOL   H15023964   3.526   0.637   3.831 -0.0409 -1.8047  1.6897
  148MOL   H15123965   3.557   0.565   3.679 -1.5914  0.2638 -0.8152
  148MOL   H15223966   3.583   0.374   3.771  0.4093  0.8638 -0.1869
  148MOL   H15323967   3.414   0.361   3.828  0.1442  0.7182 -0.2821
  148MOL   C15423968   3.502   0.315   4.057  0.0591 -0.2151  0.4635
  148MOL   C15523969   3.463   0.355   4.203  0.0928  0.7934  0.2493
  148MOL   C15623970   3.491   0.251   4.308  0.5101  0.3055 -0.0476
  148MOL   O15723971   3.494   0.130   4.279 -0.0349  0.3578 -0.0733
  148MOL   H15823972   3.587   0.248   4.061  0.3798  0.2150  0.7963
  148MOL   H15923973   3.419   0.255   4.019  0.9340  0.2011 -2.1888
  148MOL   H16023974   3.358   0.386   4.206 -0.4005 -0.8766  0.7324
  148MOL   H16123975   3.504   0.451   4.235 -0.9995  1.5391 -0.5032
  148MOL   H16223976   3.486   0.293   4.408 -0.5934  1.7148 -0.6813
  149MOL     C123977   4.108   4.022   6.557 -0.0909 -0.7829  0.1668
  149MOL     C223978   4.033   3.968   6.683 -0.2878  0.2149  0.1818
  149MOL     C323979   4.044   4.075   6.799 -0.1083 -0.3126  0.8495
  149MOL     O423980   3.942   4.138   6.843  0.4240  0.2345  0.0151
  149MOL     H523981   4.097   4.131   6.556 -3.1858 -1.0317  1.1600
  149MOL     H623982   4.214   3.998   6.561  0.7153  2.4124  0.0980
  149MOL     H723983   4.068   3.872   6.718 -2.7944 -0.4150  1.0839
  149MOL     H823984   3.928   3.944   6.670 -0.2861 -0.8833  1.9712
  149MOL     H923985   4.057   3.975   6.474 -2.2684  1.5365  0.1250
  149MOL    C1023986   4.182   4.100   6.859 -1.2695  0.3578  0.1504
  149MOL    C1123987   4.180   4.218   6.964  0.1724 -0.0897  0.3296
  149MOL    C1223988   4.323   4.256   7.009 -0.2409  1.1000  0.2272
  149MOL    O1323989   4.418   4.176   6.991  0.1361 -0.4052  0.4264
  149MOL    H1423990   4.263   4.110   6.787 -1.1092  0.7058  0.3871
  149MOL    H1523991   4.208   4.011   6.916  0.0210  2.0673  2.2639
  149MOL    H1623992   4.125   4.184   7.052  0.1645 -0.4898  0.1713
  149MOL    H1723993   4.126   4.302   6.921 -1.2280 -2.5499 -2.9495
  149MOL    C1823994   4.340   4.374   7.095 -0.6115 -0.3282 -0.5835
  149MOL    C1923995   4.482   4.426   7.106  0.2140  0.7484  0.0702
  149MOL    C2023996   4.486   4.566   7.169 -0.0176  0.2247 -0.3182
  149MOL    O2123997   4.400   4.655   7.139 -0.7485 -0.6387  0.3714
  149MOL    H2223998   4.308   4.338   7.193  0.7524 -1.0290 -0.3913
  149MOL    H2323999   4.268   4.453   7.073 -1.8803 -1.1304  0.5374
  149MOL    H2424000   4.518   4.439   7.004  2.3715  2.5710  1.0197
  149MOL    H2524001   4.554   4.364   7.159  0.3302  0.9167  0.1112
  149MOL    C2624002   4.583   4.586   7.283 -0.2469  0.0265 -0.0021
  149MOL    C2724003   4.725   4.587   7.231  0.2723  0.2828 -0.0826
  149MOL    C2824004   4.779   4.724   7.222  0.6249 -0.4603 -0.3302
  149MOL    O2924005   4.737   4.815   7.293  0.6537 -0.1225 -0.0683
  149MOL    H3024006   4.563   4.518   7.366  1.2046  0.6737  0.8768
  149MOL    H3124007   4.555   4.676   7.336  0.2784  0.6061 -0.6964
  149MOL    H3224008   4.746   4.518   7.149 -0.4651 -1.0643  0.8292
  149MOL    H3324009   4.786   4.538   7.307 -0.3258 -2.0961 -1.0653
  149MOL    C3424010   4.900   4.746   7.132  0.7936 -0.1723  0.1469
  149MOL    C3524011   4.869   4.821   7.004 -0.1566  0.5346 -0.7060
  149MOL    C3624012   4.835   4.709   6.893 -0.4799  1.0403 -0.0574
  149MOL    O3724013   4.756   4.616   6.925 -0.5816 -0.5911 -0.3590
  149MOL    H3824014   4.961   4.658   7.113 -0.1203 -1.6555  3.6725
  149MOL    H3924015   4.958   4.820   7.188 -1.3413  1.1182  0.7200
  149MOL    H4024016   4.955   4.876   6.965  0.9818 -0.9673 -0.3488
  149MOL    H4124017   4.783   4.888   7.013  0.2586  0.9863 -0.0678
  149MOL    C4224018   4.891   4.728   6.753  0.7076  0.2860 -0.0901
  149MOL    C4324019   4.868   4.607   6.657 -0.5046  1.1198 -0.9566
  149MOL    C4424020   4.844   4.636   6.512  0.2592  0.0555  0.3120
  149MOL    O4524021   4.819   4.749   6.474 -0.1948  0.2411  0.5370
  149MOL    H4624022   4.994   4.762   6.761  0.6411  0.5233 -0.2711
  149MOL    H4724023   4.838   4.811   6.707 -0.0340  0.6425  1.3539
  149MOL    H4824024   4.782   4.555   6.699 -1.2837  2.4492 -0.8918
  149MOL    H4924025   4.956   4.543   6.669 -0.5431  1.3449  0.6098
  149MOL    C5024026   4.848   4.523   6.416  0.2215 -0.0811 -0.3237
  149MOL    C5124027   4.818   4.573   6.275  0.4520  0.2153  0.2784
  149MOL    C5224028   4.713   4.481   6.204 -0.1399 -0.4036 -0.2552
  149MOL    O5324029   4.612   4.456   6.267  0.0940 -0.0421 -0.2106
  149MOL    H5424030   4.778   4.444   6.441  1.4127 -1.7770 -2.1421
  149MOL    H5524031   4.937   4.460   6.421 -0.2324 -0.6458  0.7779
  149MOL    H5624032   4.907   4.566   6.213 -0.0570 -1.0511 -0.3320
  149MOL    H5724033   4.786   4.677   6.278  0.5135  0.1934  2.4690
  149MOL    C5824034   4.731   4.433   6.060  0.4778 -0.3821 -0.7149
  149MOL    C5924035   4.628   4.342   6.002 -0.6295  0.3277 -0.0847
  149MOL    C6024036   4.574   4.384   5.861  0.3242  0.9847  0.0546
  149MOL    O6124037   4.623   4.469   5.789 -0.4023 -0.6808 -0.4704
  149MOL    H6224038   4.821   4.373   6.053  0.5338 -0.2608 -1.0278
  149MOL    H6324039   4.732   4.522   5.996 -0.8075  1.1845  1.3636
  149MOL    H6424040   4.548   4.330   6.075  0.6386  0.8744  1.4086
  149MOL    H6524041   4.673   4.246   5.977  1.4280  0.5132  2.7513
  149MOL    C6624042   4.438   4.318   5.823  0.4332  0.3783 -0.1131
  149MOL    C6724043   4.381   4.370   5.689 -0.4862 -0.2096 -0.3442
  149MOL    C6824044   4.309   4.503   5.707  0.2282 -0.3895 -0.0044
  149MOL    O6924045   4.321   4.583   5.800 -0.1869 -0.0080  0.2714
  149MOL    H7024046   4.367   4.341   5.903 -0.3483  2.1928 -1.2897
  149MOL    H7124047   4.441   4.209   5.821  0.1464  0.3328  1.2853
  149MOL    H7224048   4.307   4.295   5.663  1.1608 -1.8732 -0.3851
  149MOL    H7324049   4.455   4.382   5.610 -0.9134  1.2369 -0.5437
  149MOL    C7424050   4.219   4.544   5.596  0.2661  0.4193  0.6017
  149MOL    C7524051   4.077   4.508   5.623 -0.3455  0.5899 -0.4710
  149MOL    C7624052   3.975   4.599   5.554 -0.1675  0.7530 -1.0017
  149MOL    O7724053   4.007   4.706   5.501  0.5396 -0.1951  0.0663
  149MOL    H7824054   4.235   4.501   5.497 -3.4004  0.0957  0.0826
  149MOL    H7924055   4.229   4.652   5.591  0.4025  0.5136  2.4854
  149MOL    H8024056   4.057   4.501   5.730  0.5493  1.0814 -0.2614
  149MOL    H8124057   4.056   4.406   5.591  1.0912  0.9109 -2.5285
  149MOL    C8224058   3.835   4.541   5.572 -0.3903  0.7700  0.6314
  149MOL    C8324059   3.737   4.620   5.492  0.3536 -0.4233 -0.0782
  149MOL    C8424060   3.649   4.534   5.400  0.6513 -0.5929  0.0612
  149MOL    O8524061   3.632   4.414   5.422 -0.0827  0.2657  0.1332
  149MOL    H8624062   3.809   4.550   5.678 -0.5068  0.5245  0.6238
  149MOL    H8724063   3.840   4.434   5.550  1.4310  1.0088 -0.1917
  149MOL    H8824064   3.778   4.693   5.423 -0.3411 -0.2508 -0.3198
  149MOL    H8924065   3.661   4.674   5.550  0.6976  0.6973 -0.6643
  149MOL    C9024066   3.570   4.599   5.287 -0.0385 -1.1951 -0.2551
  149MOL    C9124067   3.455   4.519   5.232 -1.1123  0.6169  0.0968
  149MOL    C9224068   3.505   4.396   5.156 -0.8860 -0.0512 -0.0484
  149MOL    O9324069   3.620   4.382   5.117 -0.4613 -0.5187 -0.0227
  149MOL    H9424070   3.636   4.607   5.201  0.2356  0.7687  0.1131
  149MOL    H9524071   3.551   4.699   5.326  3.4658 -0.4765 -0.1723
  149MOL    H9624072   3.402   4.579   5.158  0.1334 -0.0269 -1.3161
  149MOL    H9724073   3.394   4.475   5.311 -3.0492  0.7913 -1.2720
  149MOL    C9824074   3.403   4.284   5.153 -0.4634  0.0654  0.3650
  149MOL    C9924075   3.469   4.147   5.186  0.4525 -0.0996 -0.7279
  149MOL   C10024076   3.386   4.056   5.276 -0.1232 -0.5144 -0.4629
  149MOL   O10124077   3.267   4.068   5.293 -0.0314 -0.7362 -0.3719
  149MOL   H10224078   3.367   4.269   5.051 -1.6815  2.5900  0.3903
  149MOL   H10324079   3.315   4.308   5.213  1.1357  0.4376  2.6054
  149MOL   H10424080   3.557   4.167   5.246  0.3485 -1.0243 -0.2510
  149MOL   H10524081   3.506   4.096   5.096 -0.4006  1.3058 -1.9020
  149MOL   C10624082   3.460   3.954   5.360  0.1009 -0.1728  0.4207
  149MOL   C10724083   3.398   3.813   5.362  0.1056  0.1170  0.0627
  149MOL   C10824084   3.504   3.718   5.423  0.1876  0.2085  0.1404
  149MOL   O10924085   3.607   3.760   5.474  0.4448  0.1906 -0.2529
  149MOL   H11024086   3.462   3.991   5.463 -2.9968 -0.4741  0.6387
  149MOL   H11124087   3.563   3.948   5.325 -0.2995 -0.6526 -0.6841
  149MOL   H11224088   3.379   3.782   5.260 -1.3407 -2.1458  0.9952
  149MOL   H11324089   3.305   3.817   5.419  0.4818  0.1289  0.6775
  149MOL   C11424090   3.475   3.569   5.411  0.0192 -0.0710  0.1064
  149MOL   C11524091   3.563   3.483   5.495  0.0770 -1.0477 -0.6446
  149MOL   C11624092   3.495   3.354   5.531  0.2672 -0.5827  0.3180
  149MOL   O11724093   3.417   3.299   5.453 -0.0894 -0.2218  0.2270
  149MOL   H11824094   3.494   3.543   5.307  2.3975  0.4267  0.3897
  149MOL   H11924095   3.367   3.557   5.427 -0.4814  2.9318 -0.7821
  149MOL   H12024096   3.609   3.527   5.583  1.5019  0.1060 -1.9326
  149MOL   H12124097   3.644   3.440   5.436  0.4111  0.2705 -1.1633
  149MOL   C12224098   3.546   3.276   5.650  0.1766 -1.1364  0.0997
  149MOL   C12324099   3.523   3.123   5.650 -0.0510  0.0480 -0.5643
  149MOL   C12424100   3.477   3.084   5.788  0.2829 -0.2453 -0.0007
  149MOL   O12524101   3.370   3.125   5.832  0.0884 -0.0000  0.1215
  149MOL   H12624102   3.504   3.336   5.731  0.8581 -2.9749  1.8562
  149MOL   H12724103   3.652   3.301   5.658 -0.0358 -0.1785  0.0107
  149MOL   H12824104   3.620   3.076   5.633  0.3084  0.0580  1.2997
  149MOL   H12924105   3.448   3.092   5.577 -1.0151  0.7774  0.1001
  149MOL   C13024106   3.574   3.012   5.881  0.2257 -0.1013  0.1118
  149MOL   C13124107   3.552   3.045   6.029 -0.5470 -0.9402 -0.3468
  149MOL   C13224108   3.478   2.929   6.098 -0.7362  0.1765 -0.9641
  149MOL   O13324109   3.357   2.923   6.098  0.4341  0.4745 -0.6142
  149MOL   H13424110   3.682   3.015   5.865  0.2732 -0.2514  0.4040
  149MOL   H13524111   3.549   2.906   5.871  2.3889 -0.6725  0.4715
  149MOL   H13624112   3.514   3.143   6.057  0.1520 -0.4023 -1.2540
  149MOL   H13724113   3.652   3.042   6.072 -1.8158 -4.2622  2.5947
  149MOL   C13824114   3.567   2.816   6.150  0.2872 -0.5662  0.4833
  149MOL   C13924115   3.485   2.688   6.188 -0.0271 -0.1940 -0.3672
  149MOL   C14024116   3.498   2.569   6.095  0.2153 -0.4760  0.2628
  149MOL   O14124117   3.564   2.577   5.992 -0.0265  0.0748  0.3059
  149MOL   H14224118   3.635   2.858   6.225  0.8543 -0.4364 -0.0928
  149MOL   H14324119   3.636   2.793   6.068  0.9745  2.6031  0.1134
  149MOL   H14424120   3.381   2.719   6.197  0.3277  0.3997  1.7726
  149MOL   H14524121   3.509   2.656   6.289  0.1079  1.7402  0.2412
  149MOL   C14624122   3.415   2.447   6.130  0.5310  0.1925  0.6107
  149MOL   C14724123   3.503   2.329   6.188  0.1586 -0.5597  0.0092
  149MOL   C14824124   3.498   2.301   6.342 -0.0504  0.8234  0.4876
  149MOL   O14924125   3.394   2.258   6.394  0.0699  0.8829 -0.0546
  149MOL   H15024126   3.376   2.399   6.040  4.6951 -1.5654 -0.3558
  149MOL   H15124127   3.326   2.468   6.189  1.4114  0.2630  1.9256
  149MOL   H15224128   3.608   2.351   6.166  0.1998  0.1549  0.8792
  149MOL   H15324129   3.488   2.234   6.138  0.1212  0.2288 -1.5301
  149MOL   C15424130   3.629   2.302   6.420  0.3048 -0.6817 -0.0005
  149MOL   C15524131   3.640   2.207   6.537  0.2350 -0.3266 -0.6039
  149MOL   C15624132   3.757   2.233   6.622 -0.5267 -0.0949  0.5592
  149MOL   O15724133   3.819   2.339   6.618 -0.4878 -0.4033 -0.0093
  149MOL   H15824134   3.642   2.406   6.450  0.3082 -1.0924  1.4705
  149MOL   H15924135   3.713   2.290   6.352  1.0938  2.1851  0.4117
  149MOL   H16024136   3.651   2.103   6.505 -0.6188 -0.5479 -0.2164
  149MOL   H16124137   3.547   2.212   6.593  0.0405 -0.2514 -0.9331
  149MOL   H16224138   3.783   2.151   6.689  3.6086  0.3329 -0.3895
  150MOL     C124139   6.250   3.793   0.806 -0.4734 -0.4810 -0.0578
  150MOL     C224140   6.153   3.856   0.911 -0.2155  0.4310 -0.1403
  150MOL     C324141   6.127   3.996   0.872 -0.2592 -0.3318 -0.1840
  150MOL     O424142   6.079   4.025   0.762  0.8515 -0.1767 -0.4934
  150MOL     H524143   6.351   3.818   0.839 -1.5587 -0.4096  3.3875
  150MOL     H624144   6.232   3.685   0.802  0.1846 -0.7632  3.0711
  150MOL     H724145   6.188   3.836   1.012 -0.9934  0.1147  0.0727
  150MOL     H824146   6.061   3.798   0.902  0.0291  0.1267 -0.7245
  150MOL     H924147   6.235   3.820   0.701  1.0664 -1.7054 -0.6162
  150MOL    C1024148   6.182   4.102   0.960  0.6250  0.3794 -0.8202
  150MOL    C1124149   6.285   4.186   0.894 -0.5537  0.2290  0.2092
  150MOL    C1224150   6.431   4.159   0.934  0.1138  0.3315  0.1699
  150MOL    O1324151   6.454   4.133   1.049  0.1001 -0.3159 -0.0891
  150MOL    H1424152   6.222   4.044   1.044  0.7410  0.2553 -0.9613
  150MOL    H1524153   6.100   4.166   0.993 -0.9255 -0.6183 -2.6082
  150MOL    H1624154   6.264   4.292   0.910 -0.1356  0.4096 -0.4037
  150MOL    H1724155   6.277   4.180   0.785  0.3734 -0.6709  0.1937
  150MOL    C1824156   6.537   4.163   0.823 -0.7492  0.2126  0.6246
  150MOL    C1924157   6.684   4.133   0.864  0.1907  0.1777  0.2061
  150MOL    C2024158   6.718   3.986   0.864 -0.3302 -0.8686 -0.0442
  150MOL    O2124159   6.691   3.917   0.768 -0.7834 -0.1784  0.2685
  150MOL    H2224160   6.524   4.254   0.765 -0.7867  0.3113  0.7895
  150MOL    H2324161   6.504   4.081   0.759  0.6935 -0.2377  0.4486
  150MOL    H2424162   6.710   4.181   0.958  0.9371  0.3575 -0.0891
  150MOL    H2524163   6.743   4.177   0.784 -1.0482  2.4903  0.5048
  150MOL    C2624164   6.745   3.917   0.999 -0.5428 -0.4114  0.1287
  150MOL    C2724165   6.756   3.761   0.984 -0.2878  0.6636 -0.3800
  150MOL    C2824166   6.888   3.715   0.922  0.0631  0.5871  0.3443
  150MOL    O2924167   6.970   3.794   0.883 -0.2340  0.8454 -0.1110
  150MOL    H3024168   6.681   3.940   1.084 -1.2610 -2.4336  0.1563
  150MOL    H3124169   6.845   3.955   1.019 -0.2669  1.5218 -4.4153
  150MOL    H3224170   6.666   3.715   0.942 -0.4827  2.8713 -2.4938
  150MOL    H3324171   6.760   3.723   1.086 -2.1652  2.0778  0.2460
  150MOL    C3424172   6.905   3.566   0.883 -0.3952 -0.2980 -0.3801
  150MOL    C3524173   7.044   3.539   0.824  0.2383  0.7945  0.0520
  150MOL    C3624174   7.139   3.459   0.903  0.6911  0.5260 -0.8303
  150MOL    O3724175   7.164   3.483   1.021  0.5750 -0.0961 -0.7318
  150MOL    H3824176   6.832   3.533   0.809  0.8229 -3.4389 -0.2988
  150MOL    H3924177   6.894   3.505   0.973 -0.1515  0.2402  0.0119
  150MOL    H4024178   7.094   3.635   0.807  0.8873  0.5391  0.5124
  150MOL    H4124179   7.037   3.493   0.725  0.5689  0.0936  0.3510
  150MOL    C4224180   7.197   3.340   0.833  0.3113 -0.4924  0.1014
  150MOL    C4324181   7.342   3.313   0.879 -0.1238 -0.6692  0.1308
  150MOL    C4424182   7.376   3.175   0.934 -0.1471  0.0904 -0.1810
  150MOL    O4524183   7.335   3.076   0.877 -0.2070 -0.4058 -0.4754
  150MOL    H4624184   7.204   3.363   0.727  3.2104  3.7362  1.1068
  150MOL    H4724185   7.133   3.252   0.844 -0.6099 -0.1364 -2.0552
  150MOL    H4824186   7.388   3.394   0.936 -2.7232  0.3393  0.9121
  150MOL    H4924187   7.400   3.336   0.790 -1.0191  0.7929 -0.1078
  150MOL    C5024188   7.475   3.154   1.055  0.7066  0.6755  0.9285
  150MOL    C5124189   7.495   3.007   1.099 -0.1628 -0.1689 -0.3977
  150MOL    C5224190   7.600   2.940   1.007  0.8936 -0.7310  0.0477
  150MOL    O5324191   7.674   2.997   0.930 -0.0324  0.1595  0.3976
  150MOL    H5424192   7.428   3.206   1.138 -0.9863 -0.3911  0.6507
  150MOL    H5524193   7.569   3.201   1.024  0.0457  1.1611 -0.3493
  150MOL    H5624194   7.395   2.965   1.113 -0.2505  0.3253  0.4764
  150MOL    H5724195   7.528   3.002   1.202 -1.6110  1.7928  0.1991
  150MOL    C5824196   7.592   2.790   1.012  0.3675  0.0694 -0.0973
  150MOL    C5924197   7.712   2.704   0.962  0.8820 -0.1321 -0.3112
  150MOL    C6024198   7.815   2.674   1.074  0.1473 -0.1183 -0.4957
  150MOL    O6124199   7.840   2.748   1.168 -0.0641  0.2474  0.2396
  150MOL    H6224200   7.496   2.765   0.967  0.0383  1.3055 -0.1022
  150MOL    H6324201   7.567   2.770   1.116  0.5899  0.8205  0.1026
  150MOL    H6424202   7.768   2.746   0.878  1.2473  0.1108  0.0495
  150MOL    H6524203   7.674   2.607   0.932  0.4539  0.1226 -0.5949
  150MOL    C6624204   0.020   2.535   1.058 -0.2588 -0.3677 -0.1410
  150MOL    C6724205   0.010   2.458   1.198 -0.1763  0.2529  0.6812
  150MOL    C6824206   0.150   2.452   1.270  0.4125 -0.2955 -0.7910
  150MOL    O6924207   0.213   2.355   1.259 -0.3088 -0.0173 -0.3305
  150MOL    H7024208   0.123   2.533   1.024 -0.8589  0.3980 -2.0538
  150MOL    H7124209   7.820   2.474   0.990 -0.1368 -3.1409  2.1473
  150MOL    H7224210   7.836   2.356   1.180 -0.4152  0.2156  1.2845
  150MOL    H7324211   7.808   2.502   1.277  0.4672  0.6200  0.9790
  150MOL    C7424212   0.201   2.574   1.345  0.4105  0.4178  0.6820
  150MOL    C7524213   0.114   2.632   1.464 -0.3876  0.1584 -0.5066
  150MOL    C7624214   0.176   2.641   1.605  0.0900  0.5681  0.1298
  150MOL    O7724215   0.295   2.622   1.633 -0.1798 -0.1476 -0.2635
  150MOL    H7824216   0.224   2.653   1.274  2.5195 -0.5973  0.1995
  150MOL    H7924217   0.301   2.550   1.380  1.9293  4.1254 -0.8531
  150MOL    H8024218   0.025   2.571   1.468 -0.3461 -0.1119 -2.7872
  150MOL    H8124219   0.076   2.732   1.442  0.1352  0.2961 -0.8020
  150MOL    C8224220   0.072   2.660   1.712 -0.2895  0.0432  0.6038
  150MOL    C8324221   0.120   2.761   1.821  0.5802  0.7187 -0.1830
  150MOL    C8424222   0.064   2.744   1.968 -0.1745  0.0813  0.5594
  150MOL    O8524223   7.806   2.721   1.989 -0.3525 -0.6452 -0.5644
  150MOL    H8624224   0.053   2.562   1.757  0.3219  0.2403  1.2964
  150MOL    H8724225   7.837   2.685   1.662 -0.1756 -1.3107 -0.3139
  150MOL    H8824226   0.105   2.864   1.788 -0.4447  0.9540  0.9870
  150MOL    H8924227   0.228   2.744   1.826  0.1956 -1.4528  1.1580
  150MOL    C9024228   0.167   2.754   2.077  0.2185 -0.1264  0.2850
  150MOL    C9124229   0.108   2.797   2.209 -0.4986  0.5254 -0.1891
  150MOL    C9224230   0.133   2.943   2.258 -0.0160  0.1656 -0.4152
  150MOL    O9324231   0.207   3.028   2.207  0.3712 -0.8773  0.2973
  150MOL    H9424232   0.250   2.822   2.054 -0.6169  0.9603  0.4400
  150MOL    H9524233   0.197   2.650   2.090  0.1260 -0.2745 -0.6009
  150MOL    H9624234   0.151   2.738   2.290 -0.3796 -0.4948 -0.9805
  150MOL    H9724235   0.001   2.776   2.201 -0.9734  2.3154  1.2410
  150MOL    C9824236   0.076   2.965   2.394  0.0135  0.2290  0.0044
  150MOL    C9924237   0.119   3.104   2.448  0.4029 -0.2613  0.3244
  150MOL   C10024238   0.002   3.203   2.451  0.7008  0.5240  0.4348
  150MOL   O10124239   7.747   3.166   2.478  0.0659 -0.2921  0.0173
  150MOL   H10224240   0.114   2.885   2.456 -0.0826  1.0738  1.1638
  150MOL   H10324241   7.828   2.954   2.377  0.0106  0.2802 -0.0090
  150MOL   H10424242   0.201   3.154   2.396 -1.4662  1.5114 -1.0138
  150MOL   H10524243   0.153   3.102   2.551  0.1066  1.7261  0.4817
  150MOL   C10624244   0.035   3.341   2.392 -0.5604  0.0186  0.6187
  150MOL   C10724245   7.782   3.447   2.422  0.2890  0.1108 -0.2864
  150MOL   C10824246   7.697   3.474   2.299 -0.3901 -0.9913 -0.8971
  150MOL   O10924247   7.724   3.428   2.189 -0.2389 -0.7407 -0.0196
  150MOL   H11024248   0.063   3.341   2.286 -1.0533  0.3968  0.4893
  150MOL   H11124249   0.129   3.366   2.441  0.4978 -1.0638 -0.7808
  150MOL   H11224250   7.830   3.536   2.462  0.9530 -0.1403 -0.5168
  150MOL   H11324251   7.717   3.412   2.502  1.2006  1.0128  0.8755
  150MOL   C11424252   7.581   3.566   2.319 -1.0461 -0.2890  0.6892
  150MOL   C11524253   7.620   3.717   2.310 -0.2006  0.4288 -0.1102
  150MOL   C11624254   7.605   3.781   2.171  0.4136  0.0556 -0.6875
  150MOL   O11724255   7.691   3.760   2.089  0.1161 -1.0277 -0.2941
  150MOL   H11824256   7.523   3.557   2.411 -1.8985 -0.8175  0.0981
  150MOL   H11924257   7.517   3.537   2.237 -1.7644  1.0006  0.7756
  150MOL   H12024258   7.719   3.740   2.350 -0.1233  0.4178 -0.2941
  150MOL   H12124259   7.548   3.770   2.372  0.0025 -0.6409  1.0740
  150MOL   C12224260   7.490   3.879   2.139 -0.8759  0.2480 -0.2234
  150MOL   C12324261   7.467   3.922   1.993  0.0214 -0.6121  0.5313
  150MOL   C12424262   7.359   4.030   1.974  1.0051 -0.0259 -0.4286
  150MOL   O12524263   7.252   4.027   2.040  0.1408 -0.1626 -0.0434
  150MOL   H12624264   7.511   3.972   2.191  0.1442  1.2709 -2.4061
  150MOL   H12724265   7.402   3.836   2.187  0.1527 -2.1610 -0.4340
  150MOL   H12824266   7.433   3.842   1.927 -0.3075 -1.3412  1.5793
  150MOL   H12924267   7.564   3.957   1.957  0.5652 -2.0367  0.5929
  150MOL   C13024268   7.385   4.141   1.872  0.1408  0.8439 -0.4432
  150MOL   C13124269   7.266   4.245   1.867 -0.3070  0.0127  0.2113
  150MOL   C13224270   7.292   4.363   1.965 -0.2624 -0.2394  0.8960
  150MOL   O13324271   7.392   4.444   1.949  0.2242  0.3434  0.1791
  150MOL   H13424272   7.403   4.101   1.772  0.2515  0.6102 -0.3301
  150MOL   H13524273   7.477   4.189   1.904  1.2849 -1.8675  0.5284
  150MOL   H13624274   7.175   4.189   1.889 -0.3412 -0.1398 -0.3197
  150MOL   H13724275   7.262   4.290   1.768  0.2642  0.1940  0.2649
  150MOL   C13824276   7.194   4.372   2.081  0.4827  0.3280 -0.3084
  150MOL   C13924277   7.164   4.509   2.134 -0.0017  0.1231 -0.0907
  150MOL   C14024278   7.139   4.619   2.024  0.0601 -0.5262 -0.4023
  150MOL   O14124279   7.038   4.604   1.953  0.4489  0.3183 -0.4929
  150MOL   H14224280   7.229   4.302   2.157 -1.0041 -1.3642 -1.1362
  150MOL   H14324281   7.098   4.330   2.052  0.6858 -0.1768 -0.2591
  150MOL   H14424282   7.244   4.540   2.201  1.8247 -0.3315 -2.0002
  150MOL   H14524283   7.071   4.506   2.192  0.1905 -0.0575  0.2045
  150MOL   C14624284   7.239   4.733   2.004  0.2023 -0.1989 -0.2136
  150MOL   C14724285   7.227   4.811   1.870 -0.4586  0.2045 -0.6408
  150MOL   C14824286   7.329   4.768   1.767  1.1356  0.0710  0.0171
  150MOL   O14924287   7.441   4.733   1.808 -0.4729 -0.1517  0.0934
  150MOL   H15024288   7.341   4.700   2.023 -0.2767 -1.0160  1.0139
  150MOL   H15124289   7.202   4.811   2.071  0.2729 -0.1912 -0.1838
  150MOL   H15224290   7.238   4.919   1.876 -0.1947  0.3413 -2.8684
  150MOL   H15324291   7.127   4.809   1.826 -1.1163  1.5081  0.7642
  150MOL   C15424292   7.278   4.770   1.627 -0.7583  0.4162  0.0859
  150MOL   C15524293   7.400   4.768   1.535  1.3702  0.2746  0.2644
  150MOL   C15624294   7.358   4.821   1.399  0.3790  0.4490 -0.0185
  150MOL   O15724295   7.273   4.911   1.382 -0.0369  0.2537 -0.1293
  150MOL   H15824296   7.201   4.847   1.621 -1.6190 -0.4466 -0.2676
  150MOL   H15924297   7.226   4.676   1.608  1.8632 -1.1532  0.4680
  150MOL   H16024298   7.440   4.666   1.532 -0.3581 -0.3907 -2.1836
  150MOL   H16124299   7.483   4.823   1.578  1.6970  0.5557 -0.7246
  150MOL   H16224300   7.409   4.768   1.318 -0.7209 -0.2844 -0.2462
  151MOL     C124301   0.383   5.555   5.817  0.0838 -0.0539  0.8695
  151MOL     C224302   0.413   5.683   5.746 -0.1697  0.0127  1.3973
  151MOL     C324303   0.557   5.688   5.699  0.0399  0.4810 -0.0230
  151MOL     O424304   0.637   5.603   5.729 -0.3902 -0.5815 -0.1699
  151MOL     H524305   0.434   5.551   5.914 -1.2968  0.3978  1.6375
  151MOL     H624306   0.278   5.559   5.845  0.1811 -0.6575  1.3340
  151MOL     H724307   0.382   5.773   5.798 -0.1084  0.4772  0.6405
  151MOL     H824308   0.358   5.684   5.652  1.2081  1.9638  0.5615
  151MOL     H924309   0.397   5.471   5.750  0.9723 -0.2106  1.2354
  151MOL    C1024310   0.593   5.824   5.625  0.5906 -0.2791  0.0340
  151MOL    C1124311   0.740   5.830   5.575 -0.1309 -0.6653 -0.0060
  151MOL    C1224312   0.759   5.934   5.459 -0.3302  0.6122 -0.6024
  151MOL    O1324313   0.693   6.035   5.455  0.0347 -0.6110  0.0728
  151MOL    H1424314   0.551   5.899   5.691 -0.8179 -0.2255 -0.9005
  151MOL    H1524315   0.530   5.825   5.536 -0.6709 -4.0507  0.7933
  151MOL    H1624316   0.771   5.732   5.540  1.6570 -0.8550  2.0335
  151MOL    H1724317   0.818   5.842   5.650 -0.0266 -0.1997 -0.1891
  151MOL    C1824318   0.862   5.906   5.357 -0.0264 -0.3500  0.8671
  151MOL    C1924319   0.822   5.949   5.221 -0.2450 -0.4779  1.2044
  151MOL    C2024320   0.870   6.087   5.171  0.0278  0.5965  0.3517
  151MOL    O2124321   0.978   6.091   5.112 -0.0341 -0.2468 -0.3922
  151MOL    H2224322   0.895   5.803   5.366 -0.2529 -0.5043 -0.0627
  151MOL    H2324323   0.948   5.956   5.403  0.4682 -1.9054  1.6622
  151MOL    H2424324   0.716   5.945   5.196  0.0725 -0.4596 -0.1739
  151MOL    H2524325   0.862   5.880   5.146 -0.2430  1.4748 -0.6552
  151MOL    C2624326   0.782   6.210   5.200 -0.0426 -0.0017 -0.1135
  151MOL    C2724327   0.830   6.345   5.147 -0.3681  0.5396 -0.4149
  151MOL    C2824328   0.776   6.460   5.233 -0.9061 -0.1982 -0.1574
  151MOL    O2924329   0.674   6.446   5.295  0.4259 -0.1802  0.3051
  151MOL    H3024330   0.786   6.209   5.309 -3.6760 -0.6627  0.0578
  151MOL    H3124331   0.677   6.191   5.176 -0.0592 -1.6100  1.1410
  151MOL    H3224332   0.783   6.351   5.049 -0.0431 -2.3938 -0.7901
  151MOL    H3324333   0.938   6.350   5.134 -0.2391  0.1165  0.5001
  151MOL    C3424334   0.858   6.586   5.247 -0.5082  0.7368 -0.3043
  151MOL    C3524335   0.819   6.676   5.364 -0.3301 -0.2268 -0.1835
  151MOL    C3624336   0.826   6.613   5.500 -0.7256  0.2154 -0.4791
  151MOL    O3724337   0.936   6.564   5.530  0.0302 -0.2101 -0.3623
  151MOL    H3824338   0.858   6.645   5.155 -0.0734  3.5267  1.3992
  151MOL    H3924339   0.961   6.558   5.271 -1.3144 -0.4212  1.8673
  151MOL    H4024340   0.715   6.701   5.340 -0.6572 -1.2129  0.1362
  151MOL    H4124341   0.877   6.767   5.363 -0.4322 -0.0594  3.9535
  151MOL    C4224342   0.710   6.627   5.603 -0.2323  0.2864 -0.0629
  151MOL    C4324343   0.761   6.633   5.744  0.1750 -0.5532 -0.4134
  151MOL    C4424344   0.730   6.525   5.839 -0.0203 -0.0936  0.3477
  151MOL    O4524345   0.648   6.439   5.816 -0.2292  0.7297  0.2408
  151MOL    H4624346   0.641   6.544   5.585  0.9169 -0.6159 -0.3657
  151MOL    H4724347   0.665   6.725   5.584 -0.1417  0.3295 -0.0523
  151MOL    H4824348   0.717   6.718   5.795  2.3934  1.1893 -1.3272
  151MOL    H4924349   0.870   6.640   5.741  0.2164 -1.5024 -1.5707
  151MOL    C5024350   0.807   6.535   5.968 -0.4799  0.3032  0.2008
  151MOL    C5124351   0.775   6.423   6.074 -0.0628  0.1509  0.3869
  151MOL    C5224352   0.716   6.464   6.206  0.0869  0.1071  0.1487
  151MOL    O5324353   0.747   6.575   6.247  0.0554  0.4241 -0.3822
  151MOL    H5424354   0.790   6.633   6.012 -0.1772 -0.3042  1.6948
  151MOL    H5524355   0.913   6.526   5.941 -0.4473  1.4500 -0.0763
  151MOL    H5624356   0.872   6.378   6.091 -0.2432 -0.7238 -0.8382
  151MOL    H5724357   0.713   6.343   6.032 -0.2104  0.1805  0.5439
  151MOL    C5824358   0.626   6.369   6.285 -0.0170 -0.3777 -0.6959
  151MOL    C5924359   0.512   6.444   6.358 -0.0211 -1.0030  0.0851
  151MOL    C6024360   0.527   6.441   6.511  0.0204  0.2195  0.4609
  151MOL    O6124361   0.539   6.546   6.570 -0.1834  0.2305 -0.2091
  151MOL    H6224362   0.678   6.295   6.346  0.0449  1.6844  1.8709
  151MOL    H6324363   0.583   6.297   6.215  1.0168 -1.8584  0.1717
  151MOL    H6424364   0.420   6.396   6.323 -1.4307  1.7093 -0.0918
  151MOL    H6524365   0.497   6.548   6.332 -0.1895 -0.8084  0.9296
  151MOL    C6624366   0.532   6.306   6.585  0.5316 -0.1667  0.5320
  151MOL    C6724367   0.583   6.306   6.726 -0.3003  0.2701  0.9063
  151MOL    C6824368   0.598   6.159   6.773  0.0991 -0.5167 -0.5295
  151MOL    O6924369   0.545   6.060   6.716 -0.0196  0.2849  0.0180
  151MOL    H7024370   0.601   6.246   6.526  0.4417  0.2285  0.0227
  151MOL    H7124371   0.436   6.255   6.579  0.1675  0.4030  1.4174
  151MOL    H7224372   0.512   6.354   6.794 -1.1338  0.0481  0.1932
  151MOL    H7324373   0.685   6.340   6.748 -0.4147 -0.7246  3.1784
  151MOL    C7424374   0.687   6.136   6.894  0.5288 -0.2666 -0.0132
  151MOL    C7524375   0.627   6.079   7.026 -0.7286  0.5550 -0.3064
  151MOL    C7624376   0.574   6.187   7.116 -0.1396  0.3401  0.4257
  151MOL    O7724377   0.606   6.308   7.100  0.3446  0.4518  0.4612
  151MOL    H7824378   0.730   6.232   6.922 -2.1912  0.8547  0.4307
  151MOL    H7924379   0.771   6.074   6.862  0.1735 -0.2803 -0.9188
  151MOL    H8024380   0.702   6.035   7.091 -0.9733 -0.0874 -0.4556
  151MOL    H8124381   0.563   5.992   7.009 -0.7420  0.3207  0.8860
  151MOL    C8224382   0.489   6.141   7.235 -0.0512  0.3216  0.2209
  151MOL    C8324383   0.489   6.236   7.357 -0.3230  0.0117  0.7590
  151MOL    C8424384   0.386   6.348   7.340 -0.3703 -0.3994  0.0735
  151MOL    O8524385   0.272   6.312   7.348 -0.1775 -0.2031 -0.4139
  151MOL    H8624386   0.532   6.044   7.263  0.5378  0.0329 -1.6099
  151MOL    H8724387   0.392   6.115   7.193  0.2828  1.0962 -1.0307
  151MOL    H8824388   0.591   6.267   7.376 -0.6524  0.3571  1.9880
  151MOL    H8924389   0.469   6.181   7.449  1.9066 -0.1414  1.1766
  151MOL    C9024390   0.428   6.484   7.299 -0.5838 -0.8866  0.2942
  151MOL    C9124391   0.355   6.592   7.381  0.2514  0.5209  0.2849
  151MOL    C9224392   0.417   6.624   7.517 -0.4693  0.3730  0.2507
  151MOL    O9324393   0.484   6.538   7.575 -0.3981 -0.6903 -0.1867
  151MOL    H9424394   0.397   6.483   7.194 -2.0888 -0.9169  0.7194
  151MOL    H9524395   0.535   6.500   7.308 -0.4880 -0.8405 -0.8598
  151MOL    H9624396   0.256   6.551   7.400  1.1392 -1.8000  0.0493
  151MOL    H9724397   0.330   6.678   7.319 -0.2267 -1.0432 -1.7793
  151MOL    C9824398   0.380   6.745   7.591 -0.5304 -0.7363  0.6026
  151MOL    C9924399   0.416   6.744   7.737 -0.3546 -0.6978 -0.0014
  151MOL   C10024400   0.318   6.653   7.816  0.2163 -0.1922  0.1824
  151MOL   O10124401   0.206   6.622   7.777 -0.0561 -0.1421  0.4507
  151MOL   H10224402   0.271   6.752   7.586 -0.4244  2.9753  1.3181
  151MOL   H10324403   0.431   6.821   7.532  2.1251 -1.3485  2.0619
  151MOL   H10424404   0.414   6.847   7.774  0.0180 -0.7707  0.2226
  151MOL   H10524405   0.516   6.705   7.753 -0.2918 -1.6886 -2.6511
  151MOL   C10624406   0.367   6.613   0.097  0.6282 -0.1144 -0.6259
  151MOL   C10724407   0.281   6.513   0.179 -0.5215  0.0821 -0.2448
  151MOL   C10824408   0.221   6.586   0.305 -0.8200  0.1625 -0.2323
  151MOL   O10924409   0.248   6.540   0.417  0.0275  0.4137  0.0422
  151MOL   H11024410   0.383   6.700   0.160 -1.1645 -0.1556 -0.0873
  151MOL   H11124411   0.464   6.563   0.090  1.5426  1.4335  0.6208
  151MOL   H11224412   0.348   6.437   0.220 -0.7309 -0.7366 -1.3841
  151MOL   H11324413   0.200   6.472   0.118 -2.4110  1.2143  1.4216
  151MOL   C11424414   0.133   6.706   0.285 -0.4607  0.2979  0.0382
  151MOL   C11524415   0.190   6.828   0.374  0.6512  0.3426 -0.2147
  151MOL   C11624416   0.262   6.929   0.290 -0.3547  0.2832 -0.0351
  151MOL   O11724417   0.315   6.903   0.184 -0.4695  0.1209 -0.3195
  151MOL   H11824418   0.031   6.674   0.306 -0.2444  0.4835  1.3833
  151MOL   H11924419   0.128   6.737   0.180 -1.1222 -0.8757 -0.2927
  151MOL   H12024420   0.238   6.792   0.465 -1.0652  1.4270  1.1455
  151MOL   H12124421   0.106   6.888   0.411  1.4192  1.6562 -0.5932
  151MOL   C12224422   0.284   7.065   0.350 -0.2823  0.2220 -0.1665
  151MOL   C12324423   0.179   7.169   0.323  0.4710  0.2760  0.3472
  151MOL   C12424424   0.094   7.215   0.433  0.7870  0.1570 -0.1277
  151MOL   O12524425   0.046   7.142   0.511 -0.4757  0.1518 -0.4389
  151MOL   H12624426   0.377   7.100   0.305  0.8238  1.0446  2.6916
  151MOL   H12724427   0.283   7.059   0.459 -2.8099 -0.8957 -0.2045
  151MOL   H12824428   0.107   7.137   0.247 -0.2248 -0.6282  1.3835
  151MOL   H12924429   0.238   7.253   0.285 -0.4621  0.1554 -1.4559
  151MOL   C13024430   0.061   7.363   0.436  0.3803 -0.7880  0.4365
  151MOL   C13124431   7.796   7.408   0.525  0.4910  0.4463 -0.5005
  151MOL   C13224432   7.647   7.392   0.474  0.7572  0.4712 -0.2914
  151MOL   O13324433   7.618   7.456   0.374  0.0357 -0.2818 -0.2277
  151MOL   H13424434   0.063   7.411   0.338 -0.1867 -1.9477 -0.1620
  151MOL   H13524435   0.144   7.408   0.490 -0.8488  1.6341  0.3754
  151MOL   H13624436   7.802   7.515   0.545 -1.2710  1.0290 -2.8861
  151MOL   H13724437   7.811   7.357   0.621  0.7545  0.0583 -0.7473
  151MOL   C13824438   7.546   7.303   0.548  0.0749  0.2309 -0.4048
  151MOL   C13924439   7.397   7.316   0.496 -0.4013 -0.2143 -0.0450
  151MOL   C14024440   7.308   7.195   0.501 -0.4433 -0.2989 -0.5458
  151MOL   O14124441   7.344   7.094   0.562 -0.3978 -0.6034  0.2023
  151MOL   H14224442   7.554   7.316   0.656 -0.1446  0.2977 -0.3945
  151MOL   H14324443   7.566   7.198   0.529 -2.2268 -0.4390  0.6640
  151MOL   H14424444   7.395   7.351   0.393 -0.3556  1.1734  0.4084
  151MOL   H14524445   7.356   7.390   0.565  1.6845 -0.8759  1.9783
  151MOL   C14624446   7.166   7.201   0.440 -0.1042 -0.6157  0.9829
  151MOL   C14724447   7.122   7.059   0.399  0.1635  0.1881  0.2494
  151MOL   C14824448   7.008   7.012   0.491 -0.0857  0.0195  0.0329
  151MOL   O14924449   6.916   7.084   0.536  0.0879 -0.5492 -0.2801
  151MOL   H15024450   7.173   7.264   0.352 -0.9560 -1.3311  0.3917
  151MOL   H15124451   7.096   7.261   0.499  2.8976  1.8687  2.1768
  151MOL   H15224452   7.206   6.990   0.403 -1.1381 -1.5037 -0.8500
  151MOL   H15324453   7.095   7.061   0.293 -0.9944  2.4415  0.5584
  151MOL   C15424454   7.003   6.857   0.519  0.6286 -0.1068 -0.1690
  151MOL   C15524455   6.867   6.793   0.538 -0.3999  1.1959 -0.5422
  151MOL   C15624456   6.876   6.645   0.574  0.0461  0.3986  0.6518
  151MOL   O15724457   6.981   6.587   0.601 -0.3564 -0.2112 -0.7158
  151MOL   H15824458   7.062   6.838   0.609  1.0587 -2.6197 -0.9380
  151MOL   H15924459   7.052   6.806   0.436 -1.1652 -1.4299 -0.4515
  151MOL   H16024460   6.789   6.788   0.462  0.4665  2.7327 -1.5795
  151MOL   H16124461   6.821   6.828   0.630  1.2928 -0.1130  0.8102
  151MOL   H16224462   6.782   6.590   0.575  0.2195  0.0961  0.3100
  152MOL     C124463   6.000   0.067   4.229 -0.0770 -0.6498  0.0330
  152MOL     C224464   6.014   7.778   4.212 -0.1217  0.0597 -0.7086
  152MOL     C324465   6.053   7.707   4.341 -0.4888  0.1895  0.5134
  152MOL     O424466   6.117   7.770   4.428 -0.1855  0.4380  0.3916
  152MOL     H524467   5.954   0.107   4.320 -3.0472  2.6787 -2.7643
  152MOL     H624468   6.096   0.118   4.235 -0.0569 -0.6026 -0.6697
  152MOL     H724469   6.095   7.753   4.143 -0.5842 -1.0272 -0.8702
  152MOL     H824470   5.919   7.738   4.175 -0.5631 -0.2981  0.7954
  152MOL     H924471   5.947   0.106   4.142  1.5578  0.1014 -0.6545
  152MOL    C1024472   6.018   7.563   4.358 -0.7040 -0.1397 -0.1506
  152MOL    C1124473   5.913   7.549   4.462 -0.2445  0.4069 -0.3597
  152MOL    C1224474   5.769   7.559   4.403 -0.2134 -1.1662 -0.4497
  152MOL    O1324475   5.733   7.466   4.335  0.2658 -0.4832  0.3543
  152MOL    H1424476   6.100   7.509   4.403 -0.3204  1.5112  1.1907
  152MOL    H1524477   6.000   7.516   4.261  0.8064 -0.2501 -0.3855
  152MOL    H1624478   5.929   7.618   4.545  2.1133 -1.2345  0.6143
  152MOL    H1724479   5.927   7.449   4.502  1.9546  1.6634  2.2520
  152MOL    C1824480   5.678   7.668   4.456 -0.0726  0.2628 -0.5402
  152MOL    C1924481   5.569   7.713   4.356 -0.2672  0.3770 -0.4967
  152MOL    C2024482   5.451   7.777   4.424  0.1262  0.3763 -0.0943
  152MOL    O2124483   5.454   7.825   4.540 -0.1531 -0.6841 -0.3023
  152MOL    H2224484   5.746   7.749   4.484 -0.2847  0.2021  0.1681
  152MOL    H2324485   5.636   7.617   4.543 -0.9247  1.0241 -0.4934
  152MOL    H2424486   5.525   7.625   4.311  1.6311 -0.7250 -0.2786
  152MOL    H2524487   5.603   7.778   4.275  0.3580  0.6760 -0.0040
  152MOL    C2624488   5.317   7.778   4.351 -0.3737 -0.4979 -0.7825
  152MOL    C2724489   5.207   0.001   4.427 -0.2722  0.4811 -0.3351
  152MOL    C2824490   5.069   7.815   4.387 -0.1892 -0.0258 -0.1644
  152MOL    O2924491   5.050   7.738   4.292 -0.2155 -0.0738 -0.2405
  152MOL    H3024492   5.294   7.676   4.320  1.1304 -1.7847  2.0927
  152MOL    H3124493   5.314   7.828   4.254 -0.0179  0.7749 -0.1497
  152MOL    H3224494   5.210   0.109   4.409  0.2470  0.7102  1.0494
  152MOL    H3324495   5.214   7.846   4.535  1.8278  0.4991 -0.4510
  152MOL    C3424496   4.954   0.006   4.482 -0.2564 -0.2903 -0.1170
  152MOL    C3524497   4.811   7.835   4.429  0.3669  1.0799 -0.1343
  152MOL    C3624498   4.763   0.099   4.358 -0.1907 -0.7275  0.0336
  152MOL    O3724499   4.818   0.137   4.253  0.1963 -0.0724 -0.1118
  152MOL    H3824500   4.966   0.110   4.511  0.5399 -1.1147  2.6293
  152MOL    H3924501   4.970   7.809   4.574  3.0144  0.7617  0.0081
  152MOL    H4024502   4.742   7.806   4.509  0.2458  0.6990 -0.3727
  152MOL    H4124503   4.814   7.754   4.355 -0.1158  0.3370  0.6489
  152MOL    C4224504   4.662   0.192   4.428  0.1608  0.2131 -0.2361
  152MOL    C4324505   4.733   0.273   4.539 -0.9005 -0.4119 -0.0499
  152MOL    C4424506   4.646   0.389   4.582  0.4677 -0.1016  0.1690
  152MOL    O4524507   4.701   0.500   4.592  0.2280 -0.4256 -0.7930
  152MOL    H4624508   4.584   0.126   4.466 -0.4287  1.3330  0.5308
  152MOL    H4724509   4.625   0.251   4.344 -1.8589  1.6240  1.6046
  152MOL    H4824510   4.822   0.308   4.487 -0.6259  0.6097  1.0885
  152MOL    H4924511   4.771   0.216   4.624  1.5479  0.0833 -0.7700
  152MOL    C5024512   4.515   0.359   4.663  0.0234 -0.5772 -0.4881
  152MOL    C5124513   4.389   0.436   4.606  0.1214 -0.1220 -0.4544
  152MOL    C5224514   4.350   0.551   4.695  0.5978  0.1906  0.6186
  152MOL    O5324515   4.414   0.588   4.793 -0.1667 -0.0986 -0.5286
  152MOL    H5424516   4.535   0.378   4.769 -0.3688  1.1238 -0.7066
  152MOL    H5524517   4.498   0.252   4.659 -2.2662 -0.3332  1.4355
  152MOL    H5624518   4.302   0.371   4.603 -0.2159  0.1986  1.5364
  152MOL    H5724519   4.404   0.471   4.504 -1.6128 -0.6975 -0.9211
  152MOL    C5824520   4.216   0.616   4.666  0.3403  0.2449  0.1766
  152MOL    C5924521   4.174   0.738   4.764 -0.0878 -0.3819  0.0581
  152MOL    C6024522   4.058   0.694   4.859 -0.2744  0.2092 -0.1335
  152MOL    O6124523   3.939   0.721   4.842 -0.1002  0.4186  0.3116
  152MOL    H6224524   4.140   0.538   4.669 -0.0310  0.6008  0.1262
  152MOL    H6324525   4.222   0.665   4.568  1.1107 -1.0758 -0.4509
  152MOL    H6424526   4.127   0.807   4.694  0.8315 -2.0650 -2.2851
  152MOL    H6524527   4.258   0.789   4.811  0.8126 -0.1539 -1.7671
  152MOL    C6624528   4.106   0.621   4.987 -0.3865 -0.3122 -0.3897
  152MOL    C6724529   4.031   0.488   5.020 -0.1454 -0.2628 -0.3771
  152MOL    C6824530   3.906   0.506   5.101  1.2611 -0.1571 -0.6270
  152MOL    O6924531   3.865   0.616   5.133 -0.0908 -0.2637  0.3542
  152MOL    H7024532   4.092   0.691   5.069  1.5936 -2.8791  2.2494
  152MOL    H7124533   4.213   0.600   4.988 -0.4536 -0.7245  2.9008
  152MOL    H7224534   4.093   0.413   5.068  1.9545  0.5439 -1.7301
  152MOL    H7324535   4.011   0.440   4.924  2.9081 -0.5923 -0.8744
  152MOL    C7424536   3.818   0.383   5.127  0.7230 -0.3123 -0.0492
  152MOL    C7524537   3.816   0.328   5.272 -0.6619 -0.2443 -0.4694
  152MOL    C7624538   3.940   0.251   5.300  0.2442 -0.5262 -0.1399
  152MOL    O7724539   3.980   0.178   5.212  0.2554  0.3095  0.0319
  152MOL    H7824540   3.849   0.305   5.058 -2.0306 -1.4365 -0.0826
  152MOL    H7924541   3.720   0.411   5.089  1.1609  1.4832  0.0549
  152MOL    H8024542   3.738   0.251   5.269 -0.8403 -0.0880  0.0505
  152MOL    H8124543   3.807   0.396   5.357 -0.9789  0.1282 -0.7983
  152MOL    C8224544   4.017   0.264   5.433  0.0797 -0.3773 -0.9603
  152MOL    C8324545   4.135   0.166   5.452 -0.6161  0.7255  0.4093
  152MOL    C8424546   4.136   0.096   5.584  0.2800 -0.0098  0.4362
  152MOL    O8524547   4.056   0.129   5.676 -0.5451  0.3919  0.0649
  152MOL    H8624548   3.950   0.266   5.520 -0.4910  1.1463 -1.4103
  152MOL    H8724549   4.053   0.367   5.427 -0.7469 -0.0861 -0.9893
  152MOL    H8824550   4.233   0.213   5.446  0.1877 -0.8963  0.5102
  152MOL    H8924551   4.139   0.089   5.375  1.7327  0.4535  0.7827
  152MOL    C9024552   4.255   0.010   5.616 -0.1991 -0.4149  0.3050
  152MOL    C9124553   4.321   0.046   5.747 -0.1958  0.0803  0.2084
  152MOL    C9224554   4.453   7.829   5.774 -0.1354 -0.0637  0.2879
  152MOL    O9324555   4.518   7.757   5.694  0.3201  0.2912 -0.3731
  152MOL    H9424556   4.329   0.012   5.536  0.6253 -0.8352  1.0444
  152MOL    H9524557   4.218   7.766   5.622  0.4203 -0.7718 -1.8120
  152MOL    H9624558   4.244   0.033   5.823 -0.5507  0.6834 -0.0503
  152MOL    H9724559   4.348   0.152   5.742  1.3138 -0.1926  1.7459
  152MOL    C9824560   4.502   7.842   5.914  0.0581  0.3710  0.0539
  152MOL    C9924561   4.655   0.018   5.928 -0.0093 -0.8566  0.6380
  152MOL   C10024562   4.678   0.141   6.018  0.4368  0.6711 -0.7403
  152MOL   O10124563   4.583   0.184   6.085 -0.1649  0.2063 -0.0415
  152MOL   H10224564   4.480   7.749   5.967  0.9850 -0.6005 -1.2314
  152MOL   H10324565   4.436   0.059   5.956  1.0390  1.8910 -1.1083
  152MOL   H10424566   4.686   0.034   5.825  2.0377 -1.9683  1.0619
  152MOL   H10524567   4.713   7.789   5.956 -0.3235 -1.0598  0.6577
  152MOL   C10624568   4.814   0.206   6.025  0.4273  0.0222  0.1834
  152MOL   C10724569   4.850   0.266   6.162 -0.1103 -0.2014  0.0075
  152MOL   C10824570   4.876   0.159   6.277  0.3718  0.0470 -0.2242
  152MOL   O10924571   4.860   0.045   6.255 -0.4361  0.0043  0.0062
  152MOL   H11024572   4.811   0.286   5.951  0.8866  1.0967  1.3091
  152MOL   H11124573   4.891   0.135   5.993  0.3238  0.7028 -1.6070
  152MOL   H11224574   4.770   0.329   6.200 -0.3101  1.2258 -2.6905
  152MOL   H11324575   4.931   0.336   6.143  1.5280 -2.0013  0.2787
  152MOL   C11424576   4.907   0.207   6.418 -0.1794 -0.0817 -0.2571
  152MOL   C11524577   5.006   0.106   6.478  0.6776 -0.1472  0.2630
  152MOL   C11624578   5.024   0.122   6.626  0.3550 -0.5361 -0.0844
  152MOL   O11724579   5.017   0.232   6.687  0.6738  0.2420  0.6987
  152MOL   H11824580   4.816   0.215   6.477  0.9912 -0.9930  1.7365
  152MOL   H11924581   4.949   0.307   6.425 -0.2016 -0.0651 -0.3638
  152MOL   H12024582   5.101   0.116   6.426  0.6128  0.6652  0.2901
  152MOL   H12124583   4.983   0.002   6.455  0.2744 -0.2702  1.2190
  152MOL   C12224584   5.063   7.855   6.706  0.1066  0.5309  0.1620
  152MOL   C12324585   5.141   0.033   6.837 -0.1403  0.2618 -0.1633
  152MOL   C12424586   5.283   7.835   6.833 -0.2328 -0.1334 -0.0182
  152MOL   O12524587   5.374   0.047   6.798  0.2759  0.8688  0.1103
  152MOL   H12624588   5.131   7.787   6.654  0.1220  0.9802 -0.4141
  152MOL   H12724589   4.974   7.798   6.734  1.4284 -1.2889  0.7164
  152MOL   H12824590   5.087   7.847   6.920  1.2501 -2.1428 -0.5147
  152MOL   H12924591   5.144   0.140   6.853  1.2336 -0.0495  1.8077
  152MOL   C13024592   5.307   7.694   6.899 -0.7232  0.1896  0.0534
  152MOL   C13124593   5.456   7.657   6.900 -0.4351 -0.7829 -0.0076
  152MOL   C13224594   5.515   7.701   7.036  0.1455  0.9203 -1.2172
  152MOL   O13324595   5.462   7.658   7.144 -0.6061  0.0549  0.1358
  152MOL   H13424596   5.252   7.629   6.831 -1.6302 -0.6048  1.5315
  152MOL   H13524597   5.267   7.693   7.000  1.3355  1.1755  0.9154
  152MOL   H13624598   5.504   7.695   6.810  0.2809 -0.9405  0.3084
  152MOL   H13724599   5.466   7.549   6.893  4.1822 -0.3452 -1.4888
  152MOL   C13824600   5.623   7.814   7.038  0.2662  0.5536 -0.1947
  152MOL   C13924601   5.727   7.774   7.150 -0.4999  0.0719  0.0373
  152MOL   C14024602   5.872   7.791   7.101  0.0355 -0.6970  0.5737
  152MOL   O14124603   5.903   7.761   6.985 -0.2300 -0.1730 -0.1840
  152MOL   H14224604   5.576   0.049   7.069  0.8236  1.1423 -1.0882
  152MOL   H14324605   5.669   7.821   6.939  0.3651 -3.9929 -0.5424
  152MOL   H14424606   5.719   7.681   7.206  1.5382 -0.2420 -0.1589
  152MOL   H14524607   5.713   7.852   7.225 -1.4795 -0.0203 -0.0503
  152MOL   C14624608   5.966   7.829   7.212  0.0751  0.8889  0.2807
  152MOL   C14724609   6.114   7.854   7.170  0.2270  0.5860 -0.4323
  152MOL   C14824610   6.187   0.058   7.288  0.1352  0.5404  0.2144
  152MOL   O14924611   6.206   0.177   7.281 -0.4012  0.0783  0.0927
  152MOL   H15024612   5.954   7.756   7.291  2.1152  1.7690  1.4551
  152MOL   H15124613   5.929   0.064   7.255 -1.2075 -0.8054  2.9881
  152MOL   H15224614   6.117   0.061   7.083 -0.8409 -0.8084 -1.5324
  152MOL   H15324615   6.150   7.754   7.148 -0.5812 -0.3201  2.2442
  152MOL   C15424616   6.219   7.830   7.407 -0.1823 -0.3914  0.0035
  152MOL   C15524617   6.111   7.786   7.502  0.0703  0.1742  0.0580
  152MOL   C15624618   6.150   7.780   7.646 -0.4041  0.1343 -0.1655
  152MOL   O15724619   6.175   0.025   7.717  0.2208 -0.3036  0.6686
  152MOL   H15824620   6.290   0.029   7.465 -2.0590  0.4008  1.5819
  152MOL   H15924621   6.287   7.748   7.382 -0.5331 -0.3387 -1.1558
  152MOL   H16024622   6.085   7.681   7.491 -2.3740  0.8473 -0.8399
  152MOL   H16124623   6.017   7.840   7.493 -0.3618 -0.4902  0.5657
  152MOL   H16224624   6.151   7.690   7.707 -2.2483  0.7044  0.7575
  153MOL     C124625   5.318   3.971   0.190 -0.1874  0.3797 -0.2488
  153MOL     C224626   5.423   4.023   0.092  0.8755  0.1353 -0.3631
  153MOL     C324627   5.568   3.972   0.106 -0.2047 -0.2599  0.7537
  153MOL     O424628   5.594   3.874   0.178  0.4142 -0.0015  0.8412
  153MOL     H524629   5.323   4.018   0.288 -1.9883 -1.1573  0.6000
  153MOL     H624630   5.219   4.013   0.170 -0.1262  0.6079 -0.0814
  153MOL     H724631   5.429   4.130   0.112  0.9462  0.4814 -2.1494
  153MOL     H824632   5.389   4.001   7.850 -0.8621 -0.5262  0.3318
  153MOL     H924633   5.312   3.863   0.203  0.5390  0.1229 -1.8434
  153MOL    C1024634   5.672   4.041   0.017 -0.3610 -0.1841  0.1101
  153MOL    C1124635   5.798   4.096   0.098  1.0026 -0.1049 -0.2283
  153MOL    C1224636   5.857   4.216   0.028 -0.2201 -0.3844 -0.3318
  153MOL    O1324637   5.861   4.228   7.761  0.0821  0.1399  0.0859
  153MOL    H1424638   5.614   4.117   7.825 -0.8040 -1.1394 -0.8403
  153MOL    H1524639   5.714   3.973   7.800  0.4786 -1.1761  1.4291
  153MOL    H1624640   5.881   4.031   0.124 -0.3713 -1.0960  1.8773
  153MOL    H1724641   5.769   4.127   0.199  0.8593  0.5566 -0.4769
  153MOL    C1824642   5.912   4.320   0.126 -0.3735 -0.2336  0.0564
  153MOL    C1924643   5.893   4.464   0.065  0.2871  0.2131 -0.0911
  153MOL    C2024644   5.982   4.559   0.134 -0.1106 -0.1890 -0.0442
  153MOL    O2124645   6.033   4.551   0.247  0.2591 -0.0023 -0.2975
  153MOL    H2224646   6.017   4.292   0.128 -0.6704 -1.3484  0.8068
  153MOL    H2324647   5.869   4.317   0.227 -0.0229  0.3841  0.2281
  153MOL    H2424648   5.791   4.500   0.077  0.8362  1.4735  0.9872
  153MOL    H2524649   5.914   4.464   7.817  0.8048 -0.7852  0.0078
  153MOL    C2624650   5.999   4.687   0.057  0.1675 -0.1663  0.0499
  153MOL    C2724651   5.999   4.818   0.140 -0.3659 -0.0740 -0.3863
  153MOL    C2824652   6.142   4.874   0.158  0.1352  0.5136 -0.5197
  153MOL    O2924653   6.202   4.942   0.072 -0.4253  0.6707 -0.2372
  153MOL    H3024654   5.907   4.709   0.002  0.5834 -0.5835 -0.8247
  153MOL    H3124655   6.079   4.674   7.843  0.0258  0.6698 -0.2606
  153MOL    H3224656   5.949   4.789   0.232 -1.2712 -1.2581 -1.2354
  153MOL    H3324657   5.942   4.898   0.092  0.4578  0.7039 -0.0987
  153MOL    C3424658   6.209   4.829   0.288  0.7638  0.2193 -0.1420
  153MOL    C3524659   6.332   4.920   0.320  0.0124 -0.4223 -0.5044
  153MOL    C3624660   6.393   4.903   0.459  0.0671  0.1094 -0.1945
  153MOL    O3724661   6.339   4.833   0.549 -0.6538  0.1273  0.3365
  153MOL    H3824662   6.244   4.728   0.267  0.7015 -0.2940  2.0726
  153MOL    H3924663   6.145   4.822   0.376 -2.1403 -2.9708 -2.3544
  153MOL    H4024664   6.296   5.023   0.314  0.2113 -0.2917  0.4165
  153MOL    H4124665   6.402   4.904   0.238 -0.2701 -0.1456 -0.8040
  153MOL    C4224666   6.521   4.978   0.484  0.2336  0.0832  0.3456
  153MOL    C4324667   6.622   4.906   0.575  0.0838 -0.0053  0.1652
  153MOL    C4424668   6.742   4.992   0.618 -0.0135 -0.3003  0.3843
  153MOL    O4524669   6.787   5.097   0.561  0.0870 -0.3340  0.7366
  153MOL    H4624670   6.490   5.071   0.531  0.5989  1.1511 -1.4986
  153MOL    H4724671   6.581   4.997   0.396  0.7915  0.0794  0.7248
  153MOL    H4824672   6.664   4.819   0.523  0.2184  1.4293 -2.1757
  153MOL    H4924673   6.567   4.883   0.666  0.1666 -0.9251 -0.0082
  153MOL    C5024674   6.810   4.948   0.749  0.4141 -0.9044 -0.1695
  153MOL    C5124675   6.928   5.042   0.799 -0.6084 -0.0667 -0.9787
  153MOL    C5224676   6.868   5.159   0.876 -0.3191 -0.1083  0.5317
  153MOL    O5324677   6.772   5.139   0.955 -0.1719  0.2483 -0.4359
  153MOL    H5424678   6.848   4.846   0.733  2.1658  0.0103 -2.2105
  153MOL    H5524679   6.730   4.950   0.822  2.4643  0.4972  2.1007
  153MOL    H5624680   6.992   5.074   0.717  1.3792  1.0101  0.9565
  153MOL    H5724681   6.998   4.993   0.867 -1.4454 -0.6314 -0.5076
  153MOL    C5824682   6.931   5.288   0.861  0.2849  0.3285 -0.0048
  153MOL    C5924683   6.872   5.404   0.932  0.0595  0.4525  0.1491
  153MOL    C6024684   6.822   5.520   0.853 -0.1641 -0.2903  0.5580
  153MOL    O6124685   6.790   5.501   0.735  0.7613 -0.3826  0.2800
  153MOL    H6224686   6.924   5.307   0.754 -0.0312 -2.0102 -0.4175
  153MOL    H6324687   7.035   5.267   0.886 -0.3335 -0.5420  1.9541
  153MOL    H6424688   6.949   5.447   0.996  0.8164  0.2919 -0.6546
  153MOL    H6524689   6.812   5.369   1.016 -1.3131  1.7286 -0.2617
  153MOL    C6624690   6.815   5.657   0.920 -0.0915  0.0488 -0.1687
  153MOL    C6724691   6.719   5.755   0.857  0.1266  0.3285 -0.0307
  153MOL    C6824692   6.648   5.850   0.948 -0.2253 -0.1529 -0.5401
  153MOL    O6924693   6.644   5.829   1.069 -0.0675 -0.2477 -0.1197
  153MOL    H7024694   6.908   5.712   0.907  0.6812 -1.6522 -2.3482
  153MOL    H7124695   6.787   5.646   1.024  0.9454  0.9111  0.2043
  153MOL    H7224696   6.642   5.694   0.810 -0.3207 -0.5052  1.7445
  153MOL    H7324697   6.770   5.813   0.780  0.4057  0.5559  0.3206
  153MOL    C7424698   6.546   5.950   0.895  0.4287  0.3509 -0.4034
  153MOL    C7524699   6.417   5.966   0.970  0.5489 -0.3786 -0.6458
  153MOL    C7624700   6.303   6.047   0.911 -0.4210 -0.0712  1.3178
  153MOL    O7724701   6.326   6.115   0.814  0.3655  0.2392 -0.5038
  153MOL    H7824702   6.528   5.908   0.796  0.2426  0.4098 -0.3959
  153MOL    H7924703   6.589   6.049   0.885 -0.5471  0.8444  0.2266
  153MOL    H8024704   6.433   5.990   1.076 -0.5248 -0.6163 -0.4313
  153MOL    H8124705   6.385   5.863   0.971  0.0625 -0.2308  1.5968
  153MOL    C8224706   6.164   6.027   0.978  0.6019 -0.1202  0.1225
  153MOL    C8324707   6.058   6.085   0.881 -0.1405  0.3880 -0.1159
  153MOL    C8424708   5.994   5.988   0.787 -0.4486 -0.6104  0.1815
  153MOL    O8524709   6.029   5.873   0.778  0.2209  0.1188 -0.0932
  153MOL    H8624710   6.177   6.084   1.070 -1.9832 -0.9698  1.0637
  153MOL    H8724711   6.158   5.921   1.001 -1.5991  0.4927  2.6939
  153MOL    H8824712   6.085   6.175   0.825  2.0420  1.3314  2.2855
  153MOL    H8924713   5.990   6.113   0.961 -2.1258 -3.8267 -0.2089
  153MOL    C9024714   5.871   6.052   0.719  0.2466 -0.1069  0.4200
  153MOL    C9124715   5.772   5.936   0.690  0.2670  0.4389  0.1454
  153MOL    C9224716   5.657   5.978   0.602  0.4412  0.4491 -0.0956
  153MOL    O9324717   5.612   6.092   0.605  0.3022  0.1950 -0.6621
  153MOL    H9424718   5.918   6.084   0.626 -0.3177 -1.5864 -0.3922
  153MOL    H9524719   5.826   6.139   0.767 -0.6764 -0.4279  0.1502
  153MOL    H9624720   5.732   5.904   0.787 -0.2100  0.5392 -0.0162
  153MOL    H9724721   5.820   5.847   0.649  0.6783  0.0212  1.5022
  153MOL    C9824722   5.598   5.871   0.515 -0.3483 -0.4540 -0.1179
  153MOL    C9924723   5.449   5.824   0.544 -0.3737  0.6951 -0.9406
  153MOL   C10024724   5.437   5.722   0.667 -0.3974 -0.1888  0.2707
  153MOL   O10124725   5.528   5.640   0.689  0.5840 -0.1772 -0.2885
  153MOL   H10224726   5.674   5.794   0.526  1.0968  0.6754 -1.7715
  153MOL   H10324727   5.608   5.900   0.410 -0.0817 -0.3919 -0.0771
  153MOL   H10424728   5.404   5.780   0.455 -0.6507  0.2664 -0.5838
  153MOL   H10524729   5.402   5.916   0.577 -0.3264 -0.2957  2.0502
  153MOL   C10624730   5.307   5.724   0.744  0.7012  0.0839  0.5570
  153MOL   C10724731   5.316   5.742   0.906 -0.0439 -0.0818 -0.6168
  153MOL   C10824732   5.230   5.645   0.983 -0.8999 -0.5266 -1.2475
  153MOL   O10924733   5.156   5.561   0.933  0.2551  0.1364 -0.3918
  153MOL   H11024734   5.258   5.637   0.702  0.0661 -0.4724  2.4088
  153MOL   H11124735   5.255   5.806   0.693 -0.9010 -0.9004  0.5998
  153MOL   H11224736   5.280   5.837   0.948  0.1792 -0.7326  1.0905
  153MOL   H11324737   5.421   5.736   0.935  0.2370  0.9396 -1.3887
  153MOL   C11424738   5.235   5.659   1.137 -0.4126  0.0549 -0.7736
  153MOL   C11524739   5.311   5.542   1.208 -0.6583 -0.1583  0.5197
  153MOL   C11624740   5.448   5.578   1.266 -0.0044  0.2424 -0.6113
  153MOL   O11724741   5.541   5.497   1.253  0.1508  0.0773 -0.0570
  153MOL   H11824742   5.132   5.648   1.172  0.1098 -3.6325 -0.2800
  153MOL   H11924743   5.270   5.756   1.171  2.3163 -1.0040 -0.4789
  153MOL   H12024744   5.330   5.455   1.145 -0.8093 -0.5491  1.0086
  153MOL   H12124745   5.257   5.494   1.289 -0.9481 -1.8795 -0.6709
  153MOL   C12224746   5.467   5.717   1.333  0.0757  0.0854 -0.7016
  153MOL   C12324747   5.561   5.810   1.263 -0.2848 -0.9305  1.1840
  153MOL   C12424748   5.490   5.928   1.188 -0.4464  0.6965  0.2790
  153MOL   O12524749   5.392   5.982   1.237  0.0136 -0.0174 -0.0755
  153MOL   H12624750   5.498   5.712   1.437 -1.7873  0.2168 -0.1162
  153MOL   H12724751   5.367   5.760   1.341  0.3287  0.2733  2.0988
  153MOL   H12824752   5.628   5.752   1.199 -1.0498 -0.8703  0.3104
  153MOL   H12924753   5.628   5.870   1.325  0.5410  0.4139 -0.9198
  153MOL   C13024754   5.561   5.974   1.062  0.2406 -0.1329  0.6459
  153MOL   C13124755   5.476   6.063   0.970  0.4146 -0.3033  0.5626
  153MOL   C13224756   5.544   6.191   0.926  0.0240 -0.0400  0.1609
  153MOL   O13324757   5.669   6.209   0.928  0.3254 -0.5252  0.0133
  153MOL   H13424758   5.605   5.897   0.998  0.0283  0.2783  0.0062
  153MOL   H13524759   5.640   6.043   1.092 -0.9372  1.1387  0.8744
  153MOL   H13624760   5.381   6.098   1.011 -1.8859 -1.4303 -3.4383
  153MOL   H13724761   5.453   6.008   0.879  0.0601  1.1588 -0.2522
  153MOL   C13824762   5.453   6.296   0.861 -0.2178  0.8059 -0.7508
  153MOL   C13924763   5.449   6.434   0.925  0.1132 -0.1688  0.1059
  153MOL   C14024764   5.351   6.452   1.042  0.0879 -0.4083 -0.4868
  153MOL   O14124765   5.314   6.351   1.102 -0.7093  0.0530 -0.7096
  153MOL   H14224766   5.355   6.251   0.851 -0.3103  1.0800 -1.0960
  153MOL   H14324767   5.491   6.309   0.760 -4.5155 -0.8065 -2.6875
  153MOL   H14424768   5.402   6.494   0.848  1.3007  0.9109  0.2097
  153MOL   H14524769   5.538   6.492   0.949 -0.4599  0.3890  0.9062
  153MOL   C14624770   5.301   6.590   1.082  0.0462 -0.4233  0.0979
  153MOL   C14724771   5.223   6.595   1.210  0.1458  0.2933 -0.4525
  153MOL   C14824772   5.267   6.719   1.288  0.3427 -0.1027  0.3095
  153MOL   O14924773   5.360   6.710   1.369  0.2789 -0.4735 -0.0208
  153MOL   H15024774   5.247   6.636   0.999  1.8690 -1.4086 -1.6707
  153MOL   H15124775   5.392   6.647   1.099 -0.4144  0.2966  0.1723
  153MOL   H15224776   5.237   6.514   1.281 -2.7103 -1.1955 -1.5062
  153MOL   H15324777   5.116   6.601   1.187  0.2647  1.6942 -0.7121
  153MOL   C15424778   5.197   6.853   1.250 -0.0215 -0.3065  0.4473
  153MOL   C15524779   5.259   6.974   1.328  0.6719  0.3384  0.0555
  153MOL   C15624780   5.348   7.064   1.235  0.7895  0.1039  0.3956
  153MOL   O15724781   5.364   7.038   1.109 -0.4739 -0.1321  0.0938
  153MOL   H15824782   5.091   6.839   1.271 -0.6065  2.7276 -0.2622
  153MOL   H15924783   5.221   6.864   1.145  0.9535 -1.1819  0.5674
  153MOL   H16024784   5.311   6.957   1.422  0.5705 -2.5905 -0.3971
  153MOL   H16124785   5.175   7.038   1.358  0.3697 -0.8188  1.7314
  153MOL   H16224786   5.404   7.143   1.286 -0.0197  0.7062  0.3581
  154MOL     C124787   5.337   5.938   1.610  0.4597 -0.2306 -1.0077
  154MOL     C224788   5.338   5.799   1.663 -0.3859  0.3142  0.6819
  154MOL     C324789   5.219   5.718   1.631  0.3241 -0.0353 -0.2893
  154MOL     O424790   5.126   5.754   1.558 -0.1354 -1.0679  0.2296
  154MOL     H524791   5.347   5.940   1.502  2.8079  0.3316 -0.8111
  154MOL     H624792   5.243   5.987   1.633  0.0099 -0.6075 -2.0255
  154MOL     H724793   5.356   5.802   1.770 -0.6818  2.0388  0.6881
  154MOL     H824794   5.425   5.742   1.628 -0.6423  1.5452 -2.1464
  154MOL     H924795   5.420   6.003   1.638  0.2412  0.1214 -1.1751
  154MOL    C1024796   5.212   5.580   1.693 -0.7471  0.9646 -0.1987
  154MOL    C1124797   5.177   5.470   1.596  0.6697 -1.1162 -0.1462
  154MOL    C1224798   5.301   5.399   1.546 -0.7615  0.7659 -0.0756
  154MOL    O1324799   5.411   5.451   1.560  0.0248 -0.6180 -0.9101
  154MOL    H1424800   5.134   5.586   1.769  0.1170  1.5502  0.6387
  154MOL    H1524801   5.305   5.563   1.746 -1.3857  0.1224  0.6763
  154MOL    H1624802   5.123   5.512   1.511 -0.3193  1.5069  1.7080
  154MOL    H1724803   5.114   5.395   1.644 -1.2383 -0.8413 -2.1842
  154MOL    C1824804   5.292   5.255   1.494 -0.4705  0.1840 -0.4804
  154MOL    C1924805   5.403   5.225   1.385 -0.0909  0.4813 -0.0289
  154MOL    C2024806   5.405   5.077   1.351  0.0627  0.1621  0.1642
  154MOL    O2124807   5.517   5.024   1.332  0.0333 -0.1177  0.2901
  154MOL    H2224808   5.198   5.243   1.441 -1.5183  1.6137  0.9843
  154MOL    H2324809   5.292   5.177   1.570 -2.3439  1.3821  0.8166
  154MOL    H2424810   5.505   5.248   1.419 -0.6091  0.1851  1.7876
  154MOL    H2524811   5.396   5.289   1.297 -1.5224  0.1160 -0.1924
  154MOL    C2624812   5.283   4.986   1.371  0.1218 -0.1758 -0.2870
  154MOL    C2724813   5.313   4.843   1.326 -0.1936  0.5282  0.5951
  154MOL    C2824814   5.194   4.748   1.304  0.1072 -0.3094  0.3493
  154MOL    O2924815   5.095   4.792   1.243 -0.2318  0.1888  0.3871
  154MOL    H3024816   5.202   5.024   1.308 -0.1960 -0.7508 -0.2233
  154MOL    H3124817   5.250   4.993   1.474 -3.1043 -0.5836 -1.2421
  154MOL    H3224818   5.359   4.803   1.416 -1.0299  2.5810  1.9697
  154MOL    H3324819   5.381   4.843   1.241 -2.8289 -1.5755 -1.6199
  154MOL    C3424820   5.197   4.604   1.364 -0.1592  0.0102  0.4289
  154MOL    C3524821   5.084   4.514   1.309  0.7297 -0.0985 -0.6453
  154MOL    C3624822   4.955   4.516   1.388  0.1700 -0.4188  0.3388
  154MOL    O3724823   4.946   4.543   1.509  0.4299  0.0961  0.2699
  154MOL    H3824824   5.172   4.621   1.468  1.9651  2.4045  0.5967
  154MOL    H3924825   5.298   4.564   1.358 -0.0331  0.1680  1.4857
  154MOL    H4024826   5.121   4.411   1.307 -1.6746 -0.9904 -1.3593
  154MOL    H4124827   5.055   4.554   1.212 -0.9432  0.5031  0.0713
  154MOL    C4224828   4.825   4.482   1.310  0.2706 -0.4691 -0.2492
  154MOL    C4324829   4.697   4.475   1.395 -0.4937  0.0367 -0.4095
  154MOL    C4424830   4.654   4.329   1.413  0.4788 -0.4748  0.3459
  154MOL    O4524831   4.726   4.238   1.368 -0.1026 -0.1185 -0.3304
  154MOL    H4624832   4.847   4.398   1.244  2.1303  0.1970 -0.4946
  154MOL    H4724833   4.790   4.565   1.249 -0.9203 -0.6783  0.1279
  154MOL    H4824834   4.614   4.528   1.348 -0.8206  1.3517  1.5734
  154MOL    H4924835   4.716   4.523   1.491  2.1451 -0.1201 -0.8251
  154MOL    C5024836   4.516   4.293   1.474  0.6074 -0.1746  0.1067
  154MOL    C5124837   4.486   4.142   1.480 -0.3454 -0.2314 -0.1017
  154MOL    C5224838   4.436   4.086   1.344 -0.4652  0.2433  0.7274
  154MOL    O5324839   4.423   4.152   1.242  0.5207 -0.1543 -0.5304
  154MOL    H5424840   4.427   4.330   1.424  1.4349  1.0243 -0.5116
  154MOL    H5524841   4.540   4.329   1.574  1.7293  2.6042 -1.1156
  154MOL    H5624842   4.397   4.137   1.542  0.3313  0.9766  0.9904
  154MOL    H5724843   4.565   4.091   1.534 -0.0751  0.9911  0.6671
  154MOL    C5824844   4.399   3.940   1.339 -0.0572 -0.2728 -1.4386
  154MOL    C5924845   4.402   3.880   1.202  0.3824  0.1412  1.1850
  154MOL    C6024846   4.494   3.766   1.185  0.2554 -0.5888  0.5854
  154MOL    O6124847   4.461   3.652   1.214 -0.1136  0.2143 -0.4247
  154MOL    H6224848   4.298   3.918   1.373  1.0225 -0.5645  1.6731
  154MOL    H6324849   4.465   3.890   1.409  0.2107  1.9657 -0.0478
  154MOL    H6424850   4.420   3.947   1.118 -0.6425 -0.2446  0.6504
  154MOL    H6524851   4.304   3.835   1.185  1.6035 -1.3866 -2.2431
  154MOL    C6624852   4.637   3.790   1.136 -0.1838  0.0345  0.4782
  154MOL    C6724853   4.700   3.924   1.176  0.3702  0.1587  0.6010
  154MOL    C6824854   4.832   3.950   1.104 -0.6724 -0.0616 -0.3748
  154MOL    O6924855   4.843   3.944   0.980 -0.3663 -0.2998 -0.2651
  154MOL    H7024856   4.638   3.771   1.028  0.0963 -0.2559  0.5298
  154MOL    H7124857   4.697   3.710   1.178  1.8700  1.0573 -0.4192
  154MOL    H7224858   4.726   3.912   1.281 -0.3356 -1.5410  0.6031
  154MOL    H7324859   4.635   4.006   1.148  1.2355  0.4921 -0.4488
  154MOL    C7424860   4.943   4.005   1.192 -0.0976  0.0054 -0.1619
  154MOL    C7524861   5.057   4.072   1.112  0.0034  0.0062  0.6115
  154MOL    C7624862   5.187   3.991   1.114  0.0836 -0.5769  0.0556
  154MOL    O7724863   5.190   3.888   1.182 -0.0753  0.0210  0.0689
  154MOL    H7824864   4.975   3.948   1.279  2.7466  2.4586  0.4959
  154MOL    H7924865   4.893   4.081   1.252  1.5743  0.1450  1.0977
  154MOL    H8024866   5.084   4.163   1.165  3.0281  0.1870 -1.1020
  154MOL    H8124867   5.026   4.106   1.013  0.5559 -2.5242 -0.4727
  154MOL    C8224868   5.310   4.048   1.034  0.8090 -0.0679  0.2770
  154MOL    C8324869   5.428   3.983   1.077 -0.2220 -0.1983 -0.6440
  154MOL    C8424870   5.545   4.035   1.002  0.1173  0.0558  0.7553
  154MOL    O8524871   5.540   4.024   0.872 -0.2266  0.3098  0.5794
  154MOL    H8624872   5.308   4.156   1.026 -0.7348 -0.2742 -2.7179
  154MOL    H8724873   5.290   4.013   0.932 -0.9035  1.4863  0.0555
  154MOL    H8824874   5.419   3.875   1.070 -1.8250 -0.1182 -0.0272
  154MOL    H8924875   5.452   4.023   1.175 -0.8826 -0.4852 -0.3684
  154MOL    C9024876   5.678   4.074   1.072 -0.3490 -0.7261 -0.1449
  154MOL    C9124877   5.793   4.125   0.979  0.4503  0.2366  0.2417
  154MOL    C9224878   5.758   4.262   0.914 -0.0120  0.0605 -0.8329
  154MOL    O9324879   5.663   4.330   0.953 -0.0298 -0.3816 -0.7382
  154MOL    H9424880   5.717   3.991   1.131 -1.3866 -1.3475 -0.3052
  154MOL    H9524881   5.658   4.150   1.147  1.4001 -0.7069  0.3109
  154MOL    H9624882   5.834   4.049   0.913 -0.1630 -0.4310  0.6221
  154MOL    H9724883   5.880   4.154   1.038 -1.0551  2.4402  1.4604
  154MOL    C9824884   5.852   4.314   0.802  0.3244 -0.0326 -0.1325
  154MOL    C9924885   5.795   4.431   0.713  0.7092 -0.2184 -0.0491
  154MOL   C10024886   5.849   4.564   0.758  0.3143  0.2052 -0.3115
  154MOL   O10124887   5.835   4.599   0.879  0.4778 -0.0354  0.2161
  154MOL   H10224888   5.880   4.233   0.735 -1.3157 -0.4035 -0.3734
  154MOL   H10324889   5.940   4.348   0.858  1.3451  1.5910 -2.6450
  154MOL   H10424890   5.687   4.446   0.719  0.6356 -0.1184 -1.4849
  154MOL   H10524891   5.813   4.413   0.608  0.6192  2.5702 -0.5891
  154MOL   C10624892   5.925   4.642   0.652 -0.4555 -0.2274 -0.1127
  154MOL   C10724893   5.838   4.748   0.588 -0.3301  0.1019 -0.4516
  154MOL   C10824894   5.897   4.888   0.620  0.3665  0.1391  0.1911
  154MOL   O10924895   5.937   4.961   0.526  0.3094 -0.0785 -0.7584
  154MOL   H11024896   5.940   4.570   0.571  0.6545 -0.7708  0.5735
  154MOL   H11124897   6.019   4.678   0.694  0.3620 -1.7603 -0.6094
  154MOL   H11224898   5.732   4.751   0.613 -0.2512  3.4231 -0.3892
  154MOL   H11324899   5.844   4.735   0.480 -0.0061  0.7298 -0.5094
  154MOL   C11424900   5.919   4.919   0.771  0.6068  0.3181  0.2406
  154MOL   C11524901   5.918   5.068   0.804 -0.3455  0.0936  0.0199
  154MOL   C11624902   5.839   5.098   0.934 -0.3429  0.4784 -0.1374
  154MOL   O11724903   5.857   5.026   1.036  0.0255  0.0039  0.1520
  154MOL   H11824904   6.017   4.879   0.797  0.7879  0.1924 -0.6288
  154MOL   H11924905   5.846   4.870   0.835  1.4030 -1.8121 -0.4442
  154MOL   H12024906   5.858   5.115   0.726  0.9334 -2.3171 -2.5250
  154MOL   H12124907   6.019   5.110   0.808 -0.6051  0.7824 -0.4563
  154MOL   C12224908   5.743   5.218   0.947 -0.5095 -0.5035  0.2438
  154MOL   C12324909   5.628   5.211   1.045 -0.8689  0.2325 -0.1937
  154MOL   C12424910   5.494   5.174   0.990  0.0475  0.1760 -0.1958
  154MOL   O12524911   5.396   5.247   1.013  0.1434 -0.0200 -0.8734
  154MOL   H12624912   5.709   5.236   0.845  1.6376  2.1936 -0.0395
  154MOL   H12724913   5.806   5.304   0.967 -0.8979 -0.0577 -0.4122
  154MOL   H12824914   5.619   5.302   1.105  0.3183  1.0118 -1.1698
  154MOL   H12924915   5.645   5.136   1.122 -1.2568  0.0600 -0.2757
  154MOL   C13024916   5.486   5.047   0.910  0.3353 -0.4325 -0.8958
  154MOL   C13124917   5.507   4.919   0.993  0.0617 -0.8512 -0.3318
  154MOL   C13224918   5.548   4.808   0.903  0.3993 -0.4405  0.2496
  154MOL   O13324919   5.611   4.825   0.798  0.6211  0.5707  0.5542
  154MOL   H13424920   5.548   5.049   0.821 -0.7349 -0.3689 -1.6440
  154MOL   H13524921   5.385   5.059   0.871 -0.0392  2.1633  0.7031
  154MOL   H13624922   5.414   4.911   1.050  0.9601  1.2461  1.5175
  154MOL   H13724923   5.589   4.926   1.064  0.4755  0.2412 -0.9107
  154MOL   C13824924   5.520   4.668   0.954  0.0319  0.0961  0.4537
  154MOL   C13924925   5.423   4.591   0.860 -0.3637  0.2346 -0.1212
  154MOL   C14024926   5.300   4.536   0.925 -0.1497 -0.2195 -0.5749
  154MOL   O14124927   5.285   4.556   1.043 -0.6225 -0.0260 -0.3764
  154MOL   H14224928   5.469   4.674   1.050  0.1282  1.2491  0.4389
  154MOL   H14324929   5.608   4.607   0.973  0.5465  1.0041  1.0479
  154MOL   H14424930   5.482   4.514   0.811 -2.1932 -0.4925 -1.2423
  154MOL   H14524931   5.392   4.667   0.788  0.5898  1.9152  1.1998
  154MOL   C14624932   5.197   4.465   0.835  1.0380 -0.3800  0.0370
  154MOL   C14724933   5.048   4.497   0.877 -0.2358 -0.4018  0.1051
  154MOL   C14824934   4.959   4.381   0.855 -0.5854 -0.6298  0.3407
  154MOL   O14924935   4.998   4.267   0.837 -0.0307 -0.9711 -0.0752
  154MOL   H15024936   5.212   4.358   0.829 -0.2213 -0.6860  2.0010
  154MOL   H15124937   5.208   4.521   0.742  0.4585 -1.9236 -0.9725
  154MOL   H15224938   5.014   4.576   0.810 -0.5329  1.5258  2.4154
  154MOL   H15324939   5.050   4.545   0.975 -0.1022 -1.6257  0.7055
  154MOL   C15424940   4.810   4.412   0.821  0.2340 -0.2568 -0.0367
  154MOL   C15524941   4.723   4.285   0.787 -0.1740  0.7099  0.4352
  154MOL   C15624942   4.574   4.311   0.813  0.3408 -0.3672  0.0682
  154MOL   O15724943   4.536   4.409   0.876  0.1058  0.2138 -0.0132
  154MOL   H15824944   4.806   4.490   0.745 -1.4176  2.9099  3.1996
  154MOL   H15924945   4.773   4.451   0.915 -1.3211 -0.8944 -0.3824
  154MOL   H16024946   4.747   4.203   0.856 -1.6574 -0.5865 -0.5617
  154MOL   H16124947   4.756   4.265   0.685  1.9732  0.4694  1.1551
  154MOL   H16224948   4.511   4.234   0.769  1.9076 -1.8562  0.3779
  155MOL     C124949   7.277   4.342   1.446 -0.2843  0.0810  0.2330
  155MOL     C224950   7.421   4.347   1.507  0.1027  0.1396  0.3249
  155MOL     C324951   7.517   4.432   1.420  0.3312 -0.1195  0.1321
  155MOL     O424952   7.490   4.465   1.309 -0.1319 -0.5287  0.3272
  155MOL     H524953   7.285   4.290   1.350  1.3895 -0.2452  0.5274
  155MOL     H624954   7.218   4.290   1.521  0.1820 -1.1584 -0.2449
  155MOL     H724955   7.469   4.250   1.521  1.2904  1.1609  3.6812
  155MOL     H824956   7.414   4.388   1.607  1.1177  1.2077 -0.0354
  155MOL     H924957   7.233   4.441   1.433 -1.3209 -0.4512 -0.4023
  155MOL    C1024958   7.650   4.473   1.482 -0.3335 -0.2928 -0.2351
  155MOL    C1124959   7.742   4.562   1.388  0.5282  0.4348  0.0241
  155MOL    C1224960   7.856   4.485   1.315 -0.2545 -0.2751 -0.1196
  155MOL    O1324961   0.003   4.363   1.307  0.3790  0.0880 -0.4024
  155MOL    H1424962   7.708   4.384   1.507  0.9881  0.4969 -0.4582
  155MOL    H1524963   7.640   4.524   1.578 -0.0101 -0.0830 -0.3130
  155MOL    H1624964   7.785   4.638   1.453  3.9286 -0.8056 -0.6805
  155MOL    H1724965   7.675   4.619   1.324 -0.1440 -0.1326  0.2195
  155MOL    C1824966   0.108   4.576   1.260 -0.5088  0.1415 -0.0541
  155MOL    C1924967   0.051   4.655   1.139 -0.9516  0.4243  0.0690
  155MOL    C2024968   0.135   4.620   1.016 -0.6110  0.3175  0.2879
  155MOL    O2124969   0.171   4.508   1.002 -0.6450  0.2682 -0.2201
  155MOL    H2224970   0.191   4.517   1.222 -1.6797 -0.4818 -1.7242
  155MOL    H2324971   0.153   4.637   1.338 -0.6367 -0.6315  0.6407
  155MOL    H2424972   0.063   4.762   1.156 -0.2870  0.1580  1.3600
  155MOL    H2524973   7.803   4.639   1.125 -0.5911 -1.1343 -1.0280
  155MOL    C2624974   0.165   4.734   0.914 -0.1810  0.4643  0.9231
  155MOL    C2724975   0.122   4.699   0.773 -0.5764  0.0874 -0.7746
  155MOL    C2824976   0.136   4.818   0.681 -0.0536 -0.6008  0.1100
  155MOL    O2924977   0.236   4.894   0.692  0.9043  0.2206  0.1144
  155MOL    H3024978   0.272   4.755   0.920 -0.4313  1.6835  1.2822
  155MOL    H3124979   0.117   4.826   0.946 -0.8056  0.5503 -0.2289
  155MOL    H3224980   0.016   4.674   0.771 -0.9089  0.8913  2.7788
  155MOL    H3324981   0.171   4.613   0.727  0.7408 -0.0229  0.7875
  155MOL    C3424982   0.013   4.853   0.593  0.4832  0.2299 -0.4048
  155MOL    C3524983   0.036   4.989   0.523 -0.3000  0.0950  0.2591
  155MOL    C3624984   7.855   5.112   0.589  0.4610  0.0610 -0.1412
  155MOL    O3724985   7.740   5.145   0.580 -0.0867  0.1251 -0.3019
  155MOL    H3824986   7.776   4.849   0.646 -0.3527 -0.3294 -1.9343
  155MOL    H3924987   0.008   4.779   0.513  2.1001  0.4011 -0.6740
  155MOL    H4024988   7.844   4.989   0.427  2.3595  3.3698 -1.2796
  155MOL    H4124989   0.141   4.992   0.491 -0.2167 -0.8891  0.4240
  155MOL    C4224990   0.091   5.192   0.669  0.1257 -0.6412 -0.1180
  155MOL    C4324991   0.025   5.285   0.775 -0.1584 -0.3981 -0.2205
  155MOL    C4424992   0.120   5.365   0.863 -0.0750 -0.3806 -0.2531
  155MOL    O4524993   0.243   5.356   0.841  0.1616 -0.0814  0.4326
  155MOL    H4624994   0.152   5.235   0.590 -1.5752 -0.3797 -1.3004
  155MOL    H4724995   0.148   5.115   0.722  0.4741 -1.2333 -1.3421
  155MOL    H4824996   7.835   5.209   0.836 -0.3297 -0.6784 -0.7086
  155MOL    H4924997   7.817   5.350   0.720 -0.2172 -0.6084 -0.3955
  155MOL    C5024998   0.060   5.457   0.979  0.1117  0.0259  0.4592
  155MOL    C5124999   0.132   5.597   0.987 -0.4523 -0.0641  0.3363
  155MOL    C5225000   0.200   5.615   1.125 -0.2590  0.2421  0.0125
  155MOL    O5325001   0.199   5.527   1.208  0.3788  0.7174  0.3772
  155MOL    H5425002   0.065   5.404   1.074  2.3683 -2.6147 -1.0773
  155MOL    H5525003   7.813   5.475   0.961  0.2706  0.2077 -0.3070
  155MOL    H5625004   0.068   5.684   0.970  0.2400  0.4584  0.4104
  155MOL    H5725005   0.214   5.608   0.916  0.1562 -0.7367  0.9321
  155MOL    C5825006   0.275   5.751   1.147  0.2682 -0.5713  0.0951
  155MOL    C5925007   0.290   5.780   1.304 -0.3393  0.7915  0.0403
  155MOL    C6025008   0.192   5.886   1.357  0.0765 -0.2896 -0.1267
  155MOL    O6125009   0.096   5.930   1.289 -0.5484  0.2764  0.3696
  155MOL    H6225010   0.224   5.831   1.092  1.4881  0.1581  0.0190
  155MOL    H6325011   0.373   5.737   1.103  0.3752  2.3922 -0.7564
  155MOL    H6425012   0.393   5.814   1.317 -0.8054  2.2252  0.0146
  155MOL    H6525013   0.279   5.699   1.377  1.0328 -0.1190 -0.7484
  155MOL    C6625014   0.230   5.941   1.491 -0.0048 -0.1946  0.4073
  155MOL    C6725015   0.119   5.925   1.595 -0.0296 -0.1507  0.0779
  155MOL    C6825016   0.050   6.044   1.657  0.0153  0.2332  0.0530
  155MOL    O6925017   0.115   6.148   1.673 -0.9829 -0.1309  0.0081
  155MOL    H7025018   0.266   6.043   1.483  1.9200 -0.8327  0.6905
  155MOL    H7125019   0.311   5.879   1.528 -0.9853 -1.5714  0.2925
  155MOL    H7225020   0.164   5.880   1.683 -1.3284  0.8736  1.2862
  155MOL    H7325021   0.041   5.854   1.566 -1.6121  1.0753  1.2067
  155MOL    C7425022   7.755   6.051   1.676  0.1364 -0.0918 -0.3777
  155MOL    C7525023   7.720   6.200   1.706  0.5836  0.0454  0.3475
  155MOL    C7625024   7.588   6.222   1.770  0.0120 -0.4296 -0.1776
  155MOL    O7725025   7.567   6.189   1.885  0.4878 -0.5075 -0.0100
  155MOL    H7825026   7.721   5.987   1.757  0.6872 -2.4143 -1.9249
  155MOL    H7925027   7.710   6.015   1.583  1.5861 -2.4258 -0.2235
  155MOL    H8025028   7.730   6.259   1.614  3.6336  0.5881  0.9656
  155MOL    H8125029   7.787   6.241   1.781  0.8586  1.6018 -0.7155
  155MOL    C8225030   7.481   6.298   1.698  0.4048 -0.4178 -0.2906
  155MOL    C8325031   7.404   6.211   1.589  0.3533  0.3037  0.2588
  155MOL    C8425032   7.451   6.233   1.445 -0.5693  0.6637  0.4556
  155MOL    O8525033   7.551   6.300   1.415  0.4236 -0.2344  0.1862
  155MOL    H8625034   7.535   6.381   1.652 -2.2486  1.2444 -0.4610
  155MOL    H8725035   7.407   6.332   1.771  0.0657 -1.3440 -0.1901
  155MOL    H8825036   7.298   6.228   1.609  0.5227  1.9898 -0.1134
  155MOL    H8925037   7.427   6.108   1.613 -0.3940  0.2879  0.9363
  155MOL    C9025038   7.376   6.159   1.330  0.2840  0.1060 -0.1540
  155MOL    C9125039   7.476   6.116   1.221  0.0050 -0.1718 -0.4456
  155MOL    C9225040   7.544   5.983   1.257 -0.0631  0.1450  0.6206
  155MOL    O9325041   7.550   5.941   1.373 -0.0229 -0.0531  0.5566
  155MOL    H9425042   7.299   6.218   1.280  1.1763  1.4749  0.0844
  155MOL    H9525043   7.322   6.077   1.377 -1.3202  0.1908 -1.8129
  155MOL    H9625044   7.558   6.187   1.209  0.7129 -0.6583  1.2907
  155MOL    H9725045   7.442   6.099   1.119  1.0458 -0.5923 -0.7302
  155MOL    C9825046   7.607   5.909   1.137 -0.1389 -0.0616 -0.0576
  155MOL    C9925047   7.691   5.782   1.172 -1.1972 -0.3654 -0.9271
  155MOL   C10025048   7.620   5.650   1.147  0.3430  0.5580 -0.0502
  155MOL   O10125049   7.550   5.648   1.042  0.5283  1.0400  0.1732
  155MOL   H10225050   7.685   5.961   1.081  2.2411 -1.4678  1.8603
  155MOL   H10325051   7.529   5.880   1.066 -1.9364  0.5727  1.6145
  155MOL   H10425052   7.713   5.781   1.279 -0.7724 -1.3686 -1.0228
  155MOL   H10525053   7.783   5.778   1.115 -0.0038 -0.1422  0.9419
  155MOL   C10625054   7.658   5.522   1.222  0.3602 -1.1740  0.2325
  155MOL   C10725055   7.558   5.409   1.207 -0.0079 -1.3007  0.6438
  155MOL   C10825056   7.597   5.314   1.093 -0.2710 -0.2929  0.4314
  155MOL   O10925057   7.707   5.259   1.099 -0.5985 -0.5310 -0.3445
  155MOL   H11025058   7.683   5.546   1.325 -2.0755 -1.8891  1.0117
  155MOL   H11125059   7.751   5.507   1.167  0.1576 -1.0126 -0.1596
  155MOL   H11225060   7.457   5.448   1.195  0.9074  1.1594  0.5797
  155MOL   H11325061   7.537   5.347   1.294 -3.1436 -0.6874  0.4011
  155MOL   C11425062   7.500   5.294   0.978 -0.0045 -0.1721 -0.1124
  155MOL   C11525063   7.528   5.174   0.882 -0.2779  0.0348  0.4049
  155MOL   C11625064   7.436   5.064   0.915  0.7461  0.2993 -0.0754
  155MOL   O11725065   7.307   5.073   0.918 -0.6479 -0.1164  0.1254
  155MOL   H11825066   7.512   5.389   0.928  2.0427 -0.5047 -0.3052
  155MOL   H11925067   7.399   5.286   1.018  1.0798 -0.6453  2.6537
  155MOL   H12025068   7.635   5.159   0.893 -0.3122  0.2888  1.1072
  155MOL   H12125069   7.520   5.202   0.777  2.4222 -0.7953 -0.0699
  155MOL   C12225070   7.495   4.928   0.953  0.2599  0.0543  0.6433
  155MOL   C12325071   7.524   4.924   1.104  0.0324 -0.5956 -1.3585
  155MOL   C12425072   7.666   4.934   1.146  1.0445  0.4744  0.1067
  155MOL   O12525073   7.750   4.932   1.058  0.1370 -0.1026 -0.1364
  155MOL   H12625074   7.566   4.896   0.877 -0.4136 -0.2336  0.1318
  155MOL   H12725075   7.421   4.851   0.929  1.7776 -1.7555  1.5866
  155MOL   H12825076   7.509   4.823   1.143 -1.0620  0.2695  0.5101
  155MOL   H12925077   7.462   4.994   1.158 -1.6222 -0.6860 -3.0798
  155MOL   C13025078   7.698   4.917   1.299  0.1337  0.3436 -0.5077
  155MOL   C13125079   7.666   5.044   1.377  0.1565 -0.0181 -0.0267
  155MOL   C13225080   7.785   5.081   1.464  1.0659 -0.4563 -0.2377
  155MOL   O13325081   0.011   5.000   1.481  0.3211 -0.1964 -0.2236
  155MOL   H13425082   7.803   4.887   1.299  0.4048  1.2848 -0.3920
  155MOL   H13525083   7.634   4.840   1.343 -1.1266  0.3187 -2.3226
  155MOL   H13625084   7.583   5.026   1.445  1.4717  0.8818  1.8394
  155MOL   H13725085   7.619   5.107   1.302 -0.5382 -0.0203  0.4052
  155MOL   C13825086   7.805   5.227   1.510 -0.0628  0.1181  0.9940
  155MOL   C13925087   0.075   5.277   1.439 -0.1317 -0.6566 -0.1573
  155MOL   C14025088   0.197   5.299   1.532 -0.2667  1.2411 -0.7263
  155MOL   O14125089   0.201   5.261   1.650 -0.1877  0.2140  0.3660
  155MOL   H14225090   7.824   5.220   1.618  0.6451 -0.3008  0.8438
  155MOL   H14325091   7.717   5.291   1.500  0.9088  1.5382  1.3782
  155MOL   H14425092   0.056   5.376   1.396 -1.7235 -1.6626 -1.8554
  155MOL   H14525093   0.094   5.222   1.347  0.4901  2.2870 -1.8680
  155MOL   C14625094   0.309   5.373   1.461  0.3132  0.4710 -0.4194
  155MOL   C14725095   0.438   5.378   1.542 -0.2740 -0.1215 -0.0869
  155MOL   C14825096   0.505   5.518   1.564 -0.0974 -0.2613  0.3202
  155MOL   O14925097   0.450   5.627   1.557  0.5357 -0.0340  0.1805
  155MOL   H15025098   0.270   5.474   1.452 -2.9267 -0.6099  0.8525
  155MOL   H15125099   0.328   5.341   1.359 -0.3190 -0.4190 -0.2581
  155MOL   H15225100   0.503   5.310   1.487  0.7409  1.1495 -0.5051
  155MOL   H15325101   0.420   5.343   1.644  0.0091  0.8298  0.2988
  155MOL   C15425102   0.653   5.517   1.607 -0.4067  0.0767  0.4649
  155MOL   C15525103   0.704   5.658   1.658  0.5452 -0.5744  0.1342
  155MOL   C15625104   0.851   5.657   1.679  0.4790  0.5957 -0.0217
  155MOL   O15725105   0.901   5.555   1.722  0.0081 -0.0614 -0.5654
  155MOL   H15825106   0.717   5.492   1.522  0.7731 -0.7208  1.5735
  155MOL   H15925107   0.668   5.439   1.682 -1.7071 -0.8501 -0.2179
  155MOL   H16025108   0.645   5.682   1.746 -0.9180 -0.9704 -0.7271
  155MOL   H16125109   0.681   5.740   1.591  0.9178  0.0518  0.7555
  155MOL   H16225110   0.900   5.753   1.664  2.1734 -0.0906  1.0554
  156MOL     C125111   6.160   1.769   3.280 -0.4477 -0.0593  0.2958
  156MOL     C225112   6.014   1.826   3.260  0.1972  0.2253  0.0119
  156MOL     C325113   5.933   1.747   3.162 -0.0658 -0.8526  0.1350
  156MOL     O425114   5.955   1.628   3.135  0.2161  0.1048 -0.6255
  156MOL     H525115   6.151   1.669   3.322 -1.3111  0.3949  1.1926
  156MOL     H625116   6.208   1.761   3.182 -0.3450 -0.0642  0.3472
  156MOL     H725117   6.013   1.925   3.214  0.6201 -0.0786 -0.6567
  156MOL     H825118   5.953   1.831   3.351  2.8783  0.7714  1.8277
  156MOL     H925119   6.231   1.833   3.332 -1.9833  1.6171  0.3934
  156MOL    C1025120   5.819   1.829   3.083 -1.1449 -0.6712 -0.4167
  156MOL    C1125121   5.762   1.744   2.968 -0.4642  0.0750 -0.5597
  156MOL    C1225122   5.636   1.680   3.010  0.5636  0.7201 -0.1090
  156MOL    O1325123   5.536   1.748   3.033  0.3706  0.1893  0.3479
  156MOL    H1425124   5.867   1.916   3.038 -0.1257 -0.1111  1.6625
  156MOL    H1525125   5.747   1.860   3.158  0.5812  1.0564  0.5724
  156MOL    H1625126   5.817   1.657   2.932 -1.8058 -0.1641 -2.1117
  156MOL    H1725127   5.722   1.805   2.887 -3.5463  0.9377  1.5391
  156MOL    C1825128   5.644   1.533   3.053 -0.2442 -0.1389 -0.6730
  156MOL    C1925129   5.507   1.479   3.097 -0.4005  0.2038 -0.4685
  156MOL    C2025130   5.530   1.335   3.139  0.2477 -0.0992 -0.0353
  156MOL    O2125131   5.594   1.302   3.237  0.3781 -0.4212 -0.3198
  156MOL    H2225132   5.706   1.532   3.142 -3.0500  1.9821  1.4123
  156MOL    H2325133   5.692   1.468   2.980  0.6922 -1.2885  0.9228
  156MOL    H2425134   5.438   1.479   3.013  0.3659 -1.6245 -1.1162
  156MOL    H2525135   5.473   1.543   3.179 -1.0281  1.5059 -1.7141
  156MOL    C2625136   5.466   1.223   3.058  0.2045 -0.2927  0.2889
  156MOL    C2725137   5.501   1.081   3.113  0.2789 -0.6696  0.9798
  156MOL    C2825138   5.398   1.042   3.221  0.3232  0.7940  0.4142
  156MOL    O2925139   5.273   1.041   3.199 -0.2977  0.5327  0.4505
  156MOL    H3025140   5.508   1.238   2.958 -0.1113  2.4425  0.5426
  156MOL    H3125141   5.363   1.256   3.063  0.5773  0.6316  2.2648
  156MOL    H3225142   5.602   1.078   3.153  0.8928 -0.3452 -0.5143
  156MOL    H3325143   5.496   1.004   3.036 -0.5212  0.1746  0.1829
  156MOL    C3425144   5.459   1.016   3.355 -0.0813  0.5582 -0.0573
  156MOL    C3525145   5.363   0.945   3.458  0.0697 -0.3446 -0.4283
  156MOL    C3625146   5.319   1.052   3.559 -0.2383 -0.2908  0.2956
  156MOL    O3725147   5.355   1.041   3.675  0.2498 -0.5949 -0.4996
  156MOL    H3825148   5.489   1.115   3.390  1.2666 -0.3933  1.5686
  156MOL    H3925149   5.545   0.954   3.332  0.3950  0.9311  0.6983
  156MOL    H4025150   5.403   0.865   3.520  2.0688  0.2439 -0.8957
  156MOL    H4125151   5.277   0.912   3.399  0.2296  1.5091 -1.7547
  156MOL    C4225152   5.217   1.162   3.522  0.3479 -0.0266 -0.0724
  156MOL    C4325153   5.256   1.301   3.579 -0.0156 -0.5206 -0.5475
  156MOL    C4425154   5.341   1.391   3.485  0.2396  0.9263  1.1118
  156MOL    O4525155   5.315   1.394   3.363 -0.4640  0.9964  0.3309
  156MOL    H4625156   5.124   1.133   3.572  0.6818  0.1456  0.6551
  156MOL    H4725157   5.195   1.158   3.415 -1.3231 -0.7594  0.2826
  156MOL    H4825158   5.318   1.294   3.668  0.0784 -0.1947 -0.5851
  156MOL    H4925159   5.161   1.351   3.596  0.3017 -0.4682  1.1311
  156MOL    C5025160   5.445   1.473   3.544 -0.1843 -0.4152  0.4297
  156MOL    C5125161   5.581   1.403   3.567  0.5546 -0.2070  0.0465
  156MOL    C5225162   5.706   1.469   3.502  0.0696 -0.1402 -0.7775
  156MOL    O5325163   5.702   1.583   3.463  0.4612  0.0024  0.3091
  156MOL    H5425164   5.403   1.514   3.635 -0.3075  0.1764  0.1129
  156MOL    H5525165   5.464   1.561   3.482  2.6930  0.4513  2.4005
  156MOL    H5625166   5.567   1.301   3.532  0.0676  0.3917 -1.5199
  156MOL    H5725167   5.604   1.401   3.674  2.0107 -0.3725 -0.2491
  156MOL    C5825168   5.829   1.380   3.491 -0.2186  0.2342  0.2764
  156MOL    C5925169   5.936   1.437   3.387  1.0198  0.0413  0.4543
  156MOL    C6025170   6.059   1.348   3.376 -0.2978 -0.3314 -0.0225
  156MOL    O6125171   6.089   1.276   3.466 -0.3277 -0.3654  0.1999
  156MOL    H6225172   5.796   1.278   3.470 -1.4771  1.2313 -2.8256
  156MOL    H6325173   5.883   1.368   3.585  0.8847 -3.2265 -0.7360
  156MOL    H6425174   5.982   1.533   3.410 -2.4022  2.3667 -1.8815
  156MOL    H6525175   5.893   1.457   3.289  2.6730  4.1617  0.5060
  156MOL    C6625176   6.150   1.361   3.253 -0.1073  0.7194  0.1460
  156MOL    C6725177   6.272   1.260   3.245 -0.1765  0.2589 -0.5951
  156MOL    C6825178   6.350   1.283   3.115  0.0737 -0.1332 -0.1104
  156MOL    O6925179   6.327   1.217   3.013 -0.0063 -0.1124 -0.5177
  156MOL    H7025180   6.196   1.459   3.261 -2.0183  1.7203 -0.6934
  156MOL    H7125181   6.090   1.357   3.162  1.2223 -0.3372 -0.7209
  156MOL    H7225182   6.238   1.157   3.254  2.5026 -0.4875  1.5134
  156MOL    H7325183   6.333   1.280   3.333  0.7498  1.9450 -1.5986
  156MOL    C7425184   6.455   1.391   3.109  0.5561 -0.5199  0.5350
  156MOL    C7525185   6.518   1.407   2.966 -0.1052  0.5988  0.6784
  156MOL    C7625186   6.600   1.532   2.937  0.2337  0.8541  0.5719
  156MOL    O7725187   6.611   1.622   3.021 -0.8048  0.4948  0.0485
  156MOL    H7825188   6.524   1.368   3.189 -1.0401  0.6979  2.3269
  156MOL    H7925189   6.404   1.484   3.135  0.8196  0.0380 -0.9068
  156MOL    H8025190   6.440   1.402   2.890  0.5696 -1.2633  0.0983
  156MOL    H8125191   6.583   1.322   2.948 -2.5008 -0.7255 -2.0737
  156MOL    C8225192   6.667   1.534   2.800  0.1485 -0.1972  0.5693
  156MOL    C8325193   6.815   1.578   2.819  0.3003 -0.0777  1.1461
  156MOL    C8425194   6.914   1.467   2.859 -0.3474  0.5955  0.9696
  156MOL    O8525195   6.878   1.352   2.891  0.0623  0.2345  0.1747
  156MOL    H8625196   6.609   1.605   2.742  1.6665  1.2065  0.7244
  156MOL    H8725197   6.655   1.436   2.755  0.7730 -0.4488  0.9363
  156MOL    H8825198   6.831   1.659   2.890  1.6038  1.0952 -0.4477
  156MOL    H8925199   6.847   1.614   2.721  0.3003 -0.3035  1.0637
  156MOL    C9025200   7.065   1.490   2.825 -0.3636 -0.1490  0.3944
  156MOL    C9125201   7.159   1.386   2.892 -0.7194  0.3535  0.5124
  156MOL    C9225202   7.227   1.313   2.784 -0.0208  0.3085 -0.0438
  156MOL    O9325203   7.334   1.356   2.741 -0.0936  0.4833 -0.4070
  156MOL    H9425204   7.102   1.585   2.863 -0.2241  0.0433 -0.2088
  156MOL    H9525205   7.071   1.490   2.716  1.2772 -0.5678  0.4664
  156MOL    H9625206   7.114   1.302   2.945 -1.1570 -1.4346 -2.5649
  156MOL    H9725207   7.242   1.424   2.952 -0.1862 -2.2311  1.4719
  156MOL    C9825208   7.162   1.189   2.709  0.6987  0.0955 -0.7438
  156MOL    C9925209   7.233   1.124   2.586 -0.8436 -0.5034 -0.4753
  156MOL   C10025210   7.170   1.006   2.524 -0.3505  0.1112  0.0674
  156MOL   O10125211   7.078   0.945   2.577 -0.0546 -0.3023 -0.4319
  156MOL   H10225212   7.059   1.217   2.689  0.7120  0.2711 -0.5633
  156MOL   H10325213   7.145   1.107   2.779  0.8014  0.8803  0.2031
  156MOL   H10425214   7.333   1.098   2.621 -0.6500  2.1628  1.0811
  156MOL   H10525215   7.250   1.206   2.516  0.4816  2.0910  2.7430
  156MOL   C10625216   7.236   0.951   2.397  0.1713  0.5081 -0.1189
  156MOL   C10725217   7.251   0.795   2.411 -0.2914 -0.4268 -0.4271
  156MOL   C10825218   7.347   0.741   2.308 -0.3099 -0.3699 -1.0525
  156MOL   O10925219   7.390   0.801   2.207 -0.0081 -0.1812  0.5440
  156MOL   H11025220   7.336   0.990   2.378 -0.7097  2.9175  0.1032
  156MOL   H11125221   7.172   0.983   2.315  0.5389  1.8009  0.0829
  156MOL   H11225222   7.154   0.747   2.397  0.1420 -1.0408 -1.3747
  156MOL   H11325223   7.290   0.774   2.511 -1.0458  0.6629  0.1008
  156MOL   C11425224   7.395   0.603   2.342 -0.1686 -0.2667  0.0266
  156MOL   C11525225   7.546   0.599   2.364 -0.5469 -0.5737  0.4353
  156MOL   C11625226   7.587   0.514   2.487  0.3774 -0.0494 -0.2467
  156MOL   O11725227   7.538   0.541   2.596  0.0571  0.3365  0.4924
  156MOL   H11825228   7.374   0.570   2.241 -2.9772  0.1685  0.4170
  156MOL   H11925229   7.333   0.546   2.412  0.5653 -2.5292 -1.1381
  156MOL   H12025230   7.597   0.694   2.374  1.1376 -1.4131 -0.0338
  156MOL   H12125231   7.594   0.547   2.281 -0.7960  1.1210 -0.7899
  156MOL   C12225232   7.670   0.390   2.471 -0.1096  0.9525  0.0597
  156MOL   C12325233   7.718   0.329   2.607 -0.1563  0.1934  0.1342
  156MOL   C12425234   0.006   0.334   2.636 -0.4943 -0.5128  0.1945
  156MOL   O12525235   0.068   0.225   2.628  0.5384  0.3026  0.0025
  156MOL   H12625236   7.759   0.425   2.419 -0.1418  0.0190 -0.6244
  156MOL   H12725237   7.630   0.306   2.415  1.7679 -0.1915  0.3688
  156MOL   H12825238   7.681   0.226   2.613  2.2173 -0.7803 -1.2117
  156MOL   H12925239   7.667   0.367   2.696 -0.3118 -0.2970  0.2565
  156MOL   C13025240   0.075   0.470   2.661 -0.0406  0.1071 -0.3933
  156MOL   C13125241   0.173   0.506   2.550 -0.2633 -0.2525 -0.4263
  156MOL   C13225242   0.129   0.602   2.444  0.3248  0.7736  0.3311
  156MOL   O13325243   0.017   0.652   2.446  0.2626  0.2556 -0.5673
  156MOL   H13425244   0.132   0.455   2.752  0.1392  0.0895 -0.5084
  156MOL   H13525245   0.014   0.557   2.686 -1.3450 -1.0011  0.3392
  156MOL   H13625246   0.200   0.416   2.494  0.0238 -0.8062  0.5686
  156MOL   H13725247   0.263   0.558   2.584 -0.8572  1.1098 -0.9445
  156MOL   C13825248   0.219   0.624   2.330 -0.1772  0.4080  0.2939
  156MOL   C13925249   0.142   0.619   2.197 -0.6109 -0.4156  0.2988
  156MOL   C14025250   0.228   0.612   2.071 -0.3606 -0.6572  0.4655
  156MOL   O14125251   0.325   0.536   2.069  0.1800 -0.2894  0.4825
  156MOL   H14225252   0.283   0.537   2.320 -0.3776  0.3217 -0.2740
  156MOL   H14325253   0.276   0.716   2.332  0.9273 -0.2750  0.4622
  156MOL   H14425254   0.085   0.710   2.176 -1.2485 -0.8898 -0.0331
  156MOL   H14525255   0.063   0.544   2.207 -0.8201 -0.0994  1.0567
  156MOL   C14625256   0.218   0.721   1.961 -0.4202  0.7427 -0.0076
  156MOL   C14725257   0.366   0.757   1.919 -0.5536 -0.1178  0.2018
  156MOL   C14825258   0.427   0.866   1.993 -0.7349 -0.6222 -0.6304
  156MOL   O14925259   0.375   0.919   2.089  0.6589  0.1449 -0.1072
  156MOL   H15025260   0.163   0.811   1.988 -0.9208  0.3588  0.2535
  156MOL   H15125261   0.158   0.676   1.882  1.0949 -0.7747 -0.3044
  156MOL   H15225262   0.360   0.782   1.813  0.3228 -1.8898 -0.2918
  156MOL   H15325263   0.427   0.668   1.902 -0.1715  0.2483 -0.3258
  156MOL   C15425264   0.560   0.929   1.938  0.0050  0.1094  0.4840
  156MOL   C15525265   0.635   1.028   2.039 -0.5964  0.5438 -0.0846
  156MOL   C15625266   0.625   1.170   2.004 -0.3587 -0.2423 -0.2647
  156MOL   O15725267   0.524   1.213   1.945 -0.5767 -0.6072 -1.0031
  156MOL   H15825268   0.546   0.973   1.840 -3.1180 -0.3825  0.6788
  156MOL   H15925269   0.634   0.849   1.929  0.2982  0.4242  0.0899
  156MOL   H16025270   0.739   0.995   2.050 -0.3308  0.2643 -3.0538
  156MOL   H16125271   0.583   1.021   2.134 -2.3626  0.2847 -1.0576
  156MOL   H16225272   0.711   1.234   2.025 -0.3972 -0.5140  0.7390
  157MOL     C125273   4.621   0.917   1.369  0.2611 -0.0933 -0.8733
  157MOL     C225274   4.521   0.827   1.296 -0.0775 -0.5743  0.2522
  157MOL     C325275   4.393   0.816   1.376  0.2917  0.2296  0.2337
  157MOL     O425276   4.369   0.716   1.444  0.0918  0.0523 -0.0321
  157MOL     H525277   4.713   0.924   1.311  1.0736  0.2640  0.4102
  157MOL     H625278   4.584   1.018   1.390  0.0617  0.1901 -2.5124
  157MOL     H725279   4.546   0.722   1.280 -1.9376 -1.4069  2.6619
  157MOL     H825280   4.493   0.875   1.202  1.6272  1.4096  0.7054
  157MOL     H925281   4.640   0.871   1.466  1.2304 -0.0753 -1.0504
  157MOL    C1025282   4.293   0.928   1.358  0.9803  0.3595 -0.9487
  157MOL    C1125283   4.160   0.889   1.430  0.8268 -0.2366 -0.3541
  157MOL    C1225284   4.155   0.924   1.578 -0.1238 -0.5035  0.2863
  157MOL    O1325285   4.232   1.004   1.622 -0.5925 -0.2891 -0.0668
  157MOL    H1425286   4.274   0.930   1.251  1.9660  1.6436 -1.1080
  157MOL    H1525287   4.333   1.025   1.389 -1.5847  1.3433 -0.5766
  157MOL    H1625288   4.142   0.781   1.421  1.5119 -0.3837  0.0107
  157MOL    H1725289   4.072   0.937   1.386  1.1987  0.1797 -0.6419
  157MOL    C1825290   4.064   0.850   1.668 -0.2295 -0.4318 -0.0111
  157MOL    C1925291   4.099   0.700   1.662 -1.0062 -0.5864  0.1662
  157MOL    C2025292   4.044   0.623   1.777  0.0250 -0.0364 -0.5621
  157MOL    O2125293   4.010   0.688   1.878  0.1911 -0.2639 -0.4308
  157MOL    H2225294   3.960   0.865   1.642 -0.1930  0.1545  0.1812
  157MOL    H2325295   4.078   0.901   1.764  2.3121 -1.6288  0.3021
  157MOL    H2425296   4.208   0.694   1.669 -0.6801  3.2166 -0.6585
  157MOL    H2525297   4.070   0.655   1.568 -1.6914  1.2293 -0.5141
  157MOL    C2625298   4.043   0.470   1.778  0.1965 -0.0432 -0.4814
  157MOL    C2725299   4.137   0.413   1.879  0.4144  0.0249 -0.4102
  157MOL    C2825300   4.131   0.264   1.903 -0.6225  1.4030 -0.2273
  157MOL    O2925301   4.024   0.215   1.949 -0.2796 -0.6545 -0.4307
  157MOL    H3025302   4.099   0.437   1.691  1.3230  0.5520 -0.0032
  157MOL    H3125303   3.950   0.414   1.769  1.4112 -1.8902 -1.6373
  157MOL    H3225304   4.106   0.454   1.975 -2.7891 -0.4015 -1.2256
  157MOL    H3325305   4.239   0.446   1.858  1.3897 -1.5499  1.6599
  157MOL    C3425306   4.247   0.177   1.855 -0.2549  0.1804  0.4615
  157MOL    C3525307   4.292   0.087   1.965 -0.3257 -0.3464 -0.0631
  157MOL    C3625308   4.345   7.808   1.916 -0.4067 -0.2740  0.2503
  157MOL    O3725309   4.379   7.800   1.801 -0.0546 -0.2696 -0.1551
  157MOL    H3825310   4.330   0.235   1.813 -0.4605 -1.3221 -2.1384
  157MOL    H3925311   4.210   0.121   1.769  0.1360  0.4534  0.1082
  157MOL    H4025312   4.211   0.065   2.035  2.4740  0.1037  3.4721
  157MOL    H4125313   4.368   0.140   2.021 -0.3212 -1.7936  1.3409
  157MOL    C4225314   4.366   7.688   2.009 -0.4970  0.2103 -0.3870
  157MOL    C4325315   4.368   7.543   1.943 -0.0346 -0.0048 -0.3531
  157MOL    C4425316   4.247   7.495   1.864  0.4941  0.1849 -0.5963
  157MOL    O4525317   4.145   7.562   1.855 -0.2629  0.0003 -0.4730
  157MOL    H4625318   4.289   7.690   2.086  0.4132 -2.4952  0.6438
  157MOL    H4725319   4.460   7.717   2.054 -1.7031  0.3158  2.1403
  157MOL    H4825320   4.384   7.483   2.033  1.2377 -0.3057 -0.7713
  157MOL    H4925321   4.457   7.532   1.881 -0.0643 -0.8368 -0.2469
  157MOL    C5025322   4.251   7.350   1.820  0.3323  0.4258  0.2502
  157MOL    C5125323   4.141   7.303   1.724 -0.2525 -0.1974 -0.2924
  157MOL    C5225324   4.197   7.208   1.619 -0.0783  0.2791  0.1008
  157MOL    O5325325   4.294   7.137   1.641  0.3431  0.2771 -0.2250
  157MOL    H5425326   4.261   7.280   1.902  0.1179 -0.6045 -0.5917
  157MOL    H5525327   4.356   7.353   1.790  0.4555  1.7633  0.8003
  157MOL    H5625328   4.093   7.394   1.687 -0.3883  0.3415  1.1600
  157MOL    H5725329   4.053   7.264   1.776  0.4813  0.5752  1.5907
  157MOL    C5825330   4.139   7.213   1.479  0.0835 -0.0740  0.3686
  157MOL    C5925331   4.246   7.218   1.374 -0.2597  0.6068 -0.5814
  157MOL    C6025332   4.223   7.319   1.262 -0.6859 -0.0274  0.9551
  157MOL    O6125333   4.144   7.414   1.264  0.4651 -0.3453  0.6962
  157MOL    H6225334   4.089   7.309   1.489 -0.4864 -0.3067 -0.1987
  157MOL    H6325335   4.064   7.135   1.468 -0.7076  0.9882 -2.0806
  157MOL    H6425336   4.269   7.117   1.338  0.5181  0.3568  0.5586
  157MOL    H6525337   4.338   7.250   1.423 -0.4882 -0.1190  0.3491
  157MOL    C6625338   4.311   7.288   1.140 -0.9823 -0.1507  0.3139
  157MOL    C6725339   4.290   7.389   1.025 -0.4164 -0.1937  0.1067
  157MOL    C6825340   4.341   7.351   0.890  0.1159 -0.0183 -0.4494
  157MOL    O6925341   4.371   7.236   0.865  0.2726 -0.0318 -0.6401
  157MOL    H7025342   4.293   7.185   1.111 -2.0858 -0.2082  1.1714
  157MOL    H7125343   4.416   7.292   1.170 -0.7651  0.2616 -0.4882
  157MOL    H7225344   4.328   7.482   1.066 -0.3938  0.0470 -0.4528
  157MOL    H7325345   4.182   7.398   1.014 -0.3645  1.2295  0.7387
  157MOL    C7425346   4.360   7.458   0.784 -0.3420  0.8631  0.3940
  157MOL    C7525347   4.453   7.423   0.671 -0.1098 -0.2364 -0.6407
  157MOL    C7625348   4.601   7.413   0.705  0.4618  0.6306 -0.2157
  157MOL    O7725349   4.649   7.438   0.819 -0.0183 -0.1137  0.1481
  157MOL    H7825350   4.401   7.540   0.844  1.4569 -1.1454  1.9690
  157MOL    H7925351   4.269   7.509   0.752 -1.6444  0.0203  2.5786
  157MOL    H8025352   4.434   7.488   0.586 -0.9284 -0.2231 -0.4516
  157MOL    H8125353   4.433   7.323   0.633 -0.9596 -0.3875  0.1839
  157MOL    C8225354   4.703   7.415   0.584 -0.2666  0.2196  0.0026
  157MOL    C8325355   4.853   7.407   0.627 -1.2287 -0.3322  0.1162
  157MOL    C8425356   4.938   7.337   0.517  0.0734 -0.0106  0.7035
  157MOL    O8525357   4.887   7.272   0.427  0.1944  0.0488  0.4566
  157MOL    H8625358   4.685   7.503   0.521 -0.3660 -0.5572 -1.0688
  157MOL    H8725359   4.682   7.335   0.513 -2.4163 -0.1438  1.0136
  157MOL    H8825360   4.876   7.349   0.716 -0.7859  0.4317  0.5131
  157MOL    H8925361   4.905   7.502   0.641 -1.7328  0.5377 -3.3978
  157MOL    C9025362   5.086   7.354   0.532 -0.2730 -0.1292  0.4469
  157MOL    C9125363   5.173   7.254   0.448 -0.0753  1.1698  0.4657
  157MOL    C9225364   5.277   7.307   0.340 -0.4980 -0.4788  0.3274
  157MOL    O9325365   5.341   7.412   0.352 -0.1149 -0.4016 -0.2144
  157MOL    H9425366   5.094   7.330   0.638  1.0516 -1.1865  0.1212
  157MOL    H9525367   5.118   7.457   0.517  1.1345 -0.6013  0.1699
  157MOL    H9625368   5.109   7.181   0.398  2.7821 -2.3749  1.7543
  157MOL    H9725369   5.225   7.192   0.521 -0.1095 -0.6457 -0.9922
  157MOL    C9825370   5.321   7.209   0.231  0.1798 -0.4285 -0.3371
  157MOL    C9925371   5.451   7.245   0.161 -0.0393  0.1309  0.6908
  157MOL   C10025372   5.518   7.120   0.098 -0.0126  0.1951 -0.0015
  157MOL   O10125373   5.470   7.006   0.105  0.4195 -0.5527  0.0721
  157MOL   H10225374   5.253   7.208   0.146 -1.7866  2.0964  1.1141
  157MOL   H10325375   5.330   7.109   0.274 -1.1092 -0.9734 -1.2919
  157MOL   H10425376   5.525   7.284   0.230  0.0886  0.9275  0.1151
  157MOL   H10525377   5.447   7.325   0.086 -1.0359 -2.4574 -2.1371
  157MOL   C10625378   5.662   7.142   0.045  0.2216  0.0559  0.4998
  157MOL   C10725379   5.739   7.031   7.841  0.0452 -0.8949 -0.2560
  157MOL   C10825380   5.761   7.049   7.691  0.3233 -1.4888 -0.2412
  157MOL   O10925381   5.687   7.120   7.621  0.6711 -0.1533 -0.1056
  157MOL   H11025382   5.718   7.197   0.121  0.2132  2.6048 -1.2723
  157MOL   H11125383   5.643   7.215   7.826 -1.9636 -0.6491  0.3297
  157MOL   H11225384   5.689   6.934   7.851 -1.5098 -0.3360 -2.3038
  157MOL   H11325385   5.831   7.021   0.039 -0.2435  0.0719  0.3921
  157MOL   C11425386   5.887   6.988   7.629  0.0945  0.0060 -0.0783
  157MOL   C11525387   5.891   6.996   7.478 -0.0987  0.5926  0.1825
  157MOL   C11625388   6.010   6.924   7.425 -0.5221  0.1789 -0.2807
  157MOL   O11725389   6.111   6.913   7.490 -0.7250  0.2275  0.7357
  157MOL   H11825390   5.879   6.881   7.651 -1.7903  0.5207  1.8001
  157MOL   H11925391   5.974   7.030   7.679 -0.6581  3.1498 -1.2963
  157MOL   H12025392   5.899   7.098   7.441 -2.2649  0.6453 -0.2319
  157MOL   H12125393   5.794   6.966   7.438  0.0337 -0.5564  0.7018
  157MOL   C12225394   5.995   6.848   7.290 -0.5503 -0.5415  0.6916
  157MOL   C12325395   6.130   6.831   7.210  0.4629  0.1380  0.3273
  157MOL   C12425396   6.152   6.950   7.114  0.2168  0.0869  0.3140
  157MOL   O12525397   6.065   7.034   7.089 -0.3753  0.0016 -0.4117
  157MOL   H12625398   5.931   6.898   7.218 -0.2600  0.3090  1.0227
  157MOL   H12725399   5.955   6.747   7.300 -3.0249  0.1404 -1.6991
  157MOL   H12825400   6.121   6.744   7.144  0.6335  0.1333  0.3110
  157MOL   H12925401   6.217   6.813   7.273  1.3355 -0.7609 -1.1067
  157MOL   C13025402   6.288   6.948   7.039  0.7734  0.3900 -0.0349
  157MOL   C13125403   6.372   7.074   7.074  0.0003  0.3975  1.0974
  157MOL   C13225404   6.502   7.047   7.144  0.0565  0.5215 -0.2417
  157MOL   O13325405   6.500   6.960   7.232  0.2635  0.5592  0.1368
  157MOL   H13425406   6.277   6.956   6.930 -1.6047  2.4178  0.2965
  157MOL   H13525407   6.343   6.859   7.067  0.2804  0.6794  1.9333
  157MOL   H13625408   6.318   7.162   7.110 -1.0746  0.1449  0.1271
  157MOL   H13725409   6.400   7.126   6.982 -0.7128  0.3149  0.8313
  157MOL   C13825410   6.620   7.143   7.132 -1.0064  0.7254  0.1787
  157MOL   C13925411   6.753   7.060   7.141 -0.4936  0.0202 -0.5067
  157MOL   C14025412   6.829   7.080   7.277 -0.1058  0.4038 -0.4961
  157MOL   O14125413   6.778   7.132   7.375 -0.0705  0.6186  0.5153
  157MOL   H14225414   6.605   7.227   7.200 -2.2363  0.0605  0.7343
  157MOL   H14325415   6.619   7.178   7.029 -0.4703  0.2870  0.0226
  157MOL   H14425416   6.815   7.090   7.056 -0.3401  0.2790 -0.3006
  157MOL   H14525417   6.738   6.952   7.131 -1.7320  0.2212 -0.9640
  157MOL   C14625418   6.975   7.032   7.290  0.4085  0.1412  0.3775
  157MOL   C14725419   7.062   7.147   7.334  0.2751 -0.4814  0.3954
  157MOL   C14825420   7.166   7.197   7.237 -0.1806  0.0289  0.1648
  157MOL   O14925421   7.229   7.124   7.164 -0.3431 -0.1535  0.3479
  157MOL   H15025422   7.010   7.013   7.188 -1.6168  0.5092 -0.4272
  157MOL   H15125423   6.988   6.936   7.340  0.9156 -0.6961 -1.3341
  157MOL   H15225424   7.102   7.123   7.433  2.6092  0.6636 -0.2454
  157MOL   H15325425   7.013   7.241   7.357  0.7864 -0.1887  0.2891
  157MOL   C15425426   7.206   7.345   7.251 -0.0859  0.0895 -0.1949
  157MOL   C15525427   7.315   7.383   7.144  0.0533  0.4150  0.1345
  157MOL   C15625428   7.317   7.530   7.102  1.2086  0.1638  0.4707
  157MOL   O15725429   7.244   7.614   7.157  0.5241  0.5370  0.2850
  157MOL   H15825430   7.240   7.364   7.352  0.4420 -0.4643 -0.2663
  157MOL   H15925431   7.121   7.410   7.234 -0.6576  0.0747  2.4913
  157MOL   H16025432   7.305   7.328   7.050  0.8205  0.0569  0.2537
  157MOL   H16125433   7.412   7.360   7.189  0.1815  1.0285  0.1697
  157MOL   H16225434   7.380   7.552   7.016 -1.3404 -0.8087 -1.7398
  158MOL     C125435   0.438   3.077   6.617  0.3916 -0.6897 -0.3019
  158MOL     C225436   0.532   3.052   6.501  0.2114  0.8122 -0.2265
  158MOL     C325437   0.677   3.074   6.533  0.0176 -0.1930 -0.5777
  158MOL     O425438   0.714   3.048   6.649 -0.0172 -0.1438  0.2481
  158MOL     H525439   0.458   3.023   6.710 -0.4918 -1.2396 -0.4235
  158MOL     H625440   0.451   3.182   6.642 -0.6400 -0.9947  1.6546
  158MOL     H725441   0.501   3.116   6.417  0.5488 -1.2977 -2.0028
  158MOL     H825442   0.522   2.950   6.464  2.0690  0.7386 -0.5655
  158MOL     H925443   0.337   3.052   6.586  0.0580 -0.8617  0.8762
  158MOL    C1025444   0.773   3.096   6.418  0.0929  0.4122  1.0641
  158MOL    C1125445   0.887   3.197   6.444 -0.7504  0.3831  0.4252
  158MOL    C1225446   0.848   3.341   6.466  0.8921  0.0388 -0.7176
  158MOL    O1325447   0.731   3.370   6.487 -0.4356  0.5386 -0.3584
  158MOL    H1425448   0.721   3.118   6.325  0.6193 -1.5002  0.2783
  158MOL    H1525449   0.823   3.001   6.399 -2.1831 -0.4419 -0.9262
  158MOL    H1625450   0.968   3.192   6.371  0.2405  2.1007  1.3537
  158MOL    H1725451   0.936   3.170   6.538  0.5541  2.0884  0.2633
  158MOL    C1825452   0.964   3.438   6.473  0.0763 -0.2254 -0.3459
  158MOL    C1925453   0.914   3.580   6.457  1.1047 -0.4101 -0.3512
  158MOL    C2025454   0.965   3.652   6.330  0.1277 -0.3887  0.0361
  158MOL    O2125455   0.940   3.612   6.216 -0.0631  0.2668  0.3160
  158MOL    H2225456   1.032   3.423   6.389  1.1990 -5.3427  1.2919
  158MOL    H2325457   1.024   3.428   6.563  0.9653  1.9161 -0.6694
  158MOL    H2425458   0.941   3.641   6.543 -0.5918  0.5220 -0.4508
  158MOL    H2525459   0.808   3.602   6.439  1.1782  0.7825  0.5954
  158MOL    C2625460   1.050   3.778   6.346  0.0146  0.0044 -0.3596
  158MOL    C2725461   1.080   3.863   6.223  0.3557  0.6624  0.2683
  158MOL    C2825462   0.967   3.941   6.164 -0.6271  0.4374 -0.2487
  158MOL    O2925463   0.852   3.933   6.212 -0.8498 -0.0377  0.0944
  158MOL    H3025464   1.148   3.747   6.384  0.5321  0.2669 -1.4471
  158MOL    H3125465   0.994   3.833   6.421 -1.8803 -1.1709 -0.8849
  158MOL    H3225466   1.117   3.801   6.141  0.4814  0.3492  0.5595
  158MOL    H3325467   1.154   3.940   6.243  2.0701 -0.6637 -0.8812
  158MOL    C3425468   0.991   4.019   6.039  0.0436  0.0382 -0.1734
  158MOL    C3525469   0.939   4.161   6.033 -0.2521  0.1863  0.2983
  158MOL    C3625470   0.805   4.184   5.963  0.3087  0.5522  0.4703
  158MOL    O3725471   0.777   4.135   5.849  0.4665  0.4505 -0.2742
  158MOL    H3825472   0.936   3.971   5.958 -0.1748  1.1472 -0.7001
  158MOL    H3925473   1.095   4.019   6.008  0.0738  0.0214 -0.0723
  158MOL    H4025474   1.020   4.219   5.988  0.7665 -1.9129 -0.6601
  158MOL    H4125475   0.939   4.190   6.138 -1.9545  0.8563  0.1336
  158MOL    C4225476   0.704   4.271   6.042  0.2515  0.1649 -0.1632
  158MOL    C4325477   0.676   4.246   6.191  0.2724  0.3331 -0.1471
  158MOL    C4425478   0.589   4.134   6.227 -0.3002 -0.2383  0.0736
  158MOL    O4525479   0.533   4.059   6.148 -0.1031 -0.2011 -0.0297
  158MOL    H4625480   0.606   4.278   5.995 -0.5083 -1.8322  1.0460
  158MOL    H4725481   0.744   4.372   6.031 -0.2680  0.4593  0.6171
  158MOL    H4825482   0.644   4.340   6.236  2.6240  0.9902  0.1953
  158MOL    H4925483   0.765   4.205   6.238 -0.1239 -1.2020 -0.6895
  158MOL    C5025484   0.572   4.110   6.380  0.0161  0.0860 -0.4104
  158MOL    C5125485   0.533   3.963   6.415 -0.2982 -0.3109 -0.2844
  158MOL    C5225486   0.484   3.941   6.560  1.1270  0.1243 -0.4043
  158MOL    O5325487   0.514   4.026   6.647 -0.1131 -0.3931  0.0365
  158MOL    H5425488   0.495   4.181   6.410 -1.2731 -1.7136  0.6873
  158MOL    H5525489   0.661   4.130   6.440 -0.1124  0.6622 -0.4104
  158MOL    H5625490   0.624   3.903   6.405  0.5012  0.8047  0.2500
  158MOL    H5725491   0.455   3.921   6.351 -1.9467  0.3629  1.2610
  158MOL    C5825492   0.400   3.816   6.593 -0.5891 -0.3558  0.0529
  158MOL    C5925493   0.295   3.836   6.707 -0.1314  0.0707 -0.0119
  158MOL    C6025494   0.330   3.753   6.831 -0.2898  0.0552 -0.6615
  158MOL    O6125495   0.376   3.639   6.816  0.0333 -0.7022 -0.2654
  158MOL    H6225496   0.464   3.727   6.594  0.6732  0.5285 -0.5951
  158MOL    H6325497   0.350   3.796   6.498  0.0589 -0.2492 -0.3101
  158MOL    H6425498   0.194   3.804   6.682  0.0165 -0.5322  0.1576
  158MOL    H6525499   0.284   3.941   6.735  1.0815  0.2280 -0.1264
  158MOL    C6625500   0.304   3.815   6.972 -0.0779  0.4477 -0.3821
  158MOL    C6725501   0.337   3.716   7.089 -0.5168 -0.2719 -0.0813
  158MOL    C6825502   0.484   3.705   7.115 -0.4438 -0.6444  0.1629
  158MOL    O6925503   0.563   3.792   7.084 -0.3188 -0.0943  0.1388
  158MOL    H7025504   0.198   3.838   6.978 -0.1678  0.1106 -0.5999
  158MOL    H7125505   0.354   3.908   6.999 -0.9818  1.0090 -0.6249
  158MOL    H7225506   0.289   3.621   7.065 -2.4704  0.3465  1.2050
  158MOL    H7325507   0.295   3.745   7.186 -1.2517 -2.7333  0.3681
  158MOL    C7425508   0.529   3.578   7.191  0.4625 -0.0075 -0.4270
  158MOL    C7525509   0.679   3.586   7.251 -0.3171 -0.1526 -0.4524
  158MOL    C7625510   0.679   3.558   7.406  0.6988 -0.3686 -0.1548
  158MOL    O7725511   0.621   3.636   7.484 -0.5456  0.6192  0.1801
  158MOL    H7825512   0.530   3.504   7.112  0.4150  2.3743 -2.7341
  158MOL    H7925513   0.454   3.559   7.268 -0.3197  0.2077 -1.1203
  158MOL    H8025514   0.718   3.688   7.245  0.7026 -0.5334 -0.3886
  158MOL    H8125515   0.757   3.525   7.207  0.0223 -0.4185  0.5348
  158MOL    C8225516   0.758   3.435   7.456  0.0453  0.6489 -0.0319
  158MOL    C8325517   0.714   3.396   7.599  0.1085  0.0730 -0.5483
  158MOL    C8425518   0.804   3.429   7.715  0.5414 -0.4454 -0.1879
  158MOL    O8525519   0.909   3.365   7.740 -0.3003  0.6049  0.2377
  158MOL    H8625520   0.862   3.463   7.445 -0.2990  1.1362 -2.3271
  158MOL    H8725521   0.735   3.354   7.386  1.2138 -1.9409  2.4881
  158MOL    H8825522   0.707   3.287   7.589  1.3513 -0.3035  2.4055
  158MOL    H8925523   0.608   3.414   7.612 -0.4563 -1.0721 -3.0872
  158MOL    C9025524   0.775   3.567   7.777  0.5961 -0.3743  0.1325
  158MOL    C9125525   0.862   3.600   0.042 -0.5512 -0.0544 -0.0559
  158MOL    C9225526   0.812   3.539   0.174  0.3921 -0.3515  0.2552
  158MOL    O9325527   0.728   3.446   0.185  0.2768 -0.3739 -0.0335
  158MOL    H9425528   0.670   3.582   7.801  0.8662  1.3842  0.2745
  158MOL    H9525529   0.795   3.646   7.704  1.1838 -0.5604  0.0913
  158MOL    H9625530   0.862   3.706   0.066  1.5963  0.0957 -0.6285
  158MOL    H9725531   0.965   3.571   0.022 -0.5719  0.2703 -0.6212
  158MOL    C9825532   0.899   3.584   0.298 -0.1302 -0.0845  0.2952
  158MOL    C9925533   0.870   3.509   0.424  0.6201 -0.3499 -0.2486
  158MOL   C10025534   0.938   3.574   0.542  0.1290  0.6243  0.7623
  158MOL   O10125535   1.009   3.669   0.536 -0.3017  0.2367  0.0009
  158MOL   H10225536   0.866   3.687   0.308  0.7048  0.3169 -0.9646
  158MOL   H10325537   1.003   3.573   0.268 -0.8453 -0.9371 -1.9868
  158MOL   H10425538   0.916   3.410   0.417 -1.5036 -1.3701 -0.3288
  158MOL   H10525539   0.762   3.494   0.436  0.5571 -1.2273 -1.7371
  158MOL   C10625540   0.909   3.512   0.674  0.0894  0.5855  1.0651
  158MOL   C10725541   0.853   3.612   0.767  0.1721 -0.1229  0.2924
  158MOL   C10825542   0.953   3.642   0.881  0.0988 -0.0890  0.2030
  158MOL   O10925543   1.026   3.551   0.924 -0.0661  0.6301 -0.4402
  158MOL   H11025544   1.007   3.476   0.705  1.3968 -0.1621 -3.5213
  158MOL   H11125545   0.851   3.420   0.675 -1.4786  1.5541  0.0003
  158MOL   H11225546   0.755   3.574   0.797  1.5349 -3.6449  0.5474
  158MOL   H11325547   0.828   3.701   0.710  0.9019  0.6320  1.1191
  158MOL   C11425548   0.967   3.780   0.939  0.5077 -0.5276 -0.2868
  158MOL   C11525549   1.047   3.795   1.072  0.3306 -0.1979  0.5034
  158MOL   C11625550   0.967   3.722   1.182  0.1478 -0.7772  1.1121
  158MOL   O11725551   0.842   3.730   1.187 -0.5095 -0.2204 -0.3964
  158MOL   H11825552   0.865   3.816   0.950  0.4642 -0.8228  0.3329
  158MOL   H11925553   1.026   3.841   0.871 -0.5613 -0.4042 -1.0996
  158MOL   H12025554   1.047   3.900   1.098  0.8658  0.0928 -0.6510
  158MOL   H12125555   1.148   3.755   1.068 -0.2123 -1.4891 -1.9338
  158MOL   C12225556   1.042   3.637   1.291  0.0040 -0.4751  1.1222
  158MOL   C12325557   0.957   3.542   1.378 -0.2531 -0.0690  0.3268
  158MOL   C12425558   0.904   3.608   1.508 -0.3677  0.0675 -0.1251
  158MOL   O12525559   0.954   3.575   1.616 -0.0376  0.3788  0.4236
  158MOL   H12625560   1.092   3.708   1.357  0.4688  1.6335 -1.4311
  158MOL   H12725561   1.122   3.586   1.237  1.8220  2.5938  0.8373
  158MOL   H12825562   1.030   3.470   1.414 -1.1848 -0.4722  1.4467
  158MOL   H12925563   0.876   3.499   1.320 -0.6322  1.8245 -0.5928
  158MOL   C13025564   0.789   3.710   1.500  0.0865  0.8256 -0.5317
  158MOL   C13125565   0.800   3.829   1.599 -0.0446  0.3614  0.2496
  158MOL   C13225566   0.879   3.946   1.542 -0.0476  0.2066 -0.3192
  158MOL   O13325567   0.948   3.933   1.445 -0.4766 -0.3736 -0.5410
  158MOL   H13425568   0.690   3.670   1.521  0.3018  1.6966  2.2838
  158MOL   H13525569   0.785   3.749   1.398  0.4649  1.8474 -0.1696
  158MOL   H13625570   0.837   3.803   1.698  0.7313  3.8837  0.9328
  158MOL   H13725571   0.696   3.851   1.623  0.2932  0.8082  1.3191
  158MOL   C13825572   0.843   4.080   1.604 -0.2276 -0.1452  0.5917
  158MOL   C13925573   0.955   4.185   1.586  0.0457  0.2016 -0.5542
  158MOL   C14025574   1.022   4.231   1.717  0.5246 -0.0528  0.0920
  158MOL   O14125575   0.960   4.232   1.825  0.5607 -0.0006 -0.0139
  158MOL   H14225576   0.809   4.074   1.707 -2.5190 -0.4399 -0.1397
  158MOL   H14325577   0.765   4.116   1.537  1.0413  3.2064  0.8319
  158MOL   H14425578   0.911   4.278   1.552 -1.5690 -0.8140 -1.2716
  158MOL   H14525579   1.041   4.145   1.532  1.5919 -0.3770  2.2321
  158MOL   C14625580   1.160   4.283   1.694 -0.4144 -0.0300  0.5325
  158MOL   C14725581   1.228   4.326   1.815  0.3823 -0.6485 -0.4457
  158MOL   C14825582   1.340   4.427   1.780  0.2328  0.3369 -0.2471
  158MOL   O14925583   1.325   4.514   1.694 -0.2933  0.0359  1.2487
  158MOL   H15025584   1.149   4.361   1.618 -0.3969 -1.1804 -0.6586
  158MOL   H15125585   1.215   4.209   1.637 -0.5214 -0.3917  0.9020
  158MOL   H15225586   1.272   4.244   1.872 -0.3165  1.0802  2.7303
  158MOL   H15325587   1.166   4.380   1.886  1.3063 -1.9212  1.3717
  158MOL   C15425588   1.469   4.404   1.852 -0.6352  0.1015 -0.5898
  158MOL   C15525589   1.454   4.441   1.998  0.4232  0.2452 -0.0475
  158MOL   C15625590   1.542   4.559   2.040 -0.4139  0.5924  0.0828
  158MOL   O15725591   1.605   4.630   1.957 -0.1737 -0.1605 -0.2467
  158MOL   H15825592   1.526   4.480   1.798  0.8245 -0.2555  0.4147
  158MOL   H15925593   1.505   4.301   1.845  0.3370  0.3562  0.5302
  158MOL   H16025594   1.480   4.351   2.054 -0.7104 -0.8297 -1.2258
  158MOL   H16125595   1.349   4.460   2.020  0.5127  0.3089  0.3240
  158MOL   H16225596   1.543   4.582   2.147 -3.8215 -0.9620  0.5074
  159MOL     C125597   4.739   4.926   6.101 -0.3513 -0.9839  0.0176
  159MOL     C225598   4.609   4.875   6.166 -0.0294  0.4003  0.3727
  159MOL     C325599   4.509   4.984   6.210 -0.2257 -0.2345 -0.0812
  159MOL     O425600   4.544   5.101   6.208  0.5902 -0.0065  0.0684
  159MOL     H525601   4.727   4.994   6.017 -0.3634 -1.1618 -0.1235
  159MOL     H625602   4.809   4.968   6.174  0.1595 -0.2138 -0.9012
  159MOL     H725603   4.632   4.816   6.254  0.0311  0.5062  0.4276
  159MOL     H825604   4.560   4.805   6.099 -0.0186 -1.0676  1.8761
  159MOL     H925605   4.790   4.845   6.049 -0.5457 -1.3340  0.3715
  159MOL    C1025606   4.373   4.934   6.241  0.4727  0.1129 -0.4542
  159MOL    C1125607   4.296   5.039   6.325  0.5047 -0.1041 -0.1070
  159MOL    C1225608   4.153   4.976   6.353 -0.5247 -0.0456  0.1166
  159MOL    O1325609   4.089   4.929   6.258 -0.0583  0.8286 -0.3262
  159MOL    H1425610   4.392   4.856   6.315 -0.5485 -0.7639 -1.0898
  159MOL    H1525611   4.320   4.895   6.154  2.0616 -0.9515 -0.9612
  159MOL    H1625612   4.290   5.132   6.269 -0.6202  0.6788  1.2691
  159MOL    H1725613   4.338   5.060   6.423  3.7551 -1.8233 -1.0689
  159MOL    C1825614   4.098   4.976   6.491 -0.5812 -0.7222  0.0704
  159MOL    C1925615   4.125   5.105   6.572  0.3144  0.4704 -0.2345
  159MOL    C2025616   3.996   5.153   6.627 -0.1872  0.2308  0.0393
  159MOL    O2125617   3.958   5.123   6.741 -0.3745  0.1339 -0.1970
  159MOL    H2225618   4.148   4.895   6.544 -0.4065  0.5987  2.0037
  159MOL    H2325619   3.994   4.946   6.486 -0.6826 -0.2176 -0.8934
  159MOL    H2425620   4.159   5.186   6.508 -0.3647  0.4299 -0.6501
  159MOL    H2525621   4.190   5.086   6.657 -0.3636 -0.0727  0.1754
  159MOL    C2625622   3.911   5.245   6.546  0.3157  0.7526 -0.5396
  159MOL    C2725623   3.787   5.289   6.626 -0.3566  0.3102  0.0148
  159MOL    C2825624   3.697   5.388   6.556 -0.3356  0.1520  0.1057
  159MOL    O2925625   3.711   5.420   6.438 -0.2271 -0.4183 -0.5846
  159MOL    H3025626   3.879   5.192   6.457 -1.3047  1.0443 -0.1554
  159MOL    H3125627   3.966   5.334   6.515  1.2680  0.5382  0.4855
  159MOL    H3225628   3.808   5.337   6.721 -0.4325  1.8790 -0.7476
  159MOL    H3325629   3.733   5.196   6.642 -0.2302 -0.1671 -2.0973
  159MOL    C3425630   3.588   5.462   6.637  0.6614 -0.1233  0.3487
  159MOL    C3525631   3.599   5.618   6.620  0.3876 -0.4250 -0.3374
  159MOL    C3625632   3.502   5.688   6.529 -0.4094  0.1808 -0.0043
  159MOL    O3725633   3.387   5.645   6.522 -0.8001  0.0923  0.0221
  159MOL    H3825634   3.580   5.433   6.741  0.3076 -1.7216 -0.1092
  159MOL    H3925635   3.494   5.425   6.596  1.4426  1.0571 -2.6777
  159MOL    H4025636   3.699   5.652   6.593 -0.2483  0.0863 -2.0723
  159MOL    H4125637   3.573   5.661   6.717  0.9763 -1.6800  0.3885
  159MOL    C4225638   3.563   5.790   6.431  0.2674 -0.1660 -0.3298
  159MOL    C4325639   3.451   5.837   6.334 -0.0877 -0.2622 -0.7351
  159MOL    C4425640   3.435   5.982   6.325 -0.1289  0.4115 -0.3124
  159MOL    O4525641   3.510   6.061   6.383  0.5090  0.1168  0.4477
  159MOL    H4625642   3.655   5.766   6.378  1.0740  0.7829  0.6050
  159MOL    H4725643   3.608   5.872   6.488 -1.5986  0.9844 -0.4566
  159MOL    H4825644   3.354   5.790   6.353  0.4579 -0.3159  2.0525
  159MOL    H4925645   3.483   5.796   6.238  1.6439  0.0372 -0.3057
  159MOL    C5025646   3.320   6.036   6.243  0.7670 -0.5195 -0.1636
  159MOL    C5125647   3.226   6.134   6.325 -0.6335  0.1875  0.3284
  159MOL    C5225648   3.098   6.178   6.250 -1.3286 -0.2543 -0.6023
  159MOL    O5325649   3.053   6.110   6.159  0.7649  0.0413  0.4453
  159MOL    H5425650   3.264   5.948   6.211  1.3264 -0.6560 -0.7845
  159MOL    H5525651   3.355   6.087   6.153  0.2658  1.2177  0.6081
  159MOL    H5625652   3.290   6.216   6.360 -1.4043  0.8874  0.1113
  159MOL    H5725653   3.184   6.080   6.410 -0.2566 -1.4591 -0.5219
  159MOL    C5825654   3.035   6.301   6.300 -1.0180  0.0485 -0.0343
  159MOL    C5925655   2.875   6.299   6.287 -0.0434 -0.2307  0.2873
  159MOL    C6025656   2.805   6.394   6.386 -0.0545  0.0041  0.1933
  159MOL    O6125657   2.865   6.487   6.445 -0.5509  0.2034  0.2866
  159MOL    H6225658   3.059   6.386   6.236  1.5753 -0.7542 -0.1619
  159MOL    H6325659   3.073   6.320   6.401 -0.0926  0.9420 -0.5373
  159MOL    H6425660   2.846   6.201   6.323  2.9644 -0.9285  1.0036
  159MOL    H6525661   2.841   6.318   6.185 -0.0448  0.5895  0.4379
  159MOL    C6625662   2.650   6.377   6.395  0.0379  0.7554  0.6529
  159MOL    C6725663   2.576   6.489   6.471 -0.6378 -0.0686 -0.0795
  159MOL    C6825664   2.434   6.463   6.528 -0.7955 -0.3835 -0.6397
  159MOL    O6925665   2.400   6.353   6.553  0.3347  0.8390  0.3441
  159MOL    H7025666   2.649   6.278   6.441  2.8839  0.1583 -0.4320
  159MOL    H7125667   2.599   6.363   6.299  1.5773 -1.9423  0.1606
  159MOL    H7225668   2.568   6.570   6.399  1.0121 -0.4463 -0.7345
  159MOL    H7325669   2.637   6.516   6.557 -0.0002  3.8846 -1.6600
  159MOL    C7425670   2.349   6.585   6.545  0.9241  0.1640  0.4203
  159MOL    C7525671   2.201   6.560   6.535 -0.2893 -1.4366 -0.5977
  159MOL    C7625672   2.122   6.662   6.620 -0.2346  0.8035  0.8291
  159MOL    O7725673   2.130   6.780   6.592 -0.2452 -0.3229  0.0852
  159MOL    H7825674   2.365   6.656   6.464 -0.5364 -1.2698 -1.1707
  159MOL    H7925675   2.385   6.632   6.637  1.7695  0.7307 -0.1865
  159MOL    H8025676   2.170   6.459   6.565 -1.6948 -1.3094 -1.5811
  159MOL    H8125677   2.182   6.566   6.428 -0.6179 -0.6384 -0.4957
  159MOL    C8225678   2.017   6.598   6.712 -0.4133  0.8572  0.4966
  159MOL    C8325679   1.924   6.703   6.767 -0.3440  0.2481 -0.4714
  159MOL    C8425680   1.967   6.750   6.905 -0.5989  0.6258  0.2631
  159MOL    O8525681   1.976   6.669   7.003 -0.8604 -0.1574  0.1641
  159MOL    H8625682   2.068   6.544   6.792 -2.6553 -1.6723  0.3127
  159MOL    H8725683   1.965   6.524   6.651  0.2358 -1.0512  2.1715
  159MOL    H8825684   1.819   6.675   6.775  0.5218 -2.6544  1.3759
  159MOL    H8925685   1.924   6.792   6.703 -2.5856  0.4260 -0.2819
  159MOL    C9025686   2.010   6.887   6.914 -0.1020  0.4396 -0.3017
  159MOL    C9125687   1.995   6.945   7.055  0.0760  0.0396  0.3892
  159MOL    C9225688   2.117   6.962   7.138 -0.4519  0.8691  0.4190
  159MOL    O9325689   2.213   6.888   7.117  0.3560 -0.2533  0.3953
  159MOL    H9425690   1.946   6.943   6.846 -0.7700 -1.3447 -1.1624
  159MOL    H9525691   2.113   6.887   6.879  0.4301  0.7908  1.2040
  159MOL    H9625692   1.925   6.876   7.102  0.3990 -0.4661  0.1346
  159MOL    H9725693   1.956   7.046   7.043 -1.8836 -0.3133  3.3009
  159MOL    C9825694   2.121   7.065   7.248 -0.2141  0.0416  0.0610
  159MOL    C9925695   2.242   7.070   7.347  0.1032 -0.0095 -0.7863
  159MOL   C10025696   2.370   7.159   7.316  0.3672  0.1977 -0.1975
  159MOL   O10125697   2.426   7.159   7.205 -0.3869  0.3135 -1.1028
  159MOL   H10225698   2.036   7.053   7.315 -0.0843 -2.4447 -0.1416
  159MOL   H10325699   2.118   7.166   7.208  1.8695  0.6482  1.3964
  159MOL   H10425700   2.266   6.966   7.370 -0.2355  0.5774  2.4883
  159MOL   H10525701   2.199   7.104   7.441  1.0001 -1.4429  0.1752
  159MOL   C10625702   2.413   7.253   7.424  0.1592  0.0353  0.1881
  159MOL   C10725703   2.548   7.313   7.386 -0.2937 -0.1558  0.0744
  159MOL   C10825704   2.577   7.430   7.480 -0.2635  0.7102 -0.0975
  159MOL   O10925705   2.502   7.465   7.564 -0.6005  0.0716  0.0500
  159MOL   H11025706   2.414   7.210   7.524 -0.1599 -2.3386 -0.7971
  159MOL   H11125707   2.337   7.331   7.429  0.5849  0.5025 -0.6177
  159MOL   H11225708   2.544   7.344   7.281  0.1696  2.0125  0.6651
  159MOL   H11325709   2.630   7.241   7.391  0.8307  0.9644 -1.6536
  159MOL   C11425710   2.713   7.498   7.474 -1.3427  0.1446  0.6781
  159MOL   C11525711   2.695   7.606   7.365 -0.0627  0.0735  0.0989
  159MOL   C11625712   2.814   7.706   7.348 -0.4561  0.2364 -0.2147
  159MOL   O11725713   2.917   7.676   7.399 -0.5146 -0.3689 -0.3998
  159MOL   H11825714   2.778   7.420   7.433 -1.0233  0.5332  0.4408
  159MOL   H11925715   2.755   7.540   7.565 -0.2468 -0.7036  0.5789
  159MOL   H12025716   2.608   7.661   7.398 -0.4048 -0.1062 -0.4873
  159MOL   H12125717   2.684   7.553   7.270 -0.5163  0.4050 -0.0316
  159MOL   C12225718   2.792   7.841   7.294  0.3303 -0.7151  0.7281
  159MOL   C12325719   2.911   0.035   7.210 -0.3494  0.3702 -0.0317
  159MOL   C12425720   2.913   7.839   7.067 -0.3244 -0.3891  0.5440
  159MOL   O12525721   2.822   7.769   7.023  0.0856 -0.6344 -0.1927
  159MOL   H12625722   2.781   0.043   7.384 -0.2353 -0.7002  0.6494
  159MOL   H12725723   2.694   7.853   7.247  0.5363  0.7504  0.6470
  159MOL   H12825724   3.011   0.013   7.249 -1.2143 -0.8091  1.5427
  159MOL   H12925725   2.898   0.143   7.218  0.9215  0.7360 -2.3722
  159MOL   C13025726   3.018   0.036   6.971 -0.1219 -0.2474  0.3404
  159MOL   C13125727   2.997   0.004   6.826 -0.2351 -0.3719  0.0675
  159MOL   C13225728   3.099   7.755   6.779 -0.6649 -0.3389  0.7926
  159MOL   O13325729   3.223   7.769   6.795  0.4469  0.1599 -0.2395
  159MOL   H13425730   3.114   0.001   7.008 -0.6277 -1.8442  0.1799
  159MOL   H13525731   3.004   0.144   6.978  0.4055 -0.1618  0.1219
  159MOL   H13625732   3.009   0.100   6.777  0.3562 -0.6166 -0.2689
  159MOL   H13725733   2.897   7.829   6.798 -0.6370  1.6860 -1.0550
  159MOL   C13825734   3.028   7.637   6.703 -0.3449  0.1529  0.7182
  159MOL   C13925735   3.120   7.579   6.591  0.2513 -0.6535  1.2852
  159MOL   C14025736   3.068   7.438   6.550 -0.0607 -0.4320 -0.1461
  159MOL   O14125737   2.963   7.422   6.484 -0.0087  0.3208 -0.2073
  159MOL   H14225738   2.933   7.671   6.660  0.0588 -0.2875 -0.5213
  159MOL   H14325739   3.006   7.556   6.772  0.5447 -0.0653  0.7413
  159MOL   H14425740   3.225   7.563   6.615  0.5618 -1.4728 -0.4873
  159MOL   H14525741   3.102   7.641   6.503  0.0468 -2.0342  0.3241
  159MOL   C14625742   3.137   7.313   6.601  0.2070 -0.1609 -0.6521
  159MOL   C14725743   3.072   7.179   6.565  0.0173 -0.4649 -0.3386
  159MOL   C14825744   2.934   7.148   6.626 -0.1624  0.5853  0.7381
  159MOL   O14925745   2.885   7.232   6.699 -0.5771 -0.1060 -0.6117
  159MOL   H15025746   3.142   7.320   6.710 -0.6227 -0.6034 -0.5840
  159MOL   H15125747   3.240   7.313   6.565  1.4774  1.4795  2.7146
  159MOL   H15225748   3.139   7.096   6.589 -1.9076 -1.2883  2.4059
  159MOL   H15325749   3.053   7.179   6.458 -1.0205  1.1348 -0.1618
  159MOL   C15425750   2.858   7.033   6.561  0.2584 -0.2699  0.5198
  159MOL   C15525751   2.889   6.895   6.615  0.2584 -0.0917  0.1645
  159MOL   C15625752   2.763   6.808   6.596  0.4510  0.3359 -0.1939
  159MOL   O15725753   2.689   6.828   6.498 -0.4032 -0.6354 -0.0179
  159MOL   H15825754   2.872   7.029   6.453 -1.3021  1.6657  0.2353
  159MOL   H15925755   2.755   7.063   6.575 -0.2786 -1.3396 -0.9755
  159MOL   H16025756   2.911   6.894   6.721  0.9202  0.8907  0.0464
  159MOL   H16125757   2.970   6.845   6.561 -1.1877 -1.5393 -0.7010
  159MOL   H16225758   2.748   6.732   6.673  1.9239  0.4038  0.1815
  160MOL     C125759   2.483   5.668   6.661 -0.1018  0.2327  0.1950
  160MOL     C225760   2.383   5.613   6.554  0.1670  0.8120 -0.7914
  160MOL     C325761   2.439   5.606   6.408 -0.1670 -0.5656 -0.6909
  160MOL     O425762   2.551   5.569   6.378  0.5532 -0.0526 -0.4879
  160MOL     H525763   2.481   5.621   6.759 -1.7880 -0.0088  0.0613
  160MOL     H625764   2.587   5.647   6.633  0.2530  0.6365  1.2058
  160MOL     H725765   2.284   5.655   6.566 -0.2189 -0.6884  1.5188
  160MOL     H825766   2.371   5.508   6.579  1.5514  0.7807 -0.1792
  160MOL     H925767   2.495   5.776   6.660 -1.0949  0.3436 -0.0224
  160MOL    C1025768   2.338   5.642   6.302 -0.4517  0.5155 -0.1902
  160MOL    C1125769   2.393   5.641   6.160 -0.1269 -0.3614 -0.0954
  160MOL    C1225770   2.401   5.508   6.083 -0.0523  0.3125 -0.5601
  160MOL    O1325771   2.306   5.432   6.083  0.0851  0.2676 -0.4141
  160MOL    H1425772   2.299   5.742   6.325 -1.7598  0.2775 -1.3014
  160MOL    H1525773   2.253   5.574   6.311 -0.6490  0.5308 -1.7500
  160MOL    H1625774   2.490   5.686   6.140 -1.2707  0.7179 -3.4277
  160MOL    H1725775   2.336   5.713   6.102 -0.9585 -1.1528 -0.2702
  160MOL    C1825776   2.529   5.475   6.007  0.0975 -0.0678 -0.4812
  160MOL    C1925777   2.511   5.359   5.904 -0.0334 -0.1874 -0.1306
  160MOL    C2025778   2.579   5.391   5.773  0.0507  0.0507  0.2384
  160MOL    O2125779   2.696   5.442   5.773 -0.3101  0.0492  0.3761
  160MOL    H2225780   2.597   5.455   6.090  0.2933  0.3931 -0.5310
  160MOL    H2325781   2.569   5.565   5.959  1.8963 -0.7676 -0.3258
  160MOL    H2425782   2.407   5.335   5.882 -0.4144  0.8859  0.4566
  160MOL    H2525783   2.561   5.265   5.924  1.0349  0.5023  0.5274
  160MOL    C2625784   2.503   5.355   5.641  0.4757  0.3215  0.2257
  160MOL    C2725785   2.606   5.359   5.518  1.0787 -0.1802  0.3478
  160MOL    C2825786   2.580   5.486   5.437 -0.1917 -0.4818  0.0462
  160MOL    O2925787   2.537   5.592   5.494  0.1055  0.3761 -0.2710
  160MOL    H3025788   2.414   5.417   5.630  0.1415 -0.2225 -0.1478
  160MOL    H3125789   2.463   5.259   5.672  2.3109 -1.7387 -3.5411
  160MOL    H3225790   2.597   5.265   5.464  0.1176  0.0527  0.0956
  160MOL    H3325791   2.710   5.357   5.551  1.8393  1.8773 -1.7761
  160MOL    C3425792   2.616   5.483   5.289 -0.2118  0.5265  1.3810
  160MOL    C3525793   2.540   5.584   5.198 -0.5366  0.0362 -0.3683
  160MOL    C3625794   2.421   5.523   5.128  0.4132  0.2580 -0.8657
  160MOL    O3725795   2.397   5.401   5.136  0.1589  0.5452  0.2371
  160MOL    H3825796   2.601   5.383   5.250  0.2926  1.6712 -1.8789
  160MOL    H3925797   2.722   5.502   5.272 -0.4461  0.3603 -0.3177
  160MOL    H4025798   2.602   5.636   5.124 -0.8312 -0.6127 -1.0802
  160MOL    H4125799   2.488   5.655   5.262 -1.7117  0.6467 -1.9568
  160MOL    C4225800   2.333   5.618   5.046 -0.5022 -0.2217 -0.3372
  160MOL    C4325801   2.288   5.547   4.918 -0.9015  0.5828  0.3221
  160MOL    C4425802   2.137   5.501   4.929  0.1786 -0.7232  0.8664
  160MOL    O4525803   2.044   5.582   4.937 -0.1827 -0.2476 -0.8781
  160MOL    H4625804   2.380   5.712   5.020 -1.7787  0.2139 -1.0957
  160MOL    H4725805   2.248   5.637   5.112  0.5391  1.3708  0.5822
  160MOL    H4825806   2.355   5.464   4.895 -0.9154  0.9955 -1.2224
  160MOL    H4925807   2.287   5.609   4.828 -0.7855  0.0546 -0.0439
  160MOL    C5025808   2.106   5.349   4.942 -0.6737 -0.4165  0.8745
  160MOL    C5125809   1.972   5.319   5.011 -0.0931 -0.5607 -0.2777
  160MOL    C5225810   1.894   5.211   4.932 -0.5381  0.4555  0.4113
  160MOL    O5325811   1.915   5.187   4.814  0.2154  0.2080  0.1114
  160MOL    H5425812   2.181   5.318   5.015  0.6399  4.0126  1.6110
  160MOL    H5525813   2.137   5.288   4.858 -0.1360 -1.3174  1.7174
  160MOL    H5625814   1.898   5.400   5.010 -1.3873 -1.7095  0.2013
  160MOL    H5725815   1.996   5.297   5.115 -0.3788  0.5140  0.0267
  160MOL    C5825816   1.779   5.149   5.010  0.4873  0.3594  0.5739
  160MOL    C5925817   1.711   5.031   4.933  0.6169  1.3884 -0.3236
  160MOL    C6025818   1.642   4.930   5.020 -0.3566  0.3096  0.3762
  160MOL    O6125819   1.617   4.958   5.138 -0.0441 -0.1194 -0.3211
  160MOL    H6225820   1.707   5.229   5.026  0.1127  0.0650  0.3640
  160MOL    H6325821   1.820   5.108   5.103  0.5106  1.0014  0.8519
  160MOL    H6425822   1.785   4.973   4.877 -0.8489  1.9351 -2.8942
  160MOL    H6525823   1.634   5.060   4.862 -0.7059 -2.0904 -0.3986
  160MOL    C6625824   1.604   4.806   4.951  0.5670 -0.1731 -0.4894
  160MOL    C6725825   1.674   4.680   5.018  0.6344 -0.2725 -0.0143
  160MOL    C6825826   1.770   4.614   4.918  0.3981  0.0986 -0.7042
  160MOL    O6925827   1.854   4.686   4.861  0.1155 -0.1777 -0.3189
  160MOL    H7025828   1.624   4.805   4.844 -0.2083 -2.4081 -0.6550
  160MOL    H7125829   1.496   4.798   4.961  0.4343  0.6057 -1.2485
  160MOL    H7225830   1.605   4.599   5.042 -0.1303 -0.0058 -1.2867
  160MOL    H7325831   1.730   4.711   5.106 -0.0670  0.9605  0.0056
  160MOL    C7425832   1.759   4.464   4.895  0.1339  0.0288  0.2641
  160MOL    C7525833   1.900   4.415   4.860  0.7719 -0.5406 -0.5575
  160MOL    C7625834   1.893   4.267   4.820  0.4236 -0.0564  0.3695
  160MOL    O7725835   1.829   4.176   4.872 -0.0434 -0.6951  0.6304
  160MOL    H7825836   1.685   4.445   4.817  0.7767 -1.7452  0.0569
  160MOL    H7925837   1.712   4.430   4.987 -0.3831 -1.3341 -0.4800
  160MOL    H8025838   1.972   4.421   4.942 -1.5444  1.1747  1.4396
  160MOL    H8125839   1.927   4.473   4.772  0.8560 -0.1368 -0.2697
  160MOL    C8225840   2.000   4.225   4.718  0.4922  0.5864 -0.6471
  160MOL    C8325841   2.085   4.106   4.760 -0.2252  0.5878 -0.1359
  160MOL    C8425842   2.218   4.138   4.825 -0.0028  0.5140 -0.2787
  160MOL    O8525843   2.241   4.252   4.867  0.3617 -0.2965  0.3920
  160MOL    H8625844   2.063   4.306   4.680  1.5165 -0.0848 -0.4280
  160MOL    H8725845   1.933   4.205   4.635 -0.6939 -0.9458  0.6395
  160MOL    H8825846   2.110   4.056   4.666 -0.1949  1.2462 -0.4784
  160MOL    H8925847   2.033   4.033   4.821  2.4059  0.0486  1.5795
  160MOL    C9025848   2.319   4.021   4.838 -0.2977 -0.6807 -0.0953
  160MOL    C9125849   2.415   4.026   4.964 -0.4233  0.0888  0.1549
  160MOL    C9225850   2.358   3.961   5.092 -0.1008 -0.3359 -0.0485
  160MOL    O9325851   2.250   3.920   5.110 -0.4572 -0.7815 -0.4880
  160MOL    H9425852   2.372   4.007   4.744 -0.7589 -0.8623 -0.3239
  160MOL    H9525853   2.256   3.932   4.834  0.2535 -1.0657 -0.3307
  160MOL    H9625854   2.462   4.124   4.974 -2.8880  1.4042 -0.7735
  160MOL    H9725855   2.498   3.961   4.934 -0.9256 -0.5299  0.0863
  160MOL    C9825856   2.458   3.940   5.204 -0.2130 -0.1695  0.5033
  160MOL    C9925857   2.429   4.014   5.337 -0.0649 -0.1838  0.3260
  160MOL   C10025858   2.547   4.061   5.422 -0.4303  0.8347 -0.8763
  160MOL   O10125859   2.661   4.025   5.387  0.7250 -0.3011  0.0637
  160MOL   H10225860   2.557   3.974   5.175 -0.5541  0.3702 -0.0458
  160MOL   H10325861   2.473   3.834   5.225 -0.3439 -0.5087 -1.0300
  160MOL   H10425862   2.384   3.943   5.406 -1.1601 -0.8564 -1.0432
  160MOL   H10525863   2.363   4.100   5.323 -1.8411 -1.4726  0.5196
  160MOL   C10625864   2.527   4.137   5.550 -0.3741  0.0375 -0.0551
  160MOL   C10725865   2.644   4.229   5.583 -0.3364  0.6707 -0.8175
  160MOL   C10825866   2.605   4.339   5.671 -0.2628  0.0109  0.5675
  160MOL   O10925867   2.492   4.353   5.722 -0.5147  0.2260 -0.9488
  160MOL   H11025868   2.511   4.071   5.635 -0.2135  0.3175  0.1931
  160MOL   H11125869   2.434   4.193   5.538  0.0290  0.6391 -0.4027
  160MOL   H11225870   2.691   4.272   5.495  0.3704  1.0520 -0.2576
  160MOL   H11325871   2.734   4.172   5.605 -0.1534  1.3480  0.2151
  160MOL   C11425872   2.728   4.429   5.703 -0.6733  0.1307 -0.2374
  160MOL   C11525873   2.685   4.548   5.795 -0.1916  0.1589  0.1857
  160MOL   C11625874   2.762   4.678   5.776  0.5248  0.7912 -0.6454
  160MOL   O11725875   2.869   4.678   5.716 -0.2881 -0.2206  0.2606
  160MOL   H11825876   2.788   4.464   5.619 -1.1494  0.0067 -0.6355
  160MOL   H11925877   2.787   4.363   5.765  0.3102  0.0560 -1.2370
  160MOL   H12025878   2.714   4.516   5.895  0.4237 -1.6482 -0.5469
  160MOL   H12125879   2.577   4.561   5.784  0.0325  1.0871 -0.8943
  160MOL   C12225880   2.700   4.807   5.821  0.1094  0.9804 -0.1097
  160MOL   C12325881   2.803   4.923   5.807  0.2472  0.4568  0.6910
  160MOL   C12425882   2.746   5.021   5.702 -0.6004 -0.1576  0.0279
  160MOL   O12525883   2.628   5.056   5.703  0.2755  0.0568 -0.1691
  160MOL   H12625884   2.679   4.792   5.927 -0.0143  1.6872 -0.0373
  160MOL   H12725885   2.607   4.829   5.768  1.5786  1.0320 -2.7398
  160MOL   H12825886   2.906   4.903   5.776 -0.5257 -1.3216 -0.8840
  160MOL   H12925887   2.799   4.973   5.903 -2.4696  0.6095  0.5333
  160MOL   C13025888   2.846   5.087   5.613  0.3486  0.1696 -0.7532
  160MOL   C13125889   2.816   5.039   5.467 -0.1938 -0.2087 -0.5658
  160MOL   C13225890   2.889   4.917   5.417  0.5775  0.2999 -0.2489
  160MOL   O13325891   3.011   4.920   5.393  0.4591  0.7613 -0.6632
  160MOL   H13425892   2.948   5.058   5.638 -0.1438 -0.4837  0.5243
  160MOL   H13525893   2.828   5.195   5.611 -2.5796 -0.2674  0.0710
  160MOL   H13625894   2.832   5.122   5.398  0.7921 -0.8055 -1.0606
  160MOL   H13725895   2.709   5.018   5.464 -0.4416  1.1442 -2.9037
  160MOL   C13825896   2.813   4.792   5.398 -0.4040  0.2368  0.1789
  160MOL   C13925897   2.898   4.669   5.356 -0.1615 -0.8591  0.0165
  160MOL   C14025898   2.939   4.678   5.209 -0.3706  1.3379  0.0970
  160MOL   O14125899   2.864   4.739   5.132  0.4262  0.1794 -0.9647
  160MOL   H14225900   2.743   4.817   5.318  2.1543  1.7664 -1.6733
  160MOL   H14325901   2.753   4.764   5.485 -2.6522  0.8510 -1.1274
  160MOL   H14425902   2.835   4.580   5.362  1.2237 -1.7849  0.9486
  160MOL   H14525903   2.979   4.659   5.428  1.2058 -0.9615 -1.5088
  160MOL   C14625904   3.057   4.597   5.155  0.2848  0.4876  0.0560
  160MOL   C14725905   3.059   4.585   4.997  0.7421 -0.0304  0.1704
  160MOL   C14825906   3.175   4.502   4.936  0.2669 -0.7006  0.6039
  160MOL   O14925907   3.167   4.379   4.943  0.3152 -0.2033  0.1272
  160MOL   H15025908   3.063   4.497   5.198 -0.7691 -1.3570 -3.9011
  160MOL   H15125909   3.150   4.649   5.179  0.7332 -0.5224  0.5441
  160MOL   H15225910   3.073   4.686   4.957  0.3141  0.5813  1.5256
  160MOL   H15325911   2.964   4.554   4.954  0.2873  2.1901 -0.5067
  160MOL   C15425912   3.293   4.573   4.877  0.0267  0.2347  0.1093
  160MOL   C15525913   3.408   4.480   4.830  0.7732 -0.9109  0.0258
  160MOL   C15625914   3.461   4.497   4.688 -0.9162 -0.1189  0.0790
  160MOL   O15725915   3.432   4.598   4.619 -1.0367  0.0087  0.7258
  160MOL   H15825916   3.322   4.653   4.945  0.7302 -3.0405  3.8762
  160MOL   H15925917   3.256   4.626   4.790  3.0135  1.2938 -0.5920
  160MOL   H16025918   3.400   4.376   4.862 -1.0265 -0.5260  0.8988
  160MOL   H16125919   3.495   4.503   4.892  1.4374  0.6854 -1.4896
  160MOL   H16225920   3.532   4.422   4.652 -0.7074  0.1287 -0.0246
  161MOL     C125921   3.776   3.429   1.619  0.1177  0.1340  0.7274
  161MOL     C225922   3.765   3.399   1.764  0.1815  0.5738  0.3218
  161MOL     C325923   3.816   3.511   1.855  0.7516  0.1512  0.6542
  161MOL     O425924   3.828   3.624   1.806 -0.1081 -0.1015 -0.2377
  161MOL     H525925   3.748   3.348   1.552  1.9302 -1.2071  1.5466
  161MOL     H625926   3.729   3.522   1.585 -1.1491 -0.8494 -0.2475
  161MOL     H725927   3.821   3.310   1.793 -1.3077 -0.1633  0.9935
  161MOL     H825928   3.661   3.384   1.792  0.0447 -2.4764 -1.6470
  161MOL     H925929   3.879   3.436   1.586  0.4165 -0.5701  1.4864
  161MOL    C1025930   3.864   3.485   1.997  0.0145  0.4904  0.1116
  161MOL    C1125931   4.013   3.443   2.018 -0.2153 -0.0850  0.1258
  161MOL    C1225932   4.035   3.295   2.002  0.5953  0.4619 -0.0383
  161MOL    O1325933   3.945   3.215   2.002 -0.0206 -0.0152  0.3260
  161MOL    H1425934   3.793   3.415   2.042 -0.4327  0.0625 -1.2289
  161MOL    H1525935   3.844   3.578   2.049 -1.2201  0.1267  0.2889
  161MOL    H1625936   4.037   3.469   2.121  2.6755  1.0000 -0.7868
  161MOL    H1725937   4.084   3.502   1.961  1.6009 -1.8974  0.4727
  161MOL    C1825938   4.180   3.246   1.990  0.5672  0.1831  0.3526
  161MOL    C1925939   4.212   3.205   1.841 -0.7785  0.2470 -0.3693
  161MOL    C2025940   4.339   3.263   1.781 -0.2600  0.8689 -0.6644
  161MOL    O2125941   4.414   3.331   1.851 -0.5494  0.4043 -0.1047
  161MOL    H2225942   4.196   3.160   2.054  2.4224  0.4107  0.2031
  161MOL    H2325943   4.237   3.334   2.021  0.1523  0.5684  0.0421
  161MOL    H2425944   4.129   3.240   1.780 -0.2230  0.5252 -0.9699
  161MOL    H2525945   4.217   3.096   1.843 -0.8897  0.2609  0.7119
  161MOL    C2625946   4.374   3.240   1.639  0.3549  0.4565 -0.5340
  161MOL    C2725947   4.527   3.255   1.617 -0.2276 -0.1564  0.2271
  161MOL    C2825948   4.558   3.250   1.464  0.4670 -0.7285 -0.0642
  161MOL    O2925949   4.472   3.230   1.378  0.1691  0.1640  0.4428
  161MOL    H3025950   4.312   3.315   1.589  0.1381  0.2213 -0.6225
  161MOL    H3125951   4.345   3.140   1.607  0.4411 -0.0613  0.9651
  161MOL    H3225952   4.574   3.177   1.676  2.4502  2.2739  1.3731
  161MOL    H3325953   4.564   3.347   1.662  0.0611 -1.2498  2.2814
  161MOL    C3425954   4.704   3.281   1.426  0.1909 -0.3366  0.2325
  161MOL    C3525955   4.741   3.257   1.274 -0.3302 -0.1813  0.1261
  161MOL    C3625956   4.698   3.365   1.176  0.2429 -1.2056 -0.1773
  161MOL    O3725957   4.757   3.475   1.166  0.0069  0.6866  0.2266
  161MOL    H3825958   4.772   3.211   1.475  0.7998  0.6764  0.8467
  161MOL    H3925959   4.729   3.384   1.450  1.7011 -1.1047  2.0254
  161MOL    H4025960   4.701   3.161   1.243  0.1211  0.2015 -1.6892
  161MOL    H4125961   4.847   3.243   1.253 -0.6181 -0.4138 -1.2503
  161MOL    C4225962   4.570   3.336   1.106  0.6819 -0.9124  0.6406
  161MOL    C4325963   4.541   3.425   0.978  0.0568  0.0381 -0.5839
  161MOL    C4425964   4.538   3.363   0.845  0.0850 -0.4499  0.0669
  161MOL    O4525965   4.590   3.255   0.820  0.1992 -0.4258  0.1319
  161MOL    H4625966   4.494   3.370   1.175 -1.5199 -1.3317 -1.5296
  161MOL    H4725967   4.550   3.229   1.097 -0.4032 -0.7625  1.1991
  161MOL    H4825968   4.613   3.505   0.967 -0.4289  0.3983 -1.1510
  161MOL    H4925969   4.444   3.474   0.985  0.7995  1.3460  0.7532
  161MOL    C5025970   4.475   3.446   0.728  0.2011  0.5487 -0.1956
  161MOL    C5125971   4.405   3.351   0.623  0.0341 -0.2156  0.1499
  161MOL    C5225972   4.364   3.432   0.499 -1.1366  0.0653  0.4483
  161MOL    O5325973   4.407   3.550   0.476  0.6335 -0.6019  0.2923
  161MOL    H5425974   4.553   3.507   0.683 -0.9541  1.3172 -1.1803
  161MOL    H5525975   4.396   3.512   0.764 -0.3860 -0.6487  0.7386
  161MOL    H5625976   4.317   3.302   0.665 -0.7813  0.2423 -0.9933
  161MOL    H5725977   4.471   3.273   0.586  1.4200  0.8297  0.3673
  161MOL    C5825978   4.279   3.358   0.405  0.2194  0.1392  0.4838
  161MOL    C5925979   4.215   3.449   0.299  0.1667 -0.0654 -0.7868
  161MOL    C6025980   4.268   3.423   0.158 -0.0050 -0.7132 -0.0611
  161MOL    O6125981   4.347   3.332   0.131  0.0051 -0.2630 -0.2222
  161MOL    H6225982   4.199   3.296   0.445 -0.4915  0.3957 -0.5173
  161MOL    H6325983   4.346   3.283   0.363 -0.9094 -1.1716  0.9971
  161MOL    H6425984   4.222   3.555   0.324  0.1597 -0.7573  2.3937
  161MOL    H6525985   4.110   3.420   0.301  0.7315 -2.1493  0.6779
  161MOL    C6625986   4.213   3.498   0.037  0.3219  0.0883  0.1120
  161MOL    C6725987   4.146   3.407   7.786  0.0010  0.3055  0.1481
  161MOL    C6825988   4.011   3.455   7.733  0.6833 -0.5208  0.6275
  161MOL    O6925989   3.934   3.530   7.792 -0.0120  0.2961  0.3662
  161MOL    H7025990   4.293   3.555   7.849  0.4722 -0.0098  0.2493
  161MOL    H7125991   4.142   3.568   0.080  0.4550 -0.0364  0.5305
  161MOL    H7225992   4.130   3.303   7.812 -0.1311 -0.1211 -1.5860
  161MOL    H7325993   4.221   3.406   7.706  0.0038  0.9345  0.1386
  161MOL    C7425994   3.984   3.409   7.592 -0.7520 -0.4666  0.2143
  161MOL    C7525995   3.831   3.400   7.550 -0.2552 -0.6816 -0.4143
  161MOL    C7625996   3.826   3.356   7.404  0.4223 -0.4704 -0.0735
  161MOL    O7725997   3.925   3.361   7.330 -0.2615  0.1381 -0.1072
  161MOL    H7825998   4.015   3.305   7.577 -1.2502 -0.4305 -1.1489
  161MOL    H7925999   4.037   3.468   7.517 -0.0098 -0.2748  0.8912
  161MOL    H8026000   3.791   3.501   7.550 -1.3442 -1.1007  1.1569
  161MOL    H8126001   3.770   3.342   7.619 -0.6947  1.6232  1.1954
  161MOL    C8226002   3.691   3.301   7.356 -0.0889  0.7492 -0.2414
  161MOL    C8326003   3.701   3.189   7.247  0.0252 -0.0583  0.1175
  161MOL    C8426004   3.581   3.200   7.154  0.1346  0.6470  0.0697
  161MOL    O8526005   3.491   3.291   7.153 -0.0902 -0.0789  0.0862
  161MOL    H8626006   3.649   3.392   7.314  0.3715  1.7887  1.4892
  161MOL    H8726007   3.631   3.268   7.442  0.5241  0.0984 -0.0584
  161MOL    H8826008   3.717   3.094   7.296 -0.9398  0.4595  1.4941
  161MOL    H8926009   3.786   3.208   7.183 -0.9971 -1.5105 -1.7009
  161MOL    C9026010   3.568   3.077   7.053 -0.2167  0.1727  0.2455
  161MOL    C9126011   3.428   3.017   7.062 -0.6096  0.5811 -0.4135
  161MOL    C9226012   3.393   2.925   6.951  0.2742 -0.0135  0.2851
  161MOL    O9326013   3.473   2.851   6.900  0.7141 -0.2320 -0.3330
  161MOL    H9426014   3.641   3.001   7.080 -1.7712 -1.9536 -1.3070
  161MOL    H9526015   3.584   3.101   6.948  0.8644 -0.6016  0.2258
  161MOL    H9626016   3.361   3.103   7.054  0.7312  1.5826 -1.0598
  161MOL    H9726017   3.419   2.966   7.158  0.6337 -0.0772 -0.6368
  161MOL    C9826018   3.249   2.934   6.896  0.2560  0.3650 -0.5337
  161MOL    C9926019   3.213   2.861   6.756 -0.0891  0.0402 -0.3175
  161MOL   C10026020   3.181   2.960   6.639 -0.4556  0.6588 -0.4256
  161MOL   O10126021   3.176   3.081   6.643 -0.2691 -0.2271  0.0642
  161MOL   H10226022   3.228   3.041   6.890 -1.7946 -0.0465 -1.1153
  161MOL   H10326023   3.182   2.901   6.975  0.5590  0.4311 -0.2489
  161MOL   H10426024   3.125   2.796   6.760  0.2537 -0.3257  1.5211
  161MOL   H10526025   3.297   2.798   6.728 -0.7570 -1.1477  0.3053
  161MOL   C10626026   3.170   2.900   6.499 -0.8554  0.4056 -0.6934
  161MOL   C10726027   3.218   2.990   6.384 -0.1586 -0.1243 -0.9497
  161MOL   C10826028   3.100   3.016   6.291  0.5012  0.3209  0.9094
  161MOL   O10926029   3.030   2.923   6.261 -0.1647 -0.6071 -0.4304
  161MOL   H11026030   3.063   2.886   6.479 -1.0560  3.1717 -1.7793
  161MOL   H11126031   3.218   2.802   6.500 -0.8787  0.4038  0.0825
  161MOL   H11226032   3.297   2.945   6.324  0.9211 -0.2232  0.5315
  161MOL   H11326033   3.248   3.081   6.436  0.2327  0.7133 -2.6200
  161MOL   C11426034   3.082   3.157   6.243 -0.2308 -0.5853 -0.3608
  161MOL   C11526035   3.041   3.169   6.092  0.4639 -0.1616  0.5027
  161MOL   C11626036   2.908   3.251   6.077 -0.6540  0.3643 -0.1784
  161MOL   O11726037   2.821   3.229   6.165 -0.0365  0.0794  0.4695
  161MOL   H11826038   3.173   3.216   6.241  0.2312 -1.2662  0.2739
  161MOL   H11926039   3.009   3.198   6.314 -1.4514 -1.1770 -1.2461
  161MOL   H12026040   3.050   3.068   6.052 -1.6713 -0.3054  0.3125
  161MOL   H12126041   3.120   3.221   6.039 -0.3208 -1.7405 -2.3157
  161MOL   C12226042   2.890   3.346   5.967  0.1426 -0.9425  0.0347
  161MOL   C12326043   2.775   3.443   5.978 -0.2289 -0.3686  0.2792
  161MOL   C12426044   2.811   3.576   5.913 -0.0093 -0.0775 -0.3990
  161MOL   O12526045   2.870   3.579   5.803  0.3880 -0.0168  0.1038
  161MOL   H12626046   2.894   3.290   5.874 -0.1872  0.5091 -0.8756
  161MOL   H12726047   2.979   3.407   5.979 -0.2502 -0.8862  3.1793
  161MOL   H12826048   2.751   3.455   6.083  1.7070 -0.7869  0.7889
  161MOL   H12926049   2.688   3.405   5.924  0.3895  0.1494 -1.1187
  161MOL   C13026050   2.780   3.706   5.983 -0.2986  0.1168 -0.6011
  161MOL   C13126051   2.726   3.819   5.896 -0.3780 -0.7857  0.4475
  161MOL   C13226052   2.581   3.845   5.937  0.1715 -0.4866  0.8462
  161MOL   O13326053   2.490   3.759   5.924 -0.4153  0.0337 -0.0262
  161MOL   H13426054   2.870   3.740   6.035 -1.5665  0.6705  1.2933
  161MOL   H13526055   2.714   3.692   6.069 -0.3417 -1.3857 -0.8589
  161MOL   H13626056   2.733   3.795   5.789 -0.2359 -1.7997  0.6815
  161MOL   H13726057   2.793   3.902   5.919  0.3671 -1.0735 -0.6170
  161MOL   C13826058   2.558   3.985   5.994 -0.5425 -0.3576 -0.4525
  161MOL   C13926059   2.420   4.000   6.068 -0.0858  0.2812 -0.0744
  161MOL   C14026060   2.399   4.138   6.119  0.7098  0.1102 -0.4529
  161MOL   O14126061   2.451   4.240   6.072  0.3272 -0.3300 -0.1307
  161MOL   H14226062   2.580   4.062   5.920  0.4652  0.1823  0.3986
  161MOL   H14326063   2.636   4.008   6.066  0.9650 -0.6055 -1.9902
  161MOL   H14426064   2.414   3.922   6.144 -1.3010  1.0560  0.6331
  161MOL   H14526065   2.339   3.974   6.000  0.0566  1.5211 -0.7376
  161MOL   C14626066   2.297   4.146   6.233 -1.0379  0.7018  0.4165
  161MOL   C14726067   2.364   4.153   6.362  0.5764 -0.5956  0.3963
  161MOL   C14826068   2.278   4.176   6.478  0.1048 -0.3928 -0.3722
  161MOL   O14926069   2.259   4.291   6.517 -0.3996  0.2766 -0.5196
  161MOL   H15026070   2.237   4.056   6.222  0.9726 -0.6836  0.5097
  161MOL   H15126071   2.239   4.238   6.224 -1.7358  0.1799 -0.5210
  161MOL   H15226072   2.444   4.227   6.366 -1.5149  1.6839  1.0157
  161MOL   H15326073   2.429   4.067   6.380 -0.0733 -1.0231  0.7293
  161MOL   C15426074   2.215   4.053   6.548  0.2845 -0.6874  0.1870
  161MOL   C15526075   2.111   4.092   6.647 -0.1602 -0.0494 -0.1459
  161MOL   C15626076   1.967   4.090   6.591  0.1766 -0.1103 -0.1766
  161MOL   O15726077   1.922   3.988   6.529  0.6194 -0.0796 -0.2910
  161MOL   H15826078   2.295   4.000   6.599  0.6729 -0.9852 -0.7170
  161MOL   H15926079   2.179   3.985   6.470  0.2237 -0.1832 -0.2269
  161MOL   H16026080   2.122   4.195   6.682 -0.7317 -0.1603  0.3776
  161MOL   H16126081   2.105   4.039   6.742  0.5727 -0.5892 -0.4039
  161MOL   H16226082   1.909   4.183   6.590  2.3513  1.2936 -2.0612
  162MOL     C126083   2.668   7.156   2.600  0.6396 -0.0768 -0.2829
  162MOL     C226084   2.748   7.024   2.601 -0.0914 -0.2252  0.2154
  162MOL     C326085   2.883   7.052   2.538 -0.5315  0.1590 -0.5035
  162MOL     O426086   2.951   7.146   2.581  0.1578 -0.6924  0.2284
  162MOL     H526087   2.707   7.231   2.669 -0.6103  0.0432  0.2990
  162MOL     H626088   2.680   7.200   2.501 -0.7212  2.0465  0.4664
  162MOL     H726089   2.697   6.949   2.541 -0.0109 -0.2176  0.1375
  162MOL     H826090   2.762   6.977   2.698  0.0388  1.0251  0.8035
  162MOL     H926091   2.560   7.143   2.607  0.5270  0.1315 -1.5464
  162MOL    C1026092   2.921   6.978   2.416 -0.2624 -0.2366  0.1396
  162MOL    C1126093   3.075   7.001   2.378  1.0500  0.6877 -0.3020
  162MOL    C1226094   3.082   7.105   2.266 -0.1425  0.8651  0.3926
  162MOL    O1326095   2.981   7.133   2.202  0.0126  0.2781  0.1601
  162MOL    H1426096   2.845   7.009   2.344  1.1161  0.4009 -1.0693
  162MOL    H1526097   2.913   6.871   2.433 -0.9577 -0.1398  0.4365
  162MOL    H1626098   3.122   6.913   2.335 -0.2070  1.0865 -2.6362
  162MOL    H1726099   3.137   7.033   2.461  1.7091 -1.1442 -0.0837
  162MOL    C1826100   3.221   7.151   2.230  0.2209 -0.1562  0.2016
  162MOL    C1926101   3.235   7.263   2.122 -0.4058 -0.1054  0.5933
  162MOL    C2026102   3.286   7.211   1.982 -0.7123 -0.3234 -0.1448
  162MOL    O2126103   3.330   7.097   1.974 -0.2963 -0.2325 -0.1251
  162MOL    H2226104   3.280   7.064   2.200 -1.9193 -2.0538  1.3257
  162MOL    H2326105   3.257   7.177   2.330 -1.1906  2.6964  0.0117
  162MOL    H2426106   3.303   7.342   2.153 -1.2456  0.1895  1.7645
  162MOL    H2526107   3.137   7.309   2.105  0.1057  0.0311 -2.0852
  162MOL    C2626108   3.271   7.293   1.861 -0.5185  0.1305  0.1717
  162MOL    C2726109   3.140   7.252   1.794  0.2531  0.2811  0.8443
  162MOL    C2826110   3.121   7.337   1.664 -0.1921 -0.0446 -0.0997
  162MOL    O2926111   3.195   7.432   1.646  0.8553 -0.2496 -0.3302
  162MOL    H3026112   3.357   7.280   1.794 -0.2275  0.9635  0.3775
  162MOL    H3126113   3.280   7.399   1.885 -0.9625  0.6595 -1.8742
  162MOL    H3226114   3.061   7.271   1.867 -0.9238 -0.8788 -0.1038
  162MOL    H3326115   3.153   7.146   1.777 -1.8771 -0.2605  2.4627
  162MOL    C3426116   3.007   7.308   1.566 -0.3417 -0.2377 -0.3319
  162MOL    C3526117   3.010   7.391   1.440  0.6382  1.2379  0.0364
  162MOL    C3626118   3.070   7.322   1.323 -0.5851  0.6364  0.2202
  162MOL    O3726119   3.086   7.198   1.317  0.0800 -0.2159  0.0873
  162MOL    H3826120   2.916   7.334   1.620  0.1510  0.4661  0.1637
  162MOL    H3926121   2.992   7.201   1.550  0.7524 -0.0956 -2.3430
  162MOL    H4026122   3.050   7.491   1.454 -2.3193  2.4249  0.2285
  162MOL    H4126123   2.913   7.409   1.395  0.0980 -0.4535  0.4931
  162MOL    C4226124   3.097   7.404   1.197  0.7715  0.2832 -0.3224
  162MOL    C4326125   3.149   7.334   1.073  0.5700 -0.6611 -0.5869
  162MOL    C4426126   3.244   7.417   0.994 -0.7341  0.2234  0.6909
  162MOL    O4526127   3.365   7.416   1.012 -0.1264 -0.1088 -0.0198
  162MOL    H4626128   3.176   7.470   1.233 -0.3317 -0.7115  4.3281
  162MOL    H4726129   3.021   7.479   1.172 -2.7316 -2.5424  1.3171
  162MOL    H4826130   3.081   7.283   1.005 -0.1456  1.5312 -1.5667
  162MOL    H4926131   3.215   7.256   1.110  0.5365  0.8012  2.8215
  162MOL    C5026132   3.196   7.518   0.889  0.2852  0.1216 -0.2957
  162MOL    C5126133   3.312   7.569   0.796  0.4592 -0.0632 -0.3991
  162MOL    C5226134   3.279   7.552   0.646 -0.3971  0.0433 -0.8000
  162MOL    O5326135   3.170   7.508   0.610 -0.4702 -0.4823  0.4529
  162MOL    H5426136   3.133   7.596   0.931  2.3429  1.6868 -0.0553
  162MOL    H5526137   3.116   7.464   0.837 -1.1891  1.1189  0.8907
  162MOL    H5626138   3.404   7.514   0.814  0.1198 -0.9313 -1.2922
  162MOL    H5726139   3.326   7.674   0.824  0.5697 -0.2608  0.2687
  162MOL    C5826140   3.400   7.574   0.549 -0.1080 -0.9229  0.7552
  162MOL    C5926141   3.366   7.555   0.393  0.1996  0.6198  0.4576
  162MOL    C6026142   3.337   7.690   0.323 -0.5256 -0.3247 -0.3670
  162MOL    O6126143   3.362   7.800   0.381 -0.0504  0.0330 -0.1089
  162MOL    H6226144   3.479   7.504   0.577  2.2040  0.8754 -1.0980
  162MOL    H6326145   3.439   7.674   0.567 -0.3243 -0.9988  1.6730
  162MOL    H6426146   3.284   7.485   0.376  0.6918  0.2318 -0.3899
  162MOL    H6526147   3.447   7.499   0.346 -0.2533  0.3797 -0.0445
  162MOL    C6626148   3.285   7.690   0.185  0.3911  0.0459 -0.9405
  162MOL    C6726149   3.387   7.731   0.081 -0.7989 -0.3384  0.5391
  162MOL    C6826150   3.358   0.009   0.029  0.4860 -0.1719  0.3193
  162MOL    O6926151   3.337   0.022   7.765 -0.2022 -0.6658  0.8229
  162MOL    H7026152   3.188   7.740   0.177  0.2679  0.3291  1.6310
  162MOL    H7126153   3.254   7.586   0.176  0.3621  0.0438 -0.8170
  162MOL    H7226154   3.377   7.668   7.851  0.5331  0.5020 -0.2304
  162MOL    H7326155   3.487   7.749   0.120  0.2392  0.6766 -2.4323
  162MOL    C7426156   3.353   0.126   0.122 -0.1416  0.0066 -0.1699
  162MOL    C7526157   3.319   0.265   0.059  0.2367 -1.2257 -0.2640
  162MOL    C7626158   3.237   0.359   0.145  0.0854  0.6563  0.1953
  162MOL    O7726159   3.233   0.342   0.270  0.3370 -0.6037  0.0211
  162MOL    H7826160   3.446   0.134   0.178  0.2157 -4.5419  0.0864
  162MOL    H7926161   3.292   0.092   0.205  0.0197  0.5983  0.1982
  162MOL    H8026162   3.283   0.251   7.816 -0.5774 -2.1335  0.1435
  162MOL    H8126163   3.412   0.321   0.053 -1.6816  2.0523 -0.7351
  162MOL    C8226164   3.186   0.494   0.088  0.7948 -0.3302  0.2201
  162MOL    C8326165   3.029   0.498   0.093  0.0962 -1.0584 -0.2095
  162MOL    C8426166   2.986   0.574   0.218 -0.0662 -0.2721 -0.4306
  162MOL    O8526167   3.059   0.648   0.283  0.3731 -0.0326  0.3338
  162MOL    H8626168   3.211   0.495   7.841  0.3496 -0.8381  0.1101
  162MOL    H8726169   3.238   0.582   0.128 -0.9993  0.7365  0.2624
  162MOL    H8826170   2.982   0.400   0.101 -0.8923 -0.5673  0.1202
  162MOL    H8926171   2.983   0.540   0.003 -0.3202  1.7041  1.2243
  162MOL    C9026172   2.839   0.555   0.255 -0.2800  0.4534 -0.3593
  162MOL    C9126173   2.777   0.666   0.331  0.1030 -0.7993 -0.3162
  162MOL    C9226174   2.741   0.793   0.261  0.6067 -0.2119 -0.4599
  162MOL    O9326175   2.741   0.898   0.324 -0.1172 -0.4931  0.3942
  162MOL    H9426176   2.850   0.469   0.320 -0.5555 -1.1816 -2.4243
  162MOL    H9526177   2.784   0.518   0.168  2.1501  0.9584 -2.1927
  162MOL    H9626178   2.844   0.680   0.416 -0.8893 -1.9708  0.6783
  162MOL    H9726179   2.693   0.628   0.388  0.2618  0.7906  1.0071
  162MOL    C9826180   2.685   0.784   0.118  0.6696 -0.2039  0.5052
  162MOL    C9926181   2.654   0.923   0.061 -0.9159 -0.2551  0.6480
  162MOL   C10026182   2.522   0.983   0.102  0.0372  0.9346  0.0051
  162MOL   O10126183   2.415   0.917   0.080  0.2644  0.4933 -0.0955
  162MOL   H10226184   2.592   0.726   0.116 -1.0026  2.4109  0.1847
  162MOL   H10326185   2.749   0.731   0.048  2.4132  2.2079  0.2443
  162MOL   H10426186   2.656   0.925   7.811  0.2194  5.2895  0.6308
  162MOL   H10526187   2.724   1.000   0.091 -1.5416  0.4328  0.3737
  162MOL   C10626188   2.522   1.115   0.178 -0.4380 -0.3190  0.5963
  162MOL   C10726189   2.407   1.120   0.282 -0.6151 -0.1028  0.1594
  162MOL   C10826190   2.426   1.240   0.373 -0.1153  0.7536 -0.3692
  162MOL   O10926191   2.508   1.335   0.360 -0.5572 -0.0146 -0.5327
  162MOL   H11026192   2.511   1.199   0.110 -0.8758 -0.4127  0.5514
  162MOL   H11126193   2.621   1.130   0.221 -1.0026  1.0871  1.4393
  162MOL   H11226194   2.398   1.028   0.340 -2.8656 -0.8419 -1.3280
  162MOL   H11326195   2.310   1.128   0.235  0.1731 -2.4570 -1.9561
  162MOL   C11426196   2.326   1.245   0.490 -0.1987  0.6310  0.0597
  162MOL   C11526197   2.387   1.333   0.605  0.6692  0.4505 -0.1487
  162MOL   C11626198   2.333   1.473   0.599  0.1067 -0.3550  0.5705
  162MOL   O11726199   2.221   1.501   0.570  0.2332  0.2522  0.3619
  162MOL   H11826200   2.286   1.150   0.526 -0.7636  1.4272  1.5991
  162MOL   H11926201   2.238   1.294   0.449 -0.7504 -0.8639 -0.5779
  162MOL   H12026202   2.493   1.359   0.604  1.2310 -1.7093  0.3800
  162MOL   H12126203   2.372   1.295   0.706 -0.3619  0.2057 -0.3864
  162MOL   C12226204   2.422   1.585   0.665 -0.1114  0.9435  0.3648
  162MOL   C12326205   2.374   1.624   0.804  0.4021 -0.3409 -0.2367
  162MOL   C12426206   2.461   1.583   0.924  0.1910  0.1483 -0.3419
  162MOL   O12526207   2.570   1.522   0.916  0.2825  0.0848  0.4753
  162MOL   H12626208   2.422   1.675   0.603 -0.2989 -0.1917 -1.3118
  162MOL   H12726209   2.523   1.544   0.670  0.0058  1.1268 -0.4393
  162MOL   H12826210   2.277   1.576   0.818 -0.7207  2.0981  0.6902
  162MOL   H12926211   2.378   1.733   0.798 -1.9127 -0.1219  1.4874
  162MOL   C13026212   2.392   1.616   1.059  0.3752 -0.2379  0.4866
  162MOL   C13126213   2.308   1.511   1.120  0.0703  0.0735  0.5436
  162MOL   C13226214   2.168   1.552   1.152 -0.0487  0.1222  0.4179
  162MOL   O13326215   2.138   1.669   1.169  0.0697  1.3523 -0.3251
  162MOL   H13426216   2.342   1.713   1.054  1.1186  0.1215 -0.3752
  162MOL   H13526217   2.469   1.639   1.133  3.0353 -1.2443 -1.8481
  162MOL   H13626218   2.363   1.485   1.210 -2.5896  0.8955  2.4646
  162MOL   H13726219   2.306   1.419   1.061  1.1557  1.7136 -2.1397
  162MOL   C13826220   2.060   1.446   1.166 -0.1743  0.6559  0.3523
  162MOL   C13926221   1.974   1.462   1.296  0.2932  0.1868  0.1930
  162MOL   C14026222   1.851   1.542   1.261  0.2890  0.2619 -0.7930
  162MOL   O14126223   1.768   1.501   1.183  0.2782 -0.9676  0.2592
  162MOL   H14226224   2.110   1.349   1.176 -1.7965 -0.3823 -1.2558
  162MOL   H14326225   1.997   1.432   1.078  1.6233 -0.5390 -0.8028
  162MOL   H14426226   2.028   1.521   1.370  0.7931 -1.1379  0.9010
  162MOL   H14526227   1.943   1.368   1.342 -0.3076  0.2023 -0.1706
  162MOL   C14626228   1.838   1.670   1.342 -0.0861  0.4313 -0.1282
  162MOL   C14726229   1.702   1.743   1.321  0.2823  0.5489  1.0592
  162MOL   C14826230   1.615   1.721   1.443  0.3196  0.7295  1.4690
  162MOL   O14926231   1.641   1.633   1.524 -0.1030  0.3166  0.0660
  162MOL   H15026232   1.925   1.728   1.312  2.1861 -3.1954 -0.8182
  162MOL   H15126233   1.858   1.648   1.447 -0.2629  0.7394 -0.0294
  162MOL   H15226234   1.643   1.699   1.241  0.4750  0.3122  1.0467
  162MOL   H15326235   1.714   1.851   1.310 -1.4616  0.8175  1.5792
  162MOL   C15426236   1.483   1.796   1.447  0.2774 -0.2180 -0.4409
  162MOL   C15526237   1.475   1.865   1.583 -0.4112 -0.0272  0.2688
  162MOL   C15626238   1.378   1.823   1.686  0.5418 -0.0732  0.3208
  162MOL   O15726239   1.326   1.712   1.689  0.0271  0.8590  0.1265
  162MOL   H15826240   1.404   1.724   1.430 -0.8876  0.9624 -0.0891
  162MOL   H15926241   1.469   1.866   1.365  0.5920 -3.0843 -3.0394
  162MOL   H16026242   1.451   1.968   1.558 -1.9878 -0.4561 -0.0983
  162MOL   H16126243   1.567   1.861   1.640  0.0283 -0.0214 -0.4397
  162MOL   H16226244   1.375   1.890   1.771 -1.2875 -1.0012  1.0197
  163MOL     C126245   3.094   0.885   0.807  0.7335 -0.6814  0.6340
  163MOL     C226246   3.077   0.733   0.802 -0.2270  0.0692 -0.2634
  163MOL     C326247   3.152   0.670   0.918 -0.1298  0.6041 -0.3432
  163MOL     O426248   3.144   0.720   1.032  0.3059 -0.1784  0.5047
  163MOL     H526249   3.131   0.937   0.718  0.4104  0.1803  1.0052
  163MOL     H626250   2.993   0.922   0.826  0.9920 -0.1022  0.8593
  163MOL     H726251   3.110   0.695   0.705  1.5323 -0.6248  0.5777
  163MOL     H826252   2.970   0.711   0.803 -0.3110  0.4786 -0.4176
  163MOL     H926253   3.163   0.917   0.885  1.5253  0.1809 -0.4034
  163MOL    C1026254   3.233   0.544   0.889 -0.2384  0.4472  0.2526
  163MOL    C1126255   3.336   0.520   1.002  0.5497 -0.4260  0.9272
  163MOL    C1226256   3.482   0.539   0.959  0.0617  0.5450  0.5053
  163MOL    O1326257   3.505   0.609   0.861 -0.0329 -0.2768 -0.5435
  163MOL    H1426258   3.271   0.547   0.787 -1.6831  0.9577 -0.2800
  163MOL    H1526259   3.164   0.459   0.892 -0.8743  1.0154  1.9023
  163MOL    H1626260   3.317   0.417   1.031 -1.6557  0.0048  1.1079
  163MOL    H1726261   3.309   0.573   1.094  0.1549 -0.1453  0.6483
  163MOL    C1826262   3.583   0.480   1.055  0.8045 -0.0107 -0.0944
  163MOL    C1926263   3.727   0.468   1.000 -0.4531 -0.3419 -0.5730
  163MOL    C2026264   3.837   0.496   1.106  0.0379  0.9413 -0.4288
  163MOL    O2126265   3.829   0.431   1.215  0.3164 -0.1045 -0.1381
  163MOL    H2226266   3.544   0.384   1.088 -1.0289  1.0164  0.7463
  163MOL    H2326267   3.574   0.549   1.138 -0.3624 -0.1130 -0.1212
  163MOL    H2426268   3.742   0.536   0.916 -1.1035 -0.1035 -0.4968
  163MOL    H2526269   3.748   0.372   0.953  2.2277  0.5215 -1.2175
  163MOL    C2626270   3.946   0.599   1.082 -0.9798 -0.4261 -0.3877
  163MOL    C2726271   4.070   0.542   1.022 -0.2266  0.2942  0.5412
  163MOL    C2826272   4.185   0.640   1.032  0.3411  0.1970  0.5148
  163MOL    O2926273   4.164   0.738   1.102 -0.0357  0.2110  0.4832
  163MOL    H3026274   3.964   0.640   1.181  4.4391 -1.6745 -0.6996
  163MOL    H3126275   3.905   0.668   1.008 -0.8442 -2.0341 -2.0151
  163MOL    H3226276   4.053   0.516   0.918  0.1756  0.8412  0.3351
  163MOL    H3326277   4.088   0.449   1.076  0.5986 -0.2326 -0.6231
  163MOL    C3426278   4.319   0.601   0.969 -0.1736 -0.0023 -0.2905
  163MOL    C3526279   4.371   0.708   0.877  0.2526 -0.8062 -0.8283
  163MOL    C3626280   4.342   0.680   0.733  0.0390 -0.0107  0.1434
  163MOL    O3726281   4.225   0.663   0.690  0.0206 -0.1498  0.3081
  163MOL    H3826282   4.311   0.508   0.913 -2.8213  0.6333 -1.0330
  163MOL    H3926283   4.382   0.587   1.056 -0.5403  2.7842  0.4720
  163MOL    H4026284   4.474   0.743   0.890 -1.0701  2.6094  1.0895
  163MOL    H4126285   4.320   0.804   0.887  1.5709  0.5264 -5.5502
  163MOL    C4226286   4.463   0.679   0.636  0.2437 -0.2096 -0.3297
  163MOL    C4326287   4.444   0.580   0.531  0.2459 -0.4040 -0.5870
  163MOL    C4426288   4.394   0.652   0.405 -0.0484 -0.6363  0.0173
  163MOL    O4526289   4.450   0.748   0.355 -0.0979  0.3917  0.2169
  163MOL    H4626290   4.555   0.665   0.691  0.2976  1.0555 -0.0870
  163MOL    H4726291   4.468   0.780   0.595  1.4158  1.7985  4.4933
  163MOL    H4826292   4.381   0.498   0.566 -0.6722  1.0450  1.2727
  163MOL    H4926293   4.544   0.554   0.498  1.4038  0.6702  1.9570
  163MOL    C5026294   4.252   0.614   0.358  0.4874 -0.7897  0.5492
  163MOL    C5126295   4.204   0.674   0.230  0.1590  0.1974 -0.2111
  163MOL    C5226296   4.258   0.610   0.098  0.2473 -0.3656 -0.5037
  163MOL    O5326297   4.226   0.496   0.065 -0.0561  0.7694  0.1546
  163MOL    H5426298   4.185   0.649   0.437 -1.0925 -0.6323 -0.8238
  163MOL    H5526299   4.239   0.506   0.364 -0.9871 -0.8271 -2.4838
  163MOL    H5626300   4.240   0.777   0.235  2.2842 -0.5348  0.2954
  163MOL    H5726301   4.096   0.671   0.224  0.2210 -2.8250 -0.9081
  163MOL    C5826302   4.356   0.690   0.019 -0.3443 -0.5925  0.1293
  163MOL    C5926303   4.444   0.614   7.772 -1.2168  0.4942 -0.5689
  163MOL    C6026304   4.455   0.672   7.637  0.1579 -0.0958 -0.4743
  163MOL    O6126305   4.431   0.794   7.629 -0.1033  0.2213 -0.4597
  163MOL    H6226306   4.415   0.720   0.106  0.6147 -2.7352  0.2535
  163MOL    H6326307   4.310   0.777   7.832 -0.8224 -1.3802 -0.9201
  163MOL    H6426308   4.419   0.507   7.773 -2.5850  0.8000  0.0148
  163MOL    H6526309   4.546   0.621   7.808 -2.5079 -1.6475  3.9848
  163MOL    C6626310   4.515   0.595   7.521 -0.3471 -0.2928  0.0907
  163MOL    C6726311   4.535   0.673   7.385  0.1462 -0.1316 -0.4912
  163MOL    C6826312   4.449   0.619   7.268  0.2678 -0.0843 -0.0158
  163MOL    O6926313   4.336   0.570   7.280 -0.4490 -0.2792 -0.4048
  163MOL    H7026314   4.438   0.518   7.518 -1.9230  1.1406  2.3567
  163MOL    H7126315   4.608   0.549   7.555  0.1335  1.2285  0.8818
  163MOL    H7226316   4.640   0.689   7.360  0.1015  0.1279 -0.5160
  163MOL    H7326317   4.492   0.774   7.389 -2.5807 -1.1951 -1.6831
  163MOL    C7426318   4.525   0.631   7.137  0.1060  0.8310 -0.4908
  163MOL    C7526319   4.494   0.517   7.044  0.2436  0.7352  0.2960
  163MOL    C7626320   4.609   0.496   6.944  0.1158  0.1616 -0.1591
  163MOL    O7726321   4.717   0.551   6.959 -0.3741  0.3837 -0.0106
  163MOL    H7826322   4.630   0.643   7.163 -0.1999  1.5961  0.4450
  163MOL    H7926323   4.509   0.726   7.087  1.7385  1.1676 -0.3788
  163MOL    H8026324   4.398   0.539   6.997 -0.2574 -0.4393  0.7647
  163MOL    H8126325   4.464   0.428   7.099 -1.2204  0.6809 -0.5335
  163MOL    C8226326   4.575   0.417   6.824  0.0207 -0.0445 -0.3277
  163MOL    C8326327   4.696   0.374   6.746  0.2102 -0.1000  0.3055
  163MOL    C8426328   4.736   0.469   6.633  0.3868  0.7261  0.3494
  163MOL    O8526329   4.686   0.454   6.525  0.2679 -0.2378  0.7218
  163MOL    H8626330   4.509   0.478   6.763 -0.8185 -1.2903 -0.6862
  163MOL    H8726331   4.521   0.331   6.864  0.3364  0.2239  0.6851
  163MOL    H8826332   4.667   0.278   6.704 -0.6001 -0.9273  2.6301
  163MOL    H8926333   4.781   0.353   6.811 -2.1238 -1.9970  2.9016
  163MOL    C9026334   4.843   0.573   6.647 -0.2419 -0.1171  0.2038
  163MOL    C9126335   4.831   0.693   6.550  0.1367  0.1091  0.0527
  163MOL    C9226336   4.914   0.818   6.592 -0.6688 -0.5391 -0.7631
  163MOL    O9326337   5.008   0.804   6.673 -0.4415  0.1880 -0.2890
  163MOL    H9426338   4.942   0.530   6.643  0.1272  0.6448  0.8876
  163MOL    H9526339   4.841   0.614   6.748  2.2210 -1.8649  1.0083
  163MOL    H9626340   4.726   0.724   6.542 -0.6988 -2.8948 -1.3356
  163MOL    H9726341   4.869   0.671   6.450  0.7909  0.4743  0.2183
  163MOL    C9826342   4.900   0.943   6.508  0.5937  0.0605  0.1156
  163MOL    C9926343   4.937   1.070   6.594 -0.2678 -0.4947  0.3516
  163MOL   C10026344   4.958   1.201   6.523 -1.2858 -0.2741 -1.1978
  163MOL   O10126345   4.982   1.197   6.406 -0.4013  0.0388  0.2209
  163MOL   H10226346   4.800   0.955   6.465  0.7265  2.1802  0.3233
  163MOL   H10326347   4.970   0.935   6.424 -0.1690  1.3360 -0.6684
  163MOL   H10426348   5.028   1.059   6.652  0.3379  1.7105 -0.1115
  163MOL   H10526349   4.862   1.085   6.672 -1.6065  0.5618 -1.0985
  163MOL   C10626350   4.946   1.323   6.604  0.4305 -0.5605  0.0856
  163MOL   C10726351   5.023   1.438   6.540 -0.0043  0.3361 -0.4882
  163MOL   C10826352   5.173   1.425   6.575 -0.2972  0.2197  1.2712
  163MOL   O10926353   5.209   1.344   6.661  0.3459  0.1862 -0.2894
  163MOL   H11026354   4.976   1.303   6.707 -1.2910  0.1082  0.7436
  163MOL   H11126355   4.841   1.353   6.605  0.8240  0.8396  2.0848
  163MOL   H11226356   4.991   1.532   6.587 -1.5466 -0.9858  1.1680
  163MOL   H11326357   5.010   1.440   6.432  2.0655  2.3025 -0.7386
  163MOL   C11426358   5.261   1.523   6.500  0.1967  0.0015 -0.2569
  163MOL   C11526359   5.382   1.557   6.581  0.2203 -1.1058 -0.2906
  163MOL   C11626360   5.431   1.703   6.554 -0.4050 -0.7764 -0.1212
  163MOL   O11726361   5.349   1.788   6.502 -0.7091  0.1664 -0.0830
  163MOL   H11826362   5.208   1.617   6.480 -0.6793 -0.0859  1.5962
  163MOL   H11926363   5.291   1.487   6.401 -1.6827 -0.3009 -0.7376
  163MOL   H12026364   5.472   1.500   6.559  0.7145  0.4817 -2.5568
  163MOL   H12126365   5.367   1.535   6.687  0.5041  1.3820  0.2987
  163MOL   C12226366   5.583   1.729   6.574  0.7451 -0.7242 -0.3595
  163MOL   C12326367   5.616   1.872   6.601  0.7979 -0.0338 -0.3040
  163MOL   C12426368   5.631   1.911   6.742 -0.0702  0.1438  0.4116
  163MOL   O12526369   5.629   1.825   6.831  0.4262 -0.1650 -0.0051
  163MOL   H12626370   5.632   1.697   6.482  2.5821  3.6977 -1.0761
  163MOL   H12726371   5.623   1.662   6.651  0.3847 -2.0916 -1.3446
  163MOL   H12826372   5.549   1.948   6.560 -1.7910 -1.8032  0.5506
  163MOL   H12926373   5.710   1.889   6.548  0.9723  1.0682  0.3678
  163MOL   C13026374   5.635   2.060   6.776 -0.7886 -0.2028 -0.5146
  163MOL   C13126375   5.620   2.090   6.928  0.2576  0.2996 -0.4158
  163MOL   C13226376   5.537   2.212   6.972  0.5331 -0.4614 -0.1476
  163MOL   O13326377   5.482   2.292   6.896 -0.9053 -0.0856  0.5960
  163MOL   H13426378   5.564   2.119   6.718 -0.2379 -0.3703 -1.3732
  163MOL   H13526379   5.739   2.085   6.754 -0.3625 -3.1824 -2.2091
  163MOL   H13626380   5.716   2.101   6.979 -1.5207  0.3385  3.0637
  163MOL   H13726381   5.591   2.003   6.987 -0.5836  1.2505  0.6119
  163MOL   C13826382   5.528   2.220   7.121 -0.0126  0.1054 -0.8034
  163MOL   C13926383   5.376   2.229   7.162 -0.8613 -0.3895 -0.2027
  163MOL   C14026384   5.345   2.124   7.269 -1.3213  0.7148 -0.3314
  163MOL   O14126385   5.421   2.090   7.352 -0.6669 -0.6745  0.1803
  163MOL   H14226386   5.595   2.301   7.150 -0.1737  0.3747 -1.1830
  163MOL   H14326387   5.573   2.133   7.167  2.4094  0.9458 -1.5100
  163MOL   H14426388   5.295   2.213   7.091 -1.9708  2.3969  0.3735
  163MOL   H14526389   5.359   2.331   7.196  2.1791  0.0312  0.1766
  163MOL   C14626390   5.199   2.064   7.259 -0.0244 -0.3339  0.8018
  163MOL   C14726391   5.148   1.991   7.378  0.3960  0.7238  0.4777
  163MOL   C14826392   5.037   2.057   7.455  0.2179 -0.1499  0.0596
  163MOL   O14926393   4.982   2.157   7.417  0.0413  0.1608  0.5078
  163MOL   H15026394   5.198   2.002   7.169 -2.5758  2.5722 -1.2795
  163MOL   H15126395   5.137   2.149   7.229 -2.6265 -2.5808 -0.4559
  163MOL   H15226396   5.226   1.964   7.449 -0.6031 -0.3806  1.1787
  163MOL   H15326397   5.110   1.893   7.349 -0.2003  0.9778  0.3925
  163MOL   C15426398   4.986   1.994   7.588 -0.5396  0.3887 -0.4066
  163MOL   C15526399   4.827   1.983   7.596 -0.1177 -0.1919 -0.4122
  163MOL   C15626400   4.776   1.873   7.505  0.1499 -0.8864 -0.5263
  163MOL   O15726401   4.834   1.839   7.406  0.3191  0.4143  0.1169
  163MOL   H15826402   5.014   2.062   7.668  1.0536 -1.7007  0.8764
  163MOL   H15926403   5.036   1.898   7.597  2.6884  2.0031 -0.4352
  163MOL   H16026404   4.780   2.078   7.571  0.7640  0.8210  1.6807
  163MOL   H16126405   4.789   1.963   7.696  0.0328 -0.2920 -0.3757
  163MOL   H16226406   4.673   1.844   7.523 -1.1827  2.8355 -1.6292
  164MOL     C126407   3.500   3.893   5.802  0.2600  0.8741  0.4430
  164MOL     C226408   3.570   3.844   5.931  0.1643 -0.4739 -0.1195
  164MOL     C326409   3.702   3.774   5.907 -0.1070  0.7613  0.6583
  164MOL     O426410   3.802   3.830   5.950  0.5021 -0.8227 -0.2283
  164MOL     H526411   3.559   3.970   5.753  1.4357  0.1790  0.7290
  164MOL     H626412   3.483   3.813   5.729 -1.6972 -0.1345  1.9573
  164MOL     H726413   3.514   3.777   5.997  1.3812  0.1262  1.5756
  164MOL     H826414   3.590   3.928   5.999  0.8189 -1.3200  0.7588
  164MOL     H926415   3.402   3.933   5.826 -0.0424  0.4128 -0.0083
  164MOL    C1026416   3.703   3.641   5.837  0.6277  0.0255 -0.2256
  164MOL    C1126417   3.829   3.557   5.868  0.8839 -0.1239 -0.1145
  164MOL    C1226418   3.796   3.422   5.924 -0.1613 -0.1910  0.1946
  164MOL    O1326419   3.693   3.364   5.899 -0.0956 -0.6378  0.2134
  164MOL    H1426420   3.705   3.671   5.732  0.9687 -0.3772 -0.3354
  164MOL    H1526421   3.615   3.583   5.866  1.4818 -0.5809  1.1721
  164MOL    H1626422   3.891   3.600   5.946  1.0221 -1.8551  0.7484
  164MOL    H1726423   3.881   3.542   5.774  0.9677 -0.8761  0.0502
  164MOL    C1826424   3.904   3.353   6.007 -0.2454 -0.4738  0.1526
  164MOL    C1926425   3.861   3.244   6.104  0.4456 -0.4573  0.1717
  164MOL    C2026426   3.965   3.136   6.118 -0.3266  0.0029  0.3160
  164MOL    O2126427   4.087   3.164   6.108  0.2171  0.1894  0.2364
  164MOL    H2226428   3.960   3.428   6.063 -1.7198 -0.0525  1.0736
  164MOL    H2326429   3.965   3.307   5.929  0.8124  2.0283 -0.5495
  164MOL    H2426430   3.774   3.191   6.066  0.0708 -0.7773  1.4630
  164MOL    H2526431   3.825   3.279   6.201  0.4126 -0.1820  0.0605
  164MOL    C2626432   3.920   2.994   6.157  0.0827 -0.1633 -0.1452
  164MOL    C2726433   4.014   2.934   6.269  0.2714  0.0389 -0.6490
  164MOL    C2826434   4.004   3.005   6.407  0.0382  0.3242  0.6987
  164MOL    O2926435   3.911   3.082   6.440 -0.4396 -0.2549  0.2270
  164MOL    H3026436   3.919   2.931   6.068 -2.3241  0.6062 -0.6887
  164MOL    H3126437   3.818   2.996   6.193  0.4668 -1.3547  1.0104
  164MOL    H3226438   4.117   2.922   6.234  0.7963 -0.9122  1.1303
  164MOL    H3326439   3.989   2.831   6.295 -1.3493  0.7331  0.6564
  164MOL    C3426440   4.135   2.994   6.492 -0.3696 -0.0556 -0.2055
  164MOL    C3526441   4.246   3.077   6.424 -0.2148  0.7424 -0.5948
  164MOL    C3626442   4.245   3.225   6.473  0.6713 -0.1080 -0.3759
  164MOL    O3726443   4.203   3.251   6.586 -0.4926 -0.1384  0.2808
  164MOL    H3826444   4.171   2.891   6.497 -0.5989 -0.2176 -1.8808
  164MOL    H3926445   4.113   3.032   6.592 -1.2951  2.2546 -1.2478
  164MOL    H4026446   4.219   3.090   6.319  2.6896 -0.4692 -1.5677
  164MOL    H4126447   4.337   3.018   6.440 -1.5973 -0.5625  2.7898
  164MOL    C4226448   4.299   3.323   6.376  0.1890 -0.2952 -0.4064
  164MOL    C4326449   4.323   3.455   6.446  0.2942  0.7995  0.2137
  164MOL    C4426450   4.441   3.538   6.389  0.0163  0.1587  0.7706
  164MOL    O4526451   4.495   3.509   6.280 -0.5692  0.2415 -0.3630
  164MOL    H4626452   4.240   3.340   6.286  0.5042  0.6765 -0.4329
  164MOL    H4726453   4.394   3.289   6.334 -0.0390  1.7216 -2.6468
  164MOL    H4826454   4.362   3.429   6.545  0.2522  3.1802  0.8731
  164MOL    H4926455   4.224   3.498   6.455 -0.7184 -0.8994 -2.1855
  164MOL    C5026456   4.481   3.666   6.459 -0.0108  0.1967 -0.7199
  164MOL    C5126457   4.634   3.703   6.432  0.8546 -0.4389  0.3378
  164MOL    C5226458   4.681   3.820   6.518 -0.7192 -0.7983 -0.1729
  164MOL    O5326459   4.594   3.905   6.558  0.5564 -0.0184  0.2522
  164MOL    H5426460   4.464   3.648   6.565 -1.2027  2.0800 -0.5579
  164MOL    H5526461   4.404   3.742   6.441 -0.8650 -0.2663  0.8676
  164MOL    H5626462   4.643   3.713   6.323  0.0522 -0.4585  0.2618
  164MOL    H5726463   4.694   3.614   6.449 -2.4156 -2.8036  0.1239
  164MOL    C5826464   4.822   3.821   6.573 -0.6492 -0.5488 -0.2826
  164MOL    C5926465   4.929   3.883   6.481  0.0986  0.0206 -0.3890
  164MOL    C6026466   5.017   3.998   6.548 -0.8314 -0.1305 -0.5424
  164MOL    O6126467   5.046   3.991   6.667  0.0110  0.6777 -0.0678
  164MOL    H6226468   4.842   3.722   6.613  0.5699 -1.6623 -3.5280
  164MOL    H6326469   4.818   3.874   6.668 -3.0923 -0.6689 -0.2887
  164MOL    H6426470   4.885   3.919   6.388 -0.6717 -1.4338 -0.5899
  164MOL    H6526471   4.993   3.806   6.437  1.9609  0.6175  1.2375
  164MOL    C6626472   5.049   4.123   6.466 -0.6092 -0.4810  0.1317
  164MOL    C6726473   5.131   4.231   6.542  0.1701 -0.1404  0.1972
  164MOL    C6826474   5.282   4.214   6.542  0.0933  0.5635  0.5524
  164MOL    O6926475   5.339   4.131   6.473 -0.1152  0.0990  0.1557
  164MOL    H7026476   4.964   4.177   6.424 -2.5796 -1.2972  2.8996
  164MOL    H7126477   5.092   4.085   6.374 -2.7757 -2.1454 -0.2355
  164MOL    H7226478   5.104   4.219   6.647  0.9082 -1.0732  0.2875
  164MOL    H7326479   5.100   4.334   6.521 -0.1247 -0.1131  0.7550
  164MOL    C7426480   5.365   4.309   6.624  0.6182 -0.0782  1.3340
  164MOL    C7526481   5.520   4.300   6.639  0.2397 -0.1963 -0.5508
  164MOL    C7626482   5.584   4.418   6.566 -0.0613  0.1926 -0.6403
  164MOL    O7726483   5.530   4.530   6.562  0.0832  0.3936  0.0715
  164MOL    H7826484   5.322   4.307   6.724  0.4030  1.4325  1.2738
  164MOL    H7926485   5.337   4.405   6.581  0.1897  0.0160  1.8179
  164MOL    H8026486   5.539   4.201   6.598  2.7981 -0.6291  1.5676
  164MOL    H8126487   5.554   4.289   6.742 -0.6713 -2.3245 -0.4623
  164MOL    C8226488   5.721   4.386   6.496  0.4316 -0.2462  0.2209
  164MOL    C8326489   5.804   4.505   6.452  0.3120 -0.2661  0.0976
  164MOL    C8426490   5.829   4.520   6.304  0.5816  0.5896  0.7800
  164MOL    O8526491   5.883   4.427   6.241 -0.8015 -0.3305  0.1754
  164MOL    H8626492   5.695   4.315   6.418 -1.8902 -1.8505  2.3592
  164MOL    H8726493   5.790   4.325   6.555 -0.5405  1.5901  3.4160
  164MOL    H8826494   5.905   4.492   6.492  1.4720  3.4404 -1.4353
  164MOL    H8926495   5.766   4.598   6.493  3.6162  0.1466  2.4532
  164MOL    C9026496   5.782   4.641   6.227 -0.3882  0.4510  0.1979
  164MOL    C9126497   5.629   4.648   6.213  0.4895 -0.5564 -0.3933
  164MOL    C9226498   5.577   4.675   6.075 -0.7222 -0.1862 -0.7499
  164MOL    O9326499   5.540   4.787   6.043  0.2494 -0.4490 -0.5527
  164MOL    H9426500   5.829   4.634   6.129 -2.3161 -0.2192 -0.7125
  164MOL    H9526501   5.824   4.727   6.278  0.5984 -0.1021  0.3393
  164MOL    H9626502   5.595   4.730   6.276 -1.8459 -1.2525 -0.7055
  164MOL    H9726503   5.575   4.562   6.252 -1.8508  1.0996  0.1391
  164MOL    C9826504   5.575   4.554   5.979  0.9373 -0.1289 -0.2901
  164MOL    C9926505   5.631   4.582   5.843 -0.4393 -0.3734 -1.4833
  164MOL   C10026506   5.518   4.624   5.749 -0.2757  0.1981  0.5420
  164MOL   O10126507   5.397   4.606   5.774  0.3222 -0.4406 -0.1869
  164MOL   H10226508   5.470   4.523   5.986  0.8686  0.4655  1.3958
  164MOL   H10326509   5.629   4.473   6.028  0.4959 -0.1073  0.2342
  164MOL   H10426510   5.689   4.497   5.808  0.9527 -1.7368  3.6808
  164MOL   H10526511   5.689   4.671   5.867 -2.2245  0.8969 -1.7224
  164MOL   C10626512   5.555   4.696   5.619  0.0360  0.7277  0.0454
  164MOL   C10726513   5.441   4.737   5.525 -0.0498  0.2431 -0.0940
  164MOL   C10826514   5.476   4.732   5.374 -0.3837  0.2493 -0.2134
  164MOL   O10926515   5.571   4.674   5.333 -0.0986  0.1138 -0.0929
  164MOL   H11026516   5.626   4.634   5.565  0.4289  1.5249 -0.3705
  164MOL   H11126517   5.611   4.785   5.647  3.2203 -0.6132 -1.7778
  164MOL   H11226518   5.394   4.833   5.544  0.1318  0.2476  0.3466
  164MOL   H11326519   5.352   4.675   5.543  0.1819 -0.7334 -2.1822
  164MOL   C11426520   5.376   4.797   5.277 -0.0441  0.0673  0.3658
  164MOL   C11526521   5.408   4.772   5.123 -0.6746 -0.0508 -0.4403
  164MOL   C11626522   5.287   4.762   5.035 -0.2390 -0.3453 -0.8350
  164MOL   O11726523   5.176   4.796   5.080  0.5834 -0.2347 -0.4110
  164MOL   H11826524   5.381   4.902   5.303  1.4426  0.3850 -1.0919
  164MOL   H11926525   5.273   4.765   5.292  0.7045 -1.2126  3.0223
  164MOL   H12026526   5.473   4.685   5.114 -1.2631 -0.5106 -0.2671
  164MOL   H12126527   5.469   4.852   5.082  0.0901 -0.9918 -1.1615
  164MOL   C12226528   5.295   4.698   4.899  0.2724  0.0876  0.7397
  164MOL   C12326529   5.158   4.686   4.831 -0.9054 -0.3672  0.0725
  164MOL   C12426530   5.177   4.666   4.677 -0.3007  0.4701  0.2486
  164MOL   O12526531   5.258   4.593   4.629  0.0116  0.0426 -0.2042
  164MOL   H12626532   5.326   4.593   4.903 -2.0071 -0.6718 -1.0100
  164MOL   H12726533   5.370   4.748   4.838  0.3263 -4.2536 -2.9659
  164MOL   H12826534   5.102   4.779   4.841 -1.1261 -0.4958  0.0315
  164MOL   H12926535   5.110   4.590   4.850  1.3506 -1.6229 -0.3670
  164MOL   C13026536   5.062   4.718   4.595  0.4393 -0.0728  0.3702
  164MOL   C13126537   5.028   4.625   4.476 -0.2203 -0.3759 -0.2893
  164MOL   C13226538   4.885   4.576   4.470  0.3275  0.1151 -0.0601
  164MOL   O13326539   4.802   4.618   4.548 -0.0916 -0.0644  0.1559
  164MOL   H13426540   5.082   4.819   4.561  0.7066 -0.3644 -0.3556
  164MOL   H13526541   4.980   4.716   4.666  0.1797  1.0960  0.1062
  164MOL   H13626542   5.090   4.535   4.465 -0.5647 -0.6064 -0.3430
  164MOL   H13726543   5.045   4.688   4.389 -1.1198  1.9568  1.1838
  164MOL   C13826544   4.850   4.477   4.356 -0.4975 -0.1063 -0.2354
  164MOL   C13926545   4.707   4.419   4.378 -1.1421 -1.1813 -0.1575
  164MOL   C14026546   4.678   4.303   4.281  0.3592 -0.0819 -0.1522
  164MOL   O14126547   4.767   4.238   4.235  0.5398  0.1465  0.0847
  164MOL   H14226548   4.918   4.392   4.366 -0.2983  0.2385  1.5974
  164MOL   H14326549   4.868   4.521   4.258 -1.4531 -0.5434 -0.6099
  164MOL   H14426550   4.637   4.500   4.356 -0.6300 -0.4962  0.7038
  164MOL   H14526551   4.699   4.377   4.478 -0.3653  0.6381  0.6872
  164MOL   C14626552   4.536   4.252   4.266  0.2989 -0.5748 -0.3517
  164MOL   C14726553   4.533   4.101   4.312  0.7790 -0.0559  0.0767
  164MOL   C14826554   4.393   4.039   4.339  0.1830  0.5542 -1.2643
  164MOL   O14926555   4.288   4.090   4.306  0.3898  0.2943 -0.0031
  164MOL   H15026556   4.499   4.255   4.163  1.0630 -1.4078 -0.6585
  164MOL   H15126557   4.472   4.325   4.315  0.0528 -0.5980 -0.6281
  164MOL   H15226558   4.583   4.090   4.408  3.2212 -0.2236 -1.1646
  164MOL   H15326559   4.584   4.042   4.236  1.0755 -0.1954  0.3815
  164MOL   C15426560   4.394   3.903   4.403 -0.1626  0.1267 -0.4353
  164MOL   C15526561   4.268   3.812   4.403  1.0819  0.6827  0.2403
  164MOL   C15626562   4.277   3.698   4.508  0.9341  0.7686 -0.5290
  164MOL   O15726563   4.386   3.662   4.549  0.1423 -0.0830  0.3163
  164MOL   H15826564   4.414   3.930   4.506 -3.7144  1.3151  0.0097
  164MOL   H15926565   4.480   3.847   4.365  1.5953  3.2756 -1.3166
  164MOL   H16026566   4.258   3.763   4.306 -1.8864  1.0837  0.2854
  164MOL   H16126567   4.175   3.864   4.427 -0.0877 -2.4813  2.9493
  164MOL   H16226568   4.180   3.665   4.546  2.1121  0.3937  2.3237
  165MOL     C126569   4.386   6.764   3.812  0.8050 -0.0414 -0.1814
  165MOL     C226570   4.245   6.711   3.794 -0.0796  0.8415 -0.0101
  165MOL     C326571   4.154   6.787   3.700  0.5358 -0.6504  0.6356
  165MOL     O426572   4.181   6.907   3.677 -0.0594 -0.2930  0.3691
  165MOL     H526573   4.424   6.805   3.719 -0.9664  0.5923 -0.6558
  165MOL     H626574   4.406   6.841   3.887 -2.6976  1.7231 -0.9270
  165MOL     H726575   4.198   6.707   3.892  2.6775  0.4144  1.3295
  165MOL     H826576   4.251   6.609   3.756  1.5811  0.8645  0.1816
  165MOL     H926577   4.456   6.682   3.828  1.4937  0.8479  1.4878
  165MOL    C1026578   4.036   6.722   3.637  0.3478 -0.4586  0.7213
  165MOL    C1126579   3.904   6.782   3.689  0.1865 -0.6568  0.4284
  165MOL    C1226580   3.849   6.687   3.793  0.3584 -0.2757 -0.1032
  165MOL    O1326581   3.850   6.565   3.781 -0.7218  0.5114 -0.4900
  165MOL    H1426582   4.043   6.613   3.637  0.1438 -0.5071 -1.5675
  165MOL    H1526583   4.027   6.734   3.529  0.3244 -0.2374  0.7479
  165MOL    H1626584   3.826   6.784   3.612 -0.7213 -2.6638  1.2606
  165MOL    H1726585   3.915   6.883   3.727 -0.2501 -0.3000 -0.3831
  165MOL    C1826586   3.791   6.752   3.917  0.3869  0.2392 -0.1715
  165MOL    C1926587   3.890   6.729   4.035  0.2383  0.7884 -0.1090
  165MOL    C2026588   3.898   6.843   4.135  0.0981 -0.4999 -0.1563
  165MOL    O2126589   3.800   6.914   4.160 -0.5228  0.4932  0.2339
  165MOL    H2226590   3.699   6.702   3.949  1.1596 -0.7173  0.5981
  165MOL    H2326591   3.771   6.854   3.885  2.9862  0.6105 -0.6844
  165MOL    H2426592   3.995   6.723   4.006  0.4287  0.6709  0.6142
  165MOL    H2526593   3.867   6.631   4.077  2.7085 -0.5696 -1.7673
  165MOL    C2626594   4.029   6.857   4.209 -0.5256  0.4238 -0.0815
  165MOL    C2726595   4.055   6.993   4.276 -0.2912 -0.1244  0.0425
  165MOL    C2826596   4.169   7.072   4.221 -0.1603 -0.6552  0.3953
  165MOL    O2926597   4.212   7.047   4.106 -0.0805 -0.0536 -0.3640
  165MOL    H3026598   4.113   6.823   4.148 -0.8679 -0.1106 -0.2510
  165MOL    H3126599   4.027   6.782   4.288  1.1194 -0.1487 -0.5679
  165MOL    H3226600   4.079   6.977   4.381 -1.8928 -0.6306  0.3442
  165MOL    H3326601   3.964   7.053   4.269 -0.0946 -0.0518 -2.0257
  165MOL    C3426602   4.224   7.180   4.321  0.0005 -0.6443 -0.0877
  165MOL    C3526603   4.329   7.270   4.253  0.4375 -0.5345  0.0903
  165MOL    C3626604   4.341   7.412   4.315  0.0935 -0.5443 -0.6555
  165MOL    O3726605   4.312   7.436   4.432 -0.1745  0.1890 -0.1836
  165MOL    H3826606   4.254   7.131   4.414  0.0153 -3.0332 -1.3089
  165MOL    H3926607   4.138   7.246   4.336  1.1764  1.0096 -0.5059
  165MOL    H4026608   4.308   7.292   4.148  0.7177  1.2441  0.3764
  165MOL    H4126609   4.427   7.223   4.251  0.4864 -0.4185 -0.3614
  165MOL    C4226610   4.372   7.524   4.220 -0.3036 -0.4536 -0.5437
  165MOL    C4326611   4.269   7.638   4.241 -0.1313  0.2864  0.0974
  165MOL    C4426612   4.324   7.766   4.303  0.1851 -0.2271 -0.1814
  165MOL    O4526613   4.433   7.774   4.352 -0.1766 -0.5286  0.0596
  165MOL    H4626614   4.372   7.480   4.120 -1.4033 -2.3983  0.2902
  165MOL    H4726615   4.474   7.554   4.243 -0.1822 -1.1966 -0.0853
  165MOL    H4826616   4.179   7.602   4.291  0.0004  1.0702  0.9013
  165MOL    H4926617   4.228   7.671   4.146 -0.1783 -1.2309 -0.4229
  165MOL    C5026618   4.235   0.023   4.300 -0.7467  0.3637  0.3871
  165MOL    C5126619   4.238   0.112   4.176 -0.2080 -0.4576  0.2038
  165MOL    C5226620   4.308   0.247   4.197  0.3494 -0.5439  0.0916
  165MOL    O5326621   4.309   0.298   4.311  0.0679  0.3791 -0.1252
  165MOL    H5426622   4.253   0.086   4.387 -2.1450  0.6390  0.4967
  165MOL    H5526623   4.129   7.856   4.305 -0.2195 -1.7286  1.1726
  165MOL    H5626624   4.134   0.130   4.147  0.4772  0.2703 -1.8667
  165MOL    H5726625   4.277   0.067   4.085  1.4052  0.2178  0.5417
  165MOL    C5826626   4.391   0.291   4.073 -0.0036  0.2589  0.0108
  165MOL    C5926627   4.540   0.260   4.075 -0.0359 -0.7295 -0.0187
  165MOL    C6026628   4.576   0.167   3.962 -0.2472 -0.0232  0.4685
  165MOL    O6126629   4.491   0.103   3.907  0.6595 -0.2468 -0.1683
  165MOL    H6226630   4.374   0.398   4.088 -0.3539  0.1448  0.4275
  165MOL    H6326631   4.333   0.281   3.981  0.4679 -0.3367 -0.2216
  165MOL    H6426632   4.568   0.210   4.168  1.0251 -1.6879 -0.8316
  165MOL    H6526633   4.610   0.343   4.072 -1.5154  0.5935  1.5599
  165MOL    C6626634   4.720   0.166   3.918  0.0464 -0.9970  0.3993
  165MOL    C6726635   4.740   0.093   3.783  0.1300  0.7873  0.1233
  165MOL    C6826636   4.888   0.052   3.769  0.4187  0.6620  0.5802
  165MOL    O6926637   4.953   0.030   3.874 -0.2309  0.1762  0.2306
  165MOL    H7026638   4.790   0.130   3.993 -0.4893 -2.2252  0.3245
  165MOL    H7126639   4.750   0.268   3.895 -0.2008 -0.6523  1.5295
  165MOL    H7226640   4.714   0.160   3.701  0.2118 -1.0272 -1.4239
  165MOL    H7326641   4.671   0.010   3.764  2.1971 -1.4571  2.2014
  165MOL    C7426642   4.947   0.052   3.626 -0.0278  0.2433  0.5557
  165MOL    C7526643   5.097   0.079   3.628 -0.9318 -0.1489 -0.1370
  165MOL    C7626644   5.132   0.227   3.616 -0.0609 -0.0039 -0.2624
  165MOL    O7726645   5.051   0.311   3.652  0.1553 -0.0463  0.4290
  165MOL    H7826646   4.893   0.124   3.564  0.5519  0.8251  0.7142
  165MOL    H7926647   4.910   7.817   3.585 -0.8257 -0.0550  1.9390
  165MOL    H8026648   5.125   0.042   3.529  1.2135  1.8232 -0.3168
  165MOL    H8126649   5.145   0.016   3.702 -1.0961 -3.4930 -2.7426
  165MOL    C8226650   5.272   0.259   3.575 -0.4633  0.0184 -0.3588
  165MOL    C8326651   5.275   0.401   3.520  0.1476  0.4834  0.3149
  165MOL    C8426652   5.399   0.434   3.434 -0.2021 -0.2542  0.5530
  165MOL    O8526653   5.420   0.371   3.330  0.2603  0.0473  0.2768
  165MOL    H8626654   5.299   0.197   3.490  0.1085  1.2310 -1.0777
  165MOL    H8726655   5.329   0.246   3.667  0.4269 -0.8799 -1.0395
  165MOL    H8826656   5.254   0.476   3.597 -0.3176  1.8607 -1.1188
  165MOL    H8926657   5.193   0.417   3.451  0.2110 -2.1047 -0.3996
  165MOL    C9026658   5.498   0.541   3.484 -0.5478 -0.1088  0.4280
  165MOL    C9126659   5.639   0.508   3.442  0.6345 -0.7000 -0.4692
  165MOL    C9226660   5.718   0.420   3.533 -0.2371  0.2360 -0.3131
  165MOL    O9326661   5.673   0.383   3.644  0.1041 -0.1532 -0.5115
  165MOL    H9426662   5.477   0.544   3.591 -2.6078 -1.3147  0.0846
  165MOL    H9526663   5.451   0.632   3.448 -1.9079 -2.4199 -3.9106
  165MOL    H9626664   5.694   0.602   3.451  0.6757 -0.8363  0.9203
  165MOL    H9726665   5.645   0.472   3.340 -0.7996 -2.4035  0.0223
  165MOL    C9826666   5.864   0.382   3.495  0.1680 -0.0010  0.2081
  165MOL    C9926667   5.980   0.452   3.579  0.4595 -0.5723 -0.3114
  165MOL   C10026668   6.020   0.586   3.518 -0.1169 -0.6857  0.0557
  165MOL   O10126669   5.979   0.618   3.409 -0.5847  0.2907  0.8126
  165MOL   H10226670   5.875   0.403   3.388  1.0458 -0.1765  0.2615
  165MOL   H10326671   5.880   0.275   3.495 -0.4537 -0.0935  0.8346
  165MOL   H10426672   6.071   0.394   3.589  1.6176  0.8988 -2.0593
  165MOL   H10526673   5.945   0.470   3.681 -0.2936  1.9668 -0.9805
  165MOL   C10626674   6.123   0.669   3.596  0.5145  0.2420  0.2676
  165MOL   C10726675   6.179   0.788   3.512 -0.3673  0.2035  0.1678
  165MOL   C10826676   6.326   0.792   3.468 -0.0866  0.6515  0.1493
  165MOL   O10926677   6.383   0.685   3.446 -0.1465  0.5251 -0.0248
  165MOL   H11026678   6.196   0.599   3.637 -0.6617 -0.8207  0.5914
  165MOL   H11126679   6.074   0.699   3.689  0.1108  1.0563 -0.2078
  165MOL   H11226680   6.178   0.871   3.582  1.3853  1.8414 -1.6938
  165MOL   H11326681   6.108   0.820   3.436 -1.1154 -1.5071  0.1010
  165MOL   C11426682   6.379   0.935   3.447 -0.0583  0.2234 -0.2577
  165MOL   C11526683   6.518   0.944   3.381 -0.0681  0.3547 -0.0853
  165MOL   C11626684   6.600   1.052   3.441 -0.4510 -0.1898 -0.3406
  165MOL   O11726685   6.560   1.171   3.438 -0.5095  0.2335 -0.0853
  165MOL   H11826686   6.388   0.989   3.542 -0.4256  0.6371 -0.4548
  165MOL   H11926687   6.301   0.992   3.396 -0.8063  1.5597  2.2904
  165MOL   H12026688   6.504   0.963   3.274 -2.3239  0.7891  0.2538
  165MOL   H12126689   6.571   0.850   3.396  1.8256  1.7870  2.4838
  165MOL   C12226690   6.733   1.004   3.502 -0.2847  0.0089  0.3124
  165MOL   C12326691   6.816   1.113   3.568  0.5892 -0.5855 -0.0707
  165MOL   C12426692   6.913   1.056   3.671 -0.0493 -0.8425 -0.2883
  165MOL   O12526693   6.889   1.024   3.783  0.8327  0.3885  0.2437
  165MOL   H12626694   6.790   0.946   3.430  1.6237  3.5242 -1.1235
  165MOL   H12726695   6.702   0.943   3.587  0.2584  0.5385  0.8897
  165MOL   H12826696   6.745   1.187   3.604  0.8850 -0.8839  1.1467
  165MOL   H12926697   6.875   1.167   3.494 -2.2307  2.7121 -0.0531
  165MOL   C13026698   7.050   1.027   3.618 -0.2030 -0.8920  0.0149
  165MOL   C13126699   7.088   0.881   3.650  0.7933 -0.2827 -0.0624
  165MOL   C13226700   7.129   0.802   3.525  0.0751  0.0129 -0.1746
  165MOL   O13326701   7.094   0.843   3.412  0.2501 -0.6277  0.2609
  165MOL   H13426702   7.123   1.088   3.672 -1.8463  0.8238  0.3441
  165MOL   H13526703   7.065   1.050   3.512  1.8390  0.4009  0.5504
  165MOL   H13626704   7.024   0.833   3.725  0.2927  1.2147  0.4786
  165MOL   H13726705   7.181   0.873   3.707  0.5815  0.7311  0.4285
  165MOL   C13826706   7.205   0.671   3.541  0.0027  0.2759  0.1921
  165MOL   C13926707   7.221   0.602   3.414 -0.0951  0.1600  0.1018
  165MOL   C14026708   7.215   0.450   3.422  0.2948 -0.3917 -0.3111
  165MOL   O14126709   7.120   0.391   3.477  0.3124 -0.1716 -0.1572
  165MOL   H14226710   7.144   0.602   3.600  1.8657 -1.1075  0.5443
  165MOL   H14326711   7.293   0.671   3.605  0.7156  2.6941 -0.7255
  165MOL   H14426712   7.310   0.631   3.359 -0.6654 -2.4263 -2.2811
  165MOL   H14526713   7.130   0.607   3.354  0.8254 -0.7173 -1.3927
  165MOL   C14626714   7.332   0.377   3.355  0.5373  0.1480 -0.0290
  165MOL   C14726715   7.418   0.285   3.450 -0.1802 -0.6620 -0.1480
  165MOL   C14826716   7.545   0.353   3.489 -0.7793  0.5047  0.0819
  165MOL   O14926717   7.564   0.476   3.493 -0.1345  0.4006  0.0902
  165MOL   H15026718   7.392   0.434   3.284  0.5034 -1.0487 -1.0543
  165MOL   H15126719   7.296   0.313   3.274 -0.6014 -0.5663  1.0086
  165MOL   H15226720   7.432   0.188   3.402  0.7203  0.0005 -1.2665
  165MOL   H15326721   7.355   0.263   3.536  0.9389  0.3048  0.9441
  165MOL   C15426722   7.654   0.251   3.535  0.5071  0.4596 -0.4835
  165MOL   C15526723   7.785   0.322   3.558  0.7815  0.0862 -0.6476
  165MOL   C15626724   7.820   0.325   3.701  0.1315  0.2168 -1.3224
  165MOL   O15726725   7.754   0.397   3.778 -0.6435 -0.0098  0.6011
  165MOL   H15826726   7.660   0.170   3.463 -0.2370 -0.5433  0.5750
  165MOL   H15926727   7.615   0.205   3.625 -0.3583 -0.3044 -1.2485
  165MOL   H16026728   7.798   0.417   3.506  2.1091  1.4983  2.0943
  165MOL   H16126729   0.004   0.260   3.514 -0.2288 -0.5374 -1.5820
  165MOL   H16226730   0.044   0.260   3.726 -0.7520  0.0016  1.1364
  166MOL     C126731   5.312   1.939   7.812 -1.2227 -0.0217 -0.6651
  166MOL     C226732   5.398   2.030   7.723 -0.2756 -0.4617  0.5477
  166MOL     C326733   5.384   2.179   7.763  0.3196  0.2553 -0.0743
  166MOL     O426734   5.316   2.226   7.852 -0.2490 -0.1803 -0.8616
  166MOL     H526735   5.215   1.975   7.847 -1.1230 -0.7375  0.3747
  166MOL     H626736   5.286   1.848   7.758 -0.7537  0.0810 -1.0745
  166MOL     H726737   5.355   2.019   7.624  1.8517 -0.4529 -0.4093
  166MOL     H826738   5.499   1.989   7.723  0.3766  1.0542 -2.0899
  166MOL     H926739   5.379   1.901   0.031 -1.1804 -0.7125 -1.0288
  166MOL    C1026740   5.460   2.277   7.679  0.7886  1.1041 -0.1101
  166MOL    C1126741   5.394   2.413   7.673 -0.0226  0.9895 -0.1670
  166MOL    C1226742   5.436   2.492   7.549  0.5292  0.6129  0.0398
  166MOL    O1326743   5.524   2.455   7.474  0.0042 -0.2858 -0.0087
  166MOL    H1426744   5.468   2.248   7.574  2.5763  1.3711 -0.0741
  166MOL    H1526745   5.560   2.283   7.723  0.5314 -2.1375  1.0632
  166MOL    H1626746   5.409   2.480   7.758  0.7213  1.6207 -0.7921
  166MOL    H1726747   5.286   2.401   7.671  0.0749 -0.3251  1.4427
  166MOL    C1826748   5.343   2.615   7.516  0.0941  0.3572 -0.1764
  166MOL    C1926749   5.333   2.637   7.364  0.2547  0.2336 -1.1806
  166MOL    C2026750   5.222   2.558   7.302  0.5098  0.1825  0.4462
  166MOL    O2126751   5.164   2.473   7.367 -0.4186  0.1102 -0.1012
  166MOL    H2226752   5.393   2.698   7.566  0.6691  0.4246 -0.8574
  166MOL    H2326753   5.244   2.613   7.562  0.1212 -1.5682 -0.1624
  166MOL    H2426754   5.430   2.621   7.316  0.7355  0.6614 -0.3603
  166MOL    H2526755   5.313   2.742   7.343  2.9222  1.0263  0.0757
  166MOL    C2626756   5.174   2.606   7.170 -0.0473  0.3413 -0.1391
  166MOL    C2726757   5.290   2.626   7.061  0.3791  0.0853  0.1919
  166MOL    C2826758   5.232   2.668   6.927  0.0710  0.5459  0.0897
  166MOL    O2926759   5.121   2.704   6.908  0.2176 -0.3597  0.0491
  166MOL    H3026760   5.121   2.699   7.193 -1.1940 -0.2857 -0.2056
  166MOL    H3126761   5.090   2.549   7.129 -2.0090  1.9890  1.4501
  166MOL    H3226762   5.349   2.540   7.030 -2.4116 -2.1307  0.8093
  166MOL    H3326763   5.354   2.706   7.099 -0.6724 -0.0841  2.4473
  166MOL    C3426764   5.336   2.673   6.812  0.5350  0.0536 -0.8547
  166MOL    C3526765   5.288   2.615   6.682  0.1776  0.2320 -0.6143
  166MOL    C3626766   5.390   2.595   6.571 -0.3276 -0.0869  0.6560
  166MOL    O3726767   5.490   2.666   6.554  0.3914  0.6080 -0.3482
  166MOL    H3826768   5.430   2.628   6.843 -1.0253 -1.3762  2.0397
  166MOL    H3926769   5.364   2.778   6.802 -1.9693  0.7660 -0.7806
  166MOL    H4026770   5.216   2.689   6.645 -0.3994  0.6264  1.2619
  166MOL    H4126771   5.220   2.532   6.700  0.5550 -0.0855 -0.6493
  166MOL    C4226772   5.362   2.477   6.477 -0.8118  0.5043  0.1935
  166MOL    C4326773   5.438   2.490   6.341  0.3894 -0.0015  0.0666
  166MOL    C4426774   5.421   2.367   6.250  0.4916 -1.0738  0.3766
  166MOL    O4526775   5.410   2.257   6.297 -0.3026  0.1735  0.7895
  166MOL    H4626776   5.256   2.461   6.456 -0.8600  0.0305  0.7944
  166MOL    H4726777   5.380   2.386   6.534 -1.8849 -1.0091 -1.8514
  166MOL    H4826778   5.544   2.494   6.363  0.0677  3.3376  1.3358
  166MOL    H4926779   5.411   2.583   6.291  1.6253  0.8241  0.8884
  166MOL    C5026780   5.437   2.390   6.099  0.2592 -0.5067 -0.3962
  166MOL    C5126781   5.401   2.266   6.007  0.1019  0.0933 -0.5183
  166MOL    C5226782   5.346   2.292   5.865  0.4293 -0.7357 -0.0173
  166MOL    O5326783   5.334   2.408   5.823 -0.1848  0.1201 -0.3326
  166MOL    H5426784   5.541   2.417   6.082  0.5861 -0.8979  0.8965
  166MOL    H5526785   5.382   2.481   6.074  1.6063 -0.0022 -1.5864
  166MOL    H5626786   5.339   2.204   6.071 -1.2480  2.3307  0.4271
  166MOL    H5726787   5.496   2.214   5.996 -0.9475 -1.2066 -4.5402
  166MOL    C5826788   5.309   2.167   5.786 -0.4868 -0.6107 -0.4137
  166MOL    C5926789   5.429   2.083   5.753  0.1073  0.2671  0.5454
  166MOL    C6026790   5.413   2.007   5.627 -0.0823 -0.0971 -0.2087
  166MOL    O6126791   5.306   2.017   5.566 -0.7747 -1.1186  0.1350
  166MOL    H6226792   5.247   2.194   5.701  1.8665  0.8660 -1.7184
  166MOL    H6326793   5.234   2.112   5.843 -0.7672  0.3025  0.1113
  166MOL    H6426794   5.465   2.019   5.834  0.3301 -0.0635  0.1876
  166MOL    H6526795   5.496   2.168   5.740 -0.6683  0.7095 -0.5612
  166MOL    C6626796   5.520   1.904   5.582 -0.4445  0.7049 -0.0367
  166MOL    C6726797   5.487   1.839   5.450  0.1272  0.0902 -0.0851
  166MOL    C6826798   5.611   1.804   5.371 -0.8820  0.3573 -0.6299
  166MOL    O6926799   5.659   1.892   5.298  0.1368  0.1096 -0.5622
  166MOL    H7026800   5.526   1.830   5.663  0.0042  1.5919  0.7494
  166MOL    H7126801   5.616   1.955   5.592 -0.5959  1.0655 -0.4213
  166MOL    H7226802   5.415   1.890   5.386  0.2347  0.7192  0.2986
  166MOL    H7326803   5.434   1.744   5.464 -0.1320  0.5847  2.4533
  166MOL    C7426804   5.680   1.671   5.397 -0.1951 -0.1223 -0.7846
  166MOL    C7526805   5.794   1.641   5.293 -0.6225  0.4060 -0.1313
  166MOL    C7626806   5.742   1.551   5.174  0.0454  0.4604 -0.4755
  166MOL    O7726807   5.633   1.570   5.136 -0.3319  0.1323 -0.5391
  166MOL    H7826808   5.593   1.605   5.401 -2.6475  2.9782 -0.1363
  166MOL    H7926809   5.715   1.673   5.500 -1.6548  0.0474 -0.2765
  166MOL    H8026810   5.874   1.588   5.345 -2.8906 -3.0292  0.0390
  166MOL    H8126811   5.838   1.730   5.249 -1.3857  0.6196 -0.4735
  166MOL    C8226812   5.831   1.441   5.115  0.0275  0.3943  0.2150
  166MOL    C8326813   5.788   1.400   4.971  0.3489 -0.3463 -0.4006
  166MOL    C8426814   5.860   1.478   4.862 -0.1724 -0.0971  0.2722
  166MOL    O8526815   5.961   1.543   4.890 -0.3638 -0.2174 -0.3330
  166MOL    H8626816   5.819   1.359   5.187  1.4345 -0.3558 -0.3727
  166MOL    H8726817   5.934   1.472   5.132 -0.3176  1.3497  0.5941
  166MOL    H8826818   5.680   1.413   4.969  0.2517 -0.7700  1.0960
  166MOL    H8926819   5.814   1.295   4.959  0.6741 -0.2550 -0.4851
  166MOL    C9026820   5.800   1.477   4.722 -0.4413 -0.2147  0.7637
  166MOL    C9126821   5.890   1.515   4.609  0.1427  0.4929 -0.4366
  166MOL    C9226822   5.932   1.393   4.520 -0.5460  0.1983 -0.0566
  166MOL    O9326823   5.911   1.276   4.554 -0.1826 -0.1438 -0.2846
  166MOL    H9426824   5.715   1.545   4.727  1.2382  1.9365  0.9643
  166MOL    H9526825   5.759   1.379   4.701  3.3871 -1.7389 -0.0555
  166MOL    H9626826   5.973   1.583   4.631 -0.7757  1.1223  1.1188
  166MOL    H9726827   5.829   1.577   4.543 -0.5506 -0.2891 -0.5340
  166MOL    C9826828   6.013   1.424   4.394  0.3712  0.5067 -0.4511
  166MOL    C9926829   6.083   1.296   4.342 -0.4109  0.6107  0.4925
  166MOL   C10026830   6.205   1.330   4.251 -0.3350  0.0174  0.4256
  166MOL   O10126831   6.206   1.436   4.185  0.1872 -0.2501  0.2487
  166MOL   H10226832   6.092   1.493   4.426  2.1159 -1.8536  0.4444
  166MOL   H10326833   5.958   1.471   4.313  0.6943  0.0823 -0.9140
  166MOL   H10426834   6.010   1.233   4.292 -0.6393 -0.2467  1.8909
  166MOL   H10526835   6.123   1.239   4.426 -0.7246 -2.7469 -1.5779
  166MOL   C10626836   6.314   1.223   4.236 -0.2598  0.1804  0.4980
  166MOL   C10726837   6.390   1.225   4.103  0.1598 -0.4790 -0.3765
  166MOL   C10826838   6.536   1.270   4.112 -0.3188  0.1023  0.0745
  166MOL   O10926839   6.601   1.251   4.216  0.4700 -0.4559  0.1983
  166MOL   H11026840   6.280   1.120   4.245  1.1634 -0.3613 -0.0748
  166MOL   H11126841   6.391   1.219   4.313 -0.2965 -0.1158  0.5208
  166MOL   H11226842   6.330   1.276   4.026 -0.5004  1.1391  1.1699
  166MOL   H11326843   6.390   1.124   4.064 -1.6251 -0.9525  0.7788
  166MOL   C11426844   6.603   1.326   3.986  1.1750 -0.0246  0.5868
  166MOL   C11526845   6.719   1.236   3.930 -0.0192 -0.6624  0.2985
  166MOL   C11626846   6.848   1.312   3.917 -0.1273  0.4998  0.5021
  166MOL   O11726847   6.887   1.360   3.808 -0.1625 -0.7103  0.1729
  166MOL   H11826848   6.650   1.416   4.024  1.1264  0.7591 -1.1744
  166MOL   H11926849   6.531   1.362   3.913  0.6365  0.1271  1.1805
  166MOL   H12026850   6.702   1.210   3.825  0.1900 -1.6140  0.4946
  166MOL   H12126851   6.724   1.150   3.997  1.4937  1.2111  2.6425
  166MOL   C12226852   6.929   1.328   4.045  0.2498 -0.2334  0.6376
  166MOL   C12326853   7.035   1.442   4.033  0.1903 -0.1817  0.2128
  166MOL   C12426854   7.142   1.424   4.134 -0.2107  0.2524 -0.5236
  166MOL   O12526855   7.137   1.343   4.225 -0.4823 -0.0020  0.0400
  166MOL   H12626856   6.972   1.231   4.073  0.4253 -0.3317  0.0354
  166MOL   H12726857   6.859   1.351   4.125 -1.2463 -0.2994 -0.6279
  166MOL   H12826858   6.990   1.538   4.059 -1.0997 -0.2960 -1.5364
  166MOL   H12926859   7.093   1.450   3.940  1.4305  1.7532  1.1020
  166MOL   C13026860   7.261   1.520   4.109  0.1646  0.1665 -0.3759
  166MOL   C13126861   7.350   1.537   4.235 -0.6052  0.2785 -0.9268
  166MOL   C13226862   7.295   1.643   4.330 -0.0462  0.0585 -0.8809
  166MOL   O13326863   7.175   1.664   4.338 -0.7358  0.7655  0.3992
  166MOL   H13426864   7.232   1.617   4.071 -0.0989  0.7519  1.2967
  166MOL   H13526865   7.328   1.482   4.032  1.3581  1.0754  0.1887
  166MOL   H13626866   7.444   1.573   4.194  1.1657  0.5992  3.1118
  166MOL   H13726867   7.378   1.439   4.276 -3.4551 -0.7404 -1.2632
  166MOL   C13826868   7.393   1.723   4.412 -0.2057 -0.3929 -0.2318
  166MOL   C13926869   7.311   1.840   4.479 -0.2732  0.2983 -0.0640
  166MOL   C14026870   7.392   1.887   4.609 -0.2363  0.0877 -0.8829
  166MOL   O14126871   7.495   1.834   4.645  0.7870  0.5736  0.0053
  166MOL   H14226872   7.476   1.761   4.352  0.1227 -0.6814  0.0353
  166MOL   H14326873   7.438   1.654   4.484  0.1046 -1.8712 -1.7961
  166MOL   H14426874   7.220   1.794   4.518 -0.6550 -0.8397 -2.2477
  166MOL   H14526875   7.291   1.923   4.412 -0.0502  1.1390  0.8981
  166MOL   C14626876   7.349   2.023   4.670 -0.3834  0.0831 -0.1878
  166MOL   C14726877   7.423   2.060   4.791 -0.3052  0.4561 -0.3200
  166MOL   C14826878   7.340   2.028   4.917  0.4583  1.2156 -0.4243
  166MOL   O14926879   7.239   2.097   4.943 -0.4685 -0.7206  0.1048
  166MOL   H15026880   7.240   2.027   4.678 -0.7731  2.5739 -5.0774
  166MOL   H15126881   7.378   2.101   4.599 -2.3997  1.3338  0.3204
  166MOL   H15226882   7.449   2.166   4.793  0.5341  0.2403  3.0826
  166MOL   H15326883   7.512   2.000   4.811 -0.8551 -0.0303  0.7268
  166MOL   C15426884   7.365   1.895   4.976 -0.0324  0.1823 -0.4385
  166MOL   C15526885   7.279   1.857   5.096 -0.4350  0.0032  0.5278
  166MOL   C15626886   7.313   1.714   5.152 -0.0875  0.4146 -0.6778
  166MOL   O15726887   7.265   1.680   5.261  0.1651 -0.0796 -0.6293
  166MOL   H15826888   7.467   1.906   5.012  0.3034 -2.7471 -0.3833
  166MOL   H15926889   7.346   1.808   4.914 -1.4046  0.1476  0.0065
  166MOL   H16026890   7.179   1.857   5.055  0.7807  0.3457 -2.5592
  166MOL   H16126891   7.279   1.940   5.167 -1.1644 -0.1558  0.7157
  166MOL   H16226892   7.361   1.638   5.090 -1.6396 -2.7336  1.8043
  167MOL     C126893   3.873   4.883   0.332  0.5509 -0.4106  0.6349
  167MOL     C226894   3.723   4.845   0.357  0.2323  0.0244  0.1448
  167MOL     C326895   3.681   4.702   0.310  0.2625  0.3050  0.0938
  167MOL     O426896   3.773   4.622   0.294 -0.5041 -0.2084  0.3546
  167MOL     H526897   3.904   4.981   0.367 -0.3090  1.1969 -2.8706
  167MOL     H626898   3.946   4.811   0.368 -0.8762 -2.9948 -1.4288
  167MOL     H726899   3.656   4.919   0.314 -1.2887 -1.3218  0.1646
  167MOL     H826900   3.703   4.845   0.464 -0.7294 -2.0999 -0.0118
  167MOL     H926901   3.899   4.886   0.226 -1.4375 -2.2873  0.0653
  167MOL    C1026902   3.537   4.671   0.284 -0.3958 -0.6144 -0.4224
  167MOL    C1126903   3.505   4.530   0.326  0.0548  0.4583 -0.8903
  167MOL    C1226904   3.474   4.509   0.471  0.3638 -0.1549 -0.4674
  167MOL    O1326905   3.426   4.598   0.540  0.0498 -0.1574 -0.0739
  167MOL    H1426906   3.526   4.684   0.177  0.7992  2.2524 -0.2387
  167MOL    H1526907   3.462   4.739   0.326  0.8190  0.9684 -0.7964
  167MOL    H1626908   3.573   4.450   0.296 -0.2507 -0.5094  0.9233
  167MOL    H1726909   3.409   4.513   0.279  1.0798 -0.7366 -2.5952
  167MOL    C1826910   3.508   4.370   0.528  0.2448  0.4693 -0.0245
  167MOL    C1926911   3.389   4.320   0.619  0.7505 -0.2437  0.5531
  167MOL    C2026912   3.422   4.311   0.772  0.0027  1.0069  0.7628
  167MOL    O2126913   3.532   4.351   0.809  0.6908 -0.4275 -0.5864
  167MOL    H2226914   3.595   4.396   0.587  0.4398 -1.4116  0.5698
  167MOL    H2326915   3.545   4.295   0.457 -1.3638 -1.6275  1.2870
  167MOL    H2426916   3.362   4.220   0.585 -0.9093  0.6448 -0.8083
  167MOL    H2526917   3.300   4.377   0.595 -0.2626 -1.1559  2.0304
  167MOL    C2626918   3.318   4.243   0.855  0.5334  0.1293  0.1618
  167MOL    C2726919   3.369   4.186   0.986  0.5295  0.1865 -0.0950
  167MOL    C2826920   3.292   4.067   1.045  0.1341 -0.3050 -0.6079
  167MOL    O2926921   3.208   4.011   0.975 -0.4342 -0.2580  0.5655
  167MOL    H3026922   3.281   4.161   0.793  1.4319 -0.5360  0.4995
  167MOL    H3126923   3.242   4.318   0.876 -0.3125 -0.8979  0.8425
  167MOL    H3226924   3.376   4.258   1.068  1.8536 -0.4456  0.3643
  167MOL    H3326925   3.467   4.148   0.959  0.5062 -0.5921  0.8620
  167MOL    C3426926   3.334   4.010   1.175  0.4445 -0.1331  0.2080
  167MOL    C3526927   3.382   3.863   1.157  0.9833 -0.1138 -0.3195
  167MOL    C3626928   3.529   3.841   1.165  0.3412 -0.4765 -0.5130
  167MOL    O3726929   3.600   3.911   1.100 -0.2901  0.5072 -0.5332
  167MOL    H3826930   3.241   4.010   1.231  0.6266  0.5668  0.5120
  167MOL    H3926931   3.406   4.073   1.227 -1.0462  2.1565 -0.4474
  167MOL    H4026932   3.360   3.831   1.055 -3.1111  0.7457  0.2389
  167MOL    H4126933   3.335   3.796   1.228 -0.2415  0.7907 -0.2688
  167MOL    C4226934   3.572   3.736   1.265  0.0008 -0.9326  0.3216
  167MOL    C4326935   3.709   3.677   1.232  0.2405 -0.6507 -0.4999
  167MOL    C4426936   3.697   3.548   1.149 -0.5971  0.3948 -0.3947
  167MOL    O4526937   3.715   3.547   1.021  0.1325 -0.2306 -0.1570
  167MOL    H4626938   3.488   3.668   1.276 -0.6963  0.4207  4.2143
  167MOL    H4726939   3.578   3.787   1.362 -1.3896  0.6014 -0.3795
  167MOL    H4826940   3.762   3.658   1.325  0.1672 -2.2927 -0.7830
  167MOL    H4926941   3.771   3.744   1.172 -0.8065 -0.0769 -0.9756
  167MOL    C5026942   3.663   3.422   1.232  0.4433 -0.1018 -0.2016
  167MOL    C5126943   3.600   3.314   1.141  1.5588 -0.2443  0.0415
  167MOL    C5226944   3.673   3.180   1.157 -0.3136  0.4274  1.0785
  167MOL    O5326945   3.733   3.161   1.259 -0.6739  0.2420  0.2334
  167MOL    H5426946   3.583   3.448   1.300  0.8338 -0.3321  0.3453
  167MOL    H5526947   3.753   3.389   1.283 -0.1223  0.4573  1.1699
  167MOL    H5626948   3.596   3.334   1.034  1.0692  1.8150  0.4350
  167MOL    H5726949   3.498   3.292   1.172  0.1975  1.8533 -2.7050
  167MOL    C5826950   3.650   3.067   1.045  0.1076  0.0840  0.0975
  167MOL    C5926951   3.734   2.942   1.086 -0.0053  0.0254  0.0063
  167MOL    C6026952   3.787   2.863   0.973 -0.6754 -0.0091  0.1211
  167MOL    O6126953   3.728   2.856   0.868  0.3798 -0.4378  0.0379
  167MOL    H6226954   3.650   3.101   0.942 -0.5785  2.5953  0.8739
  167MOL    H6326955   3.547   3.035   1.053 -0.1020  1.3181  2.9680
  167MOL    H6426956   3.666   2.882   1.147  0.4786  0.7208  1.2414
  167MOL    H6526957   3.819   2.965   1.150  1.1526 -1.2873 -1.0380
  167MOL    C6626958   3.926   2.802   0.994  0.1991  0.1792  0.8193
  167MOL    C6726959   3.984   2.744   0.862 -0.1178 -0.3225  0.1914
  167MOL    C6826960   3.925   2.610   0.841 -1.0066  0.6827  0.2142
  167MOL    O6926961   3.964   2.515   0.911  0.0260 -0.1611  0.0048
  167MOL    H7026962   3.914   2.728   1.072 -0.0377 -2.8405 -1.9622
  167MOL    H7126963   3.988   2.880   1.038  1.0938  1.5613 -2.6992
  167MOL    H7226964   4.091   2.729   0.879 -0.1487 -1.3639 -0.4858
  167MOL    H7326965   3.974   2.808   0.775  3.2268  1.3151  0.9181
  167MOL    C7426966   3.817   2.605   0.734  0.0319  0.0831  0.5630
  167MOL    C7526967   3.856   2.491   0.629 -0.1960 -0.2458  0.3005
  167MOL    C7626968   3.740   2.399   0.592  0.5460  0.5569  0.3386
  167MOL    O7726969   3.624   2.432   0.619  0.6372 -0.5099  0.7489
  167MOL    H7826970   3.806   2.705   0.693  0.8256  0.3088  0.8864
  167MOL    H7926971   3.726   2.589   0.792  0.0645 -2.1521  0.0568
  167MOL    H8026972   3.934   2.427   0.670 -0.7016 -1.2441 -0.3031
  167MOL    H8126973   3.900   2.536   0.540 -0.9708  0.4240  0.2512
  167MOL    C8226974   3.771   2.283   0.502 -0.2940 -0.7228  0.0909
  167MOL    C8326975   3.681   2.168   0.526 -0.7586 -0.1010 -0.0517
  167MOL    C8426976   3.596   2.147   0.403 -0.1887  0.2556 -0.6629
  167MOL    O8526977   3.635   2.175   0.284 -0.2999 -0.3614 -0.0587
  167MOL    H8626978   3.874   2.246   0.498  0.4450  1.1788  0.9593
  167MOL    H8726979   3.769   2.335   0.406 -0.9769 -0.5754  0.1822
  167MOL    H8826980   3.616   2.199   0.608 -1.0902 -0.8170 -0.0434
  167MOL    H8926981   3.724   2.074   0.559 -0.0141  0.7885  1.6098
  167MOL    C9026982   3.459   2.075   0.428 -0.6246  0.2505 -0.0792
  167MOL    C9126983   3.446   1.953   0.346  0.1370  0.2867 -0.4724
  167MOL    C9226984   3.412   1.815   0.409  0.6585  0.7137  0.3178
  167MOL    O9326985   3.424   1.809   0.528 -0.3580  0.4844 -0.3379
  167MOL    H9426986   3.377   2.142   0.406 -0.1823  0.6598 -0.4927
  167MOL    H9526987   3.450   2.049   0.534  0.0066  0.2938 -0.0097
  167MOL    H9626988   3.520   1.943   0.267 -0.1340 -0.0278 -0.6903
  167MOL    H9726989   3.357   1.968   0.284 -0.4352 -1.4863 -0.1093
  167MOL    C9826990   3.397   1.689   0.320  0.2270 -0.3921  0.3035
  167MOL    C9926991   3.316   1.581   0.389 -0.8800  0.2628  0.2071
  167MOL   C10026992   3.398   1.504   0.493 -0.0410 -0.0246  0.0584
  167MOL   O10126993   3.523   1.501   0.495  0.5090 -0.1633  0.5562
  167MOL   H10226994   3.491   1.647   0.287 -0.8693 -0.1731 -3.3692
  167MOL   H10326995   3.351   1.715   0.225 -0.1177  1.1240  0.8664
  167MOL   H10426996   3.270   1.514   0.316 -1.2994 -1.0806  1.6688
  167MOL   H10526997   3.228   1.619   0.442  0.1789  0.0945  2.1156
  167MOL   C10626998   3.307   1.434   0.595 -0.4048  0.1868  0.7221
  167MOL   C10726999   3.378   1.309   0.650 -0.6312  0.3543 -0.3969
  167MOL   C10827000   3.334   1.274   0.791 -0.0676  0.0642 -0.7189
  167MOL   O10927001   3.215   1.262   0.806  0.3071 -0.2936  0.0516
  167MOL   H11027002   3.231   1.395   0.528  1.1035 -1.5763 -0.0216
  167MOL   H11127003   3.263   1.505   0.665  0.8241  1.6391  0.0724
  167MOL   H11227004   3.486   1.324   0.661 -0.7053 -0.4174  1.7361
  167MOL   H11327005   3.379   1.217   0.592  1.2858 -0.8308  1.4331
  167MOL   C11427006   3.438   1.244   0.894 -0.4168  0.2491  0.2078
  167MOL   C11527007   3.394   1.147   0.999  0.5330 -0.6272 -0.0235
  167MOL   C11627008   3.457   1.014   0.974 -0.2993  0.8342  0.1210
  167MOL   O11727009   3.471   0.969   0.862  0.3313  0.8178 -0.0067
  167MOL   H11827010   3.451   1.338   0.947 -2.2985  0.8373 -0.3450
  167MOL   H11927011   3.537   1.230   0.850  0.2107 -0.2405  1.7402
  167MOL   H12027012   3.286   1.132   1.006  0.5543 -0.7141  0.1116
  167MOL   H12127013   3.428   1.176   1.099  0.2183  1.4808 -0.5029
  167MOL   C12227014   3.512   0.931   1.094  0.4969 -0.5528  0.7026
  167MOL   C12327015   3.634   0.842   1.065  0.7424 -1.0357  0.0994
  167MOL   C12427016   3.762   0.894   1.136  0.7295 -0.3285  0.0077
  167MOL   O12527017   3.799   0.832   1.237 -0.3572  0.6613 -0.4152
  167MOL   H12627018   3.435   0.880   1.153  1.4108 -0.4388  2.0049
  167MOL   H12727019   3.540   1.007   1.166 -0.5452 -0.2019  0.7560
  167MOL   H12827020   3.631   0.818   0.959 -2.5257  0.4031 -0.1906
  167MOL   H12927021   3.611   0.750   1.119  1.4615 -1.1668  0.1856
  167MOL   C13027022   3.830   1.022   1.093  0.5437 -0.1558 -0.4261
  167MOL   C13127023   3.977   0.987   1.074 -0.2382 -0.5077  0.6914
  167MOL   C13227024   4.035   1.098   0.995  0.1268  0.2949 -0.2677
  167MOL   O13327025   3.985   1.209   0.971  0.5439  0.2221 -0.0135
  167MOL   H13427026   3.806   1.103   1.162 -2.6640 -1.5909  0.2030
  167MOL   H13527027   3.783   1.056   1.001 -0.4422  0.1914  0.1950
  167MOL   H13627028   3.988   0.907   1.000 -0.8794  0.5639 -0.5909
  167MOL   H13727029   4.024   0.974   1.171  1.1191  0.9956  0.2334
  167MOL   C13827030   4.179   1.080   0.949 -0.2428  0.3614 -0.5226
  167MOL   C13927031   4.209   1.169   0.830 -1.3031 -0.5055  0.2737
  167MOL   C14027032   4.333   1.127   0.750  0.4894  0.4587 -0.4626
  167MOL   O14127033   4.398   1.028   0.783  0.5000  0.7410 -0.0009
  167MOL   H14227034   4.178   0.981   0.902  1.4589  0.7898 -1.5044
  167MOL   H14327035   4.237   1.086   1.041  0.3954  0.1466 -0.9124
  167MOL   H14427036   4.226   1.272   0.864 -0.2003 -0.6342  0.1538
  167MOL   H14527037   4.123   1.163   0.764 -1.9257  1.1998  0.8881
  167MOL   C14627038   4.358   1.204   0.630  0.0360 -0.0455  0.1215
  167MOL   C14727039   4.368   1.112   0.500 -0.2565  0.8490  0.1049
  167MOL   C14827040   4.263   1.147   0.397 -0.2438 -0.0813 -0.0411
  167MOL   O14927041   4.221   1.260   0.368 -0.6678 -0.1093 -0.9958
  167MOL   H15027042   4.459   1.246   0.640  0.0272  0.2393 -0.8769
  167MOL   H15127043   4.299   1.294   0.612 -0.5434 -1.3765 -5.5378
  167MOL   H15227044   4.339   1.010   0.527 -1.5849  0.8164 -1.3785
  167MOL   H15327045   4.466   1.108   0.451 -0.2925 -1.0836  0.1365
  167MOL   C15427046   4.225   1.027   0.315 -0.1005  0.3744  0.5775
  167MOL   C15527047   4.091   1.045   0.240  0.7817  0.6587  0.0614
  167MOL   C15627048   3.973   1.001   0.322  0.2484 -0.1424  0.5883
  167MOL   O15727049   3.988   0.957   0.432  0.7544 -0.3227  0.3068
  167MOL   H15827050   4.219   0.935   0.374 -0.1718  0.0984  0.1463
  167MOL   H15927051   4.296   1.013   0.233  1.3494  0.5079  1.7785
  167MOL   H16027052   4.096   0.980   0.152 -0.4608  0.3698  0.2023
  167MOL   H16127053   4.072   1.151   0.226 -1.4185  0.4023  0.9450
  167MOL   H16227054   3.874   1.010   0.278  0.0833 -3.1515  0.2096
  168MOL     C127055   6.499   4.087   4.430  0.3263 -0.2988 -0.4044
  168MOL     C227056   6.416   3.980   4.357 -0.1115 -0.1704  0.1211
  168MOL     C327057   6.460   3.958   4.212  0.5904 -0.0348 -0.0561
  168MOL     O427058   6.541   4.020   4.145  0.1937  0.6715  0.5660
  168MOL     H527059   6.606   4.067   4.435  0.6907  1.6958 -0.0126
  168MOL     H627060   6.481   4.179   4.375 -0.9843  0.6381  1.5216
  168MOL     H727061   6.310   4.001   4.348 -0.1866 -1.1748 -1.5411
  168MOL     H827062   6.431   3.884   4.407  1.8452 -1.3653 -2.5967
  168MOL     H927063   6.467   4.096   4.534  2.1232 -0.7807  0.2085
  168MOL    C1027064   6.393   3.833   4.158 -0.0704  0.4294  0.3759
  168MOL    C1127065   6.476   3.728   4.084 -0.0253 -0.0779 -0.1130
  168MOL    C1227066   6.451   3.724   3.932 -0.3198  0.1618 -0.1585
  168MOL    O1327067   6.406   3.821   3.882  0.1972  0.0194  0.7405
  168MOL    H1427068   6.307   3.862   4.097  1.3814  2.6056 -0.7178
  168MOL    H1527069   6.360   3.776   4.245  1.0847  1.0219  1.2080
  168MOL    H1627070   6.474   3.629   4.130  1.6192  0.0263  0.1996
  168MOL    H1727071   6.574   3.775   4.082  0.2973 -0.7702 -2.1721
  168MOL    C1827072   6.496   3.601   3.860  0.3715 -0.2129 -0.5414
  168MOL    C1927073   6.487   3.616   3.707 -0.8085  0.1499 -0.0432
  168MOL    C2027074   6.453   3.479   3.648 -0.5552 -0.2127 -0.4315
  168MOL    O2127075   6.364   3.403   3.684 -0.2123  0.8664 -0.4187
  168MOL    H2227076   6.456   3.511   3.907  2.0384 -1.5882 -1.6609
  168MOL    H2327077   6.600   3.584   3.887  0.5051 -1.0053 -1.4848
  168MOL    H2427078   6.587   3.641   3.671 -0.3991 -1.3314  0.0255
  168MOL    H2527079   6.411   3.685   3.672 -1.5346 -0.7985 -0.3595
  168MOL    C2627080   6.528   3.436   3.526  0.2961  0.5410 -0.1503
  168MOL    C2727081   6.515   3.287   3.491 -0.2428 -0.9184 -0.4764
  168MOL    C2827082   6.611   3.205   3.562  0.0836 -0.2688  0.0925
  168MOL    O2927083   6.681   3.252   3.650 -0.3745  0.1526 -0.0190
  168MOL    H3027084   6.635   3.458   3.532  0.2665  1.5171 -2.4782
  168MOL    H3127085   6.493   3.506   3.450 -0.1577 -0.7253 -1.1195
  168MOL    H3227086   6.540   3.268   3.387  0.8171 -0.9976 -0.2124
  168MOL    H3327087   6.414   3.247   3.499 -1.5579  1.7021 -3.0231
  168MOL    C3427088   6.617   3.065   3.519 -0.2676  0.5364 -0.8944
  168MOL    C3527089   6.750   3.018   3.453 -0.5240 -0.3317  0.3409
  168MOL    C3627090   6.746   3.039   3.300 -0.4360  0.2285  0.2055
  168MOL    O3727091   6.744   3.151   3.251  0.3250 -0.0078 -0.1778
  168MOL    H3827092   6.527   3.042   3.462 -1.5371 -1.9946  1.9853
  168MOL    H3927093   6.602   3.002   3.607  1.8650  0.1827 -0.7430
  168MOL    H4027094   6.773   2.913   3.465  1.0729  0.1547  1.6671
  168MOL    H4127095   6.829   3.080   3.496 -0.7647  0.0180  0.2884
  168MOL    C4227096   6.741   2.911   3.216 -0.4972 -0.1445 -0.1017
  168MOL    C4327097   6.705   2.940   3.070  0.1309 -0.0097  0.9275
  168MOL    C4427098   6.700   2.819   2.984  0.2367  0.0984 -0.0035
  168MOL    O4527099   6.697   2.700   3.017 -0.4544 -0.1182  0.6954
  168MOL    H4627100   6.672   2.842   3.264  0.4185  1.0960  3.0885
  168MOL    H4727101   6.840   2.866   3.210 -0.2160  0.1391  2.2238
  168MOL    H4827102   6.774   3.013   3.028  0.7093 -1.5066 -0.7346
  168MOL    H4927103   6.601   2.973   3.071 -0.9244 -2.9181 -2.3918
  168MOL    C5027104   6.687   2.858   2.833  0.6558  0.4106  0.1900
  168MOL    C5127105   6.631   2.741   2.752 -0.5364 -0.1945 -0.0291
  168MOL    C5227106   6.717   2.714   2.631  0.0793  0.8539 -0.3860
  168MOL    O5327107   6.838   2.700   2.634 -0.1687  0.3537  0.5833
  168MOL    H5427108   6.787   2.890   2.803  0.5947 -0.1461 -0.6243
  168MOL    H5527109   6.618   2.941   2.816 -1.2438 -1.0584  0.5230
  168MOL    H5627110   6.531   2.772   2.721 -0.0642 -1.1766 -2.6498
  168MOL    H5727111   6.626   2.650   2.811 -0.6822 -0.7045 -0.8294
  168MOL    C5827112   6.645   2.697   2.501  0.5430 -0.6087 -0.1603
  168MOL    C5927113   6.736   2.668   2.384  0.5120  0.5160 -0.4706
  168MOL    C6027114   6.665   2.604   2.267 -0.5431  0.5476 -1.0171
  168MOL    O6127115   6.543   2.588   2.267  0.5957  0.3872  0.6144
  168MOL    H6227116   6.590   2.788   2.477  0.4055 -1.6190 -3.9490
  168MOL    H6327117   6.567   2.623   2.518 -0.5670  0.3262 -1.1411
  168MOL    H6427118   6.814   2.596   2.409 -0.0395 -0.6248 -1.9431
  168MOL    H6527119   6.783   2.761   2.355 -1.8038  1.6024 -0.8368
  168MOL    C6627120   6.758   2.566   2.158  0.5625 -0.2514  0.1260
  168MOL    C6727121   6.695   2.526   2.030  0.5582 -0.5811 -0.2732
  168MOL    C6827122   6.617   2.394   2.032  0.3119 -0.2903  0.7313
  168MOL    O6927123   6.489   2.394   2.030  0.0237  0.4570 -0.1085
  168MOL    H7027124   6.826   2.489   2.195  0.8585 -1.0224 -1.9835
  168MOL    H7127125   6.828   2.647   2.141 -0.9783  1.5150  2.0104
  168MOL    H7227126   6.777   2.515   1.959  1.0469 -1.2458  0.3800
  168MOL    H7327127   6.634   2.612   2.004  0.2591 -0.1404  1.7959
  168MOL    C7427128   6.702   2.271   2.005 -0.0256 -0.3644 -0.0136
  168MOL    C7527129   6.611   2.148   2.000 -0.4198  0.3527 -0.8308
  168MOL    C7627130   6.566   2.110   1.862 -0.1179  0.1179 -0.5272
  168MOL    O7727131   6.612   2.153   1.757  0.4500 -0.3706 -0.4482
  168MOL    H7827132   6.788   2.257   2.071  1.7890  1.1716 -2.0088
  168MOL    H7927133   6.747   2.288   1.907 -0.6506 -1.4114 -0.4880
  168MOL    H8027134   6.526   2.169   2.064  0.1809 -1.1088  0.4675
  168MOL    H8127135   6.662   2.064   2.048  0.0700  1.8536  1.3238
  168MOL    C8227136   6.438   2.034   1.854  0.2774  0.1074  0.1143
  168MOL    C8327137   6.338   2.091   1.737  0.0443 -0.1262 -0.5944
  168MOL    C8427138   6.226   2.187   1.776  0.2452 -0.5579  0.1636
  168MOL    O8527139   6.168   2.178   1.885 -0.4467 -0.3272 -0.5553
  168MOL    H8627140   6.388   2.018   1.949 -0.0657  0.9796  0.0857
  168MOL    H8727141   6.475   1.936   1.823  2.8951  0.8974  0.6974
  168MOL    H8827142   6.305   2.011   1.671  1.2415  0.8758 -2.4605
  168MOL    H8927143   6.406   2.146   1.673 -0.5150 -0.0919 -1.1714
  168MOL    C9027144   6.192   2.304   1.683  0.7752  0.2886  0.3005
  168MOL    C9127145   6.089   2.265   1.575  0.8354 -0.0604  0.3825
  168MOL    C9227146   5.978   2.371   1.559 -0.9781 -0.3318 -0.0374
  168MOL    O9327147   5.971   2.461   1.645  0.4698 -0.2429  0.1540
  168MOL    H9427148   6.282   2.345   1.635 -0.7998  1.4767 -1.7325
  168MOL    H9527149   6.149   2.388   1.736 -0.8665 -0.0713 -0.4466
  168MOL    H9627150   6.044   2.167   1.593 -0.2325  0.7014  2.0138
  168MOL    H9727151   6.155   2.266   1.488 -0.0683  0.2738 -0.3122
  168MOL    C9827152   5.874   2.354   1.454 -0.2886 -0.1553 -0.1796
  168MOL    C9927153   5.732   2.352   1.517  0.3615 -0.4342 -0.1809
  168MOL   C10027154   5.619   2.387   1.419  0.3858 -0.3162 -0.0940
  168MOL   O10127155   5.619   2.485   1.348 -0.5290 -0.2113  0.3301
  168MOL   H10227156   5.895   2.250   1.428  0.7733  0.0463 -0.1582
  168MOL   H10327157   5.888   2.422   1.370 -0.7818  0.6860  0.4057
  168MOL   H10427158   5.728   2.421   1.601 -0.2571  0.9665 -1.3254
  168MOL   H10527159   5.717   2.251   1.554 -1.0946 -0.3318 -0.4555
  168MOL   C10627160   5.505   2.288   1.417  0.2670 -0.7585  0.6673
  168MOL   C10727161   5.362   2.355   1.399 -0.3358  0.5573 -0.1681
  168MOL   C10827162   5.299   2.335   1.269 -0.4004  0.0944  0.2162
  168MOL   O10927163   5.315   2.224   1.208 -0.2092 -0.6413  0.3379
  168MOL   H11027164   5.509   2.233   1.511 -0.6226 -0.4516  0.8891
  168MOL   H11127165   5.531   2.220   1.336  1.0838  1.0439 -0.6165
  168MOL   H11227166   5.375   2.462   1.416  2.5928  0.7002 -2.7896
  168MOL   H11327167   5.299   2.310   1.475 -0.4880  0.8651 -0.1155
  168MOL   C11427168   5.212   2.452   1.213 -0.6233  0.2428 -0.4368
  168MOL   C11527169   5.288   2.574   1.154  0.1035 -0.0565 -0.0244
  168MOL   C11627170   5.313   2.696   1.247  0.3164  0.1838  0.0667
  168MOL   O11727171   5.261   2.694   1.358 -0.2670  0.2744  0.2068
  168MOL   H11827172   5.133   2.482   1.282 -2.1525 -1.2976 -1.4799
  168MOL   H11927173   5.155   2.404   1.133 -0.4076 -0.0780 -0.4010
  168MOL   H12027174   5.236   2.603   1.062 -0.6140  0.4309  0.5326
  168MOL   H12127175   5.386   2.546   1.115 -0.4858  0.3568 -1.8462
  168MOL   C12227176   5.373   2.822   1.184  0.1349 -0.4029 -0.7688
  168MOL   C12327177   5.505   2.783   1.113 -0.5395  0.1550  1.0890
  168MOL   C12427178   5.614   2.893   1.106  0.4647 -0.0098  0.3461
  168MOL   O12527179   5.618   2.981   1.198 -0.0274  0.5476  0.6505
  168MOL   H12627180   5.378   2.904   1.255 -1.5369 -0.5904 -0.4280
  168MOL   H12727181   5.295   2.841   1.111  1.4535  0.7643 -1.9110
  168MOL   H12827182   5.492   2.744   1.012 -0.9712 -0.0901  1.2408
  168MOL   H12927183   5.545   2.707   1.180 -4.7031 -0.0618  3.4981
  168MOL   C13027184   5.704   2.903   0.983 -0.3402  0.6262 -0.1466
  168MOL   C13127185   5.809   3.020   0.993 -0.0150  0.6276 -0.0204
  168MOL   C13227186   5.777   3.141   0.907 -0.4828 -0.4049  0.1511
  168MOL   O13327187   5.669   3.163   0.852  0.1717 -0.2404  0.5978
  168MOL   H13427188   5.635   2.917   0.899 -1.7920  0.3477  0.9802
  168MOL   H13527189   5.757   2.808   0.973 -2.3723 -0.5887  0.2144
  168MOL   H13627190   5.897   2.968   0.954 -0.8633 -0.0557 -1.0769
  168MOL   H13727191   5.831   3.057   1.093 -2.2722 -0.7334  1.0128
  168MOL   C13827192   5.884   3.251   0.916 -0.2032 -0.3624  0.4574
  168MOL   C13927193   5.863   3.387   0.847 -0.4237 -0.4531  0.4442
  168MOL   C14027194   5.944   3.501   0.922 -0.1832 -0.6303 -0.2577
  168MOL   O14127195   6.066   3.507   0.927  0.0827  0.2580  0.0459
  168MOL   H14227196   5.975   3.214   0.870  0.4080  1.0380  0.5109
  168MOL   H14327197   5.894   3.270   1.023 -0.3274  0.9674  0.2363
  168MOL   H14427198   5.757   3.414   0.853 -0.1666  0.3697  1.4845
  168MOL   H14527199   5.889   3.392   0.741 -0.2418 -0.3413  0.4934
  168MOL   C14627200   5.872   3.616   0.992 -0.2722  0.4826  0.0613
  168MOL   C14727201   5.909   3.614   1.144 -0.1770 -0.1026 -0.2305
  168MOL   C14827202   5.814   3.701   1.227  0.3412 -0.0072  0.3965
  168MOL   O14927203   5.702   3.728   1.190  0.1110 -0.4312 -0.1433
  168MOL   H15027204   5.767   3.600   0.967 -0.4697 -1.1576  1.8486
  168MOL   H15127205   5.890   3.712   0.943 -0.5354  0.3854 -0.2305
  168MOL   H15227206   6.007   3.659   1.157 -0.0868 -0.5960  0.8187
  168MOL   H15327207   5.913   3.511   1.178 -0.0559 -0.2483 -0.6851
  168MOL   C15427208   5.871   3.754   1.357 -0.5065 -0.0645 -0.2540
  168MOL   C15527209   5.877   3.904   1.379 -0.1864 -0.3114  0.5767
  168MOL   C15627210   5.992   3.976   1.315  0.7880 -0.0268  0.3314
  168MOL   O15727211   6.009   3.969   1.196  0.7364  0.5221 -0.1102
  168MOL   H15827212   5.973   3.717   1.369 -0.1422  1.4861  1.6622
  168MOL   H15927213   5.816   3.705   1.437  0.2181 -2.7236 -1.3444
  168MOL   H16027214   5.869   3.923   1.486 -0.3077 -1.2925  0.7512
  168MOL   H16127215   5.788   3.951   1.336  1.1464  2.7299  1.0709
  168MOL   H16227216   6.053   4.031   1.387  2.7378 -0.3014 -1.0750
  169MOL     C127217   5.541   2.798   0.674 -0.1744  0.4991 -0.4119
  169MOL     C227218   5.655   2.742   0.588 -0.7079  0.6718 -0.6378
  169MOL     C327219   5.796   2.751   0.653  0.5188 -0.3662 -0.6209
  169MOL     O427220   5.869   2.844   0.621 -0.5796  0.7531 -0.0637
  169MOL     H527221   5.543   2.753   0.773  1.8690  2.1013  0.3037
  169MOL     H627222   5.549   2.907   0.681 -0.3467  0.4960 -0.1623
  169MOL     H727223   5.664   2.780   0.486  3.4981  2.1262  0.1927
  169MOL     H827224   5.635   2.636   0.572 -2.3720  0.7637  0.7251
  169MOL     H927225   5.442   2.773   0.634 -1.3149  3.8012  0.1424
  169MOL    C1027226   5.839   2.636   0.745 -0.4462  0.4449  0.2616
  169MOL    C1127227   5.970   2.667   0.815 -0.2062  0.0508  0.3634
  169MOL    C1227228   6.100   2.597   0.771 -0.3820  0.3763  0.4637
  169MOL    O1327229   6.104   2.483   0.719 -0.2762 -0.2499 -0.0152
  169MOL    H1427230   5.843   2.545   0.684 -0.2215  0.3788  0.3736
  169MOL    H1527231   5.751   2.619   0.808 -2.0899 -0.5713 -2.2266
  169MOL    H1627232   5.955   2.652   0.922  1.1631 -0.5355  0.4791
  169MOL    H1727233   5.991   2.773   0.806 -0.3059 -0.0803 -1.7715
  169MOL    C1827234   6.225   2.675   0.796 -0.5583  0.5483 -0.3158
  169MOL    C1927235   6.358   2.592   0.782  0.0529  0.1119 -0.5579
  169MOL    C2027236   6.442   2.595   0.911 -0.1894 -0.0969 -0.1390
  169MOL    O2127237   6.396   2.640   1.017  0.3770  0.4414 -0.2155
  169MOL    H2227238   6.215   2.724   0.893 -1.7990 -0.8147  0.2608
  169MOL    H2327239   6.237   2.750   0.718 -0.3597 -0.4836 -1.2942
  169MOL    H2427240   6.424   2.643   0.711 -1.1524  2.1874 -0.2486
  169MOL    H2527241   6.352   2.491   0.743  1.8771 -0.3419  0.2830
  169MOL    C2627242   6.588   2.550   0.900  0.3054 -0.0668  0.6187
  169MOL    C2727243   6.650   2.523   1.040 -0.6014 -0.2441 -0.1952
  169MOL    C2827244   6.790   2.458   1.036  0.2895 -0.0232  0.5325
  169MOL    O2927245   6.832   2.407   0.932 -0.2031  0.4114  0.6050
  169MOL    H3027246   6.640   2.625   0.841 -0.8667  0.6861  0.5458
  169MOL    H3127247   6.587   2.454   0.848 -2.6022 -0.1793  0.8100
  169MOL    H3227248   6.586   2.454   1.095  0.2687  0.6004  1.9477
  169MOL    H3327249   6.658   2.620   1.090 -2.4627 -1.2140  2.0933
  169MOL    C3427250   6.871   2.460   1.166 -0.0655  0.4551  0.3307
  169MOL    C3527251   7.006   2.374   1.156  0.2494 -0.0873  0.0287
  169MOL    C3627252   6.986   2.238   1.219  0.5859  0.0014  0.1855
  169MOL    O3727253   6.872   2.189   1.229 -0.0385 -0.0137  0.4865
  169MOL    H3827254   6.798   2.436   1.244  1.1845  1.0971  1.7107
  169MOL    H3927255   6.898   2.565   1.178 -2.3595  1.0877  0.2659
  169MOL    H4027256   7.090   2.425   1.202  0.3896 -0.6339  0.3688
  169MOL    H4127257   7.033   2.350   1.053  0.6691 -1.3916  0.4353
  169MOL    C4227258   7.110   2.162   1.265  0.2744 -0.3645 -0.0786
  169MOL    C4327259   7.078   2.052   1.367 -0.3222  0.1477 -0.3439
  169MOL    C4427260   7.023   2.111   1.495  0.1731  0.1015 -0.5105
  169MOL    O4527261   7.071   2.214   1.538  0.1989  0.2629  0.0986
  169MOL    H4627262   7.190   2.229   1.297 -0.6559  0.0825  1.3816
  169MOL    H4727263   7.161   2.131   1.174 -1.1833 -0.1151 -1.0035
  169MOL    H4827264   7.174   2.003   1.387  0.6972  1.6221 -1.5194
  169MOL    H4927265   7.001   1.985   1.329 -1.1220 -0.3410  2.0474
  169MOL    C5027266   6.918   2.033   1.573  0.7727  0.5531  0.8137
  169MOL    C5127267   6.948   1.991   1.718 -0.5601  0.4322  0.0062
  169MOL    C5227268   6.845   1.891   1.781 -0.2420  0.2498 -0.7390
  169MOL    O5327269   6.757   1.839   1.725 -0.6239 -0.4463 -0.0971
  169MOL    H5427270   6.893   1.943   1.517 -0.7827  0.5895  1.4141
  169MOL    H5527271   6.829   2.097   1.572 -0.0352 -0.5432  0.9206
  169MOL    H5627272   6.946   2.070   1.794  1.5676 -0.8608  1.4719
  169MOL    H5727273   7.052   1.957   1.724 -0.8791 -0.3517  1.2914
  169MOL    C5827274   6.870   1.859   1.928  0.3465  0.4875  0.0044
  169MOL    C5927275   6.761   1.770   1.998 -0.3159  0.4554 -0.2081
  169MOL    C6027276   6.788   1.619   1.991  0.3411  0.2383  0.1501
  169MOL    O6127277   6.901   1.575   1.964 -0.4574  0.8459  0.1667
  169MOL    H6227278   6.866   1.950   1.988  0.0046  0.5963 -0.1819
  169MOL    H6327279   6.972   1.825   1.947 -0.2144 -0.7591  0.8897
  169MOL    H6427280   6.657   1.784   1.967 -0.3497  2.6805  0.7797
  169MOL    H6527281   6.774   1.788   2.105 -0.1545  2.2531 -0.5058
  169MOL    C6627282   6.664   1.539   2.029 -0.5678 -0.0901  0.1413
  169MOL    C6727283   6.661   1.401   1.961  0.0219  0.6818 -0.4194
  169MOL    C6827284   6.514   1.357   1.934 -1.2871 -0.4870 -0.3790
  169MOL    O6927285   6.423   1.407   1.994 -0.4917  0.5981  0.2926
  169MOL    H7027286   6.576   1.593   1.994  0.1724  0.8084 -0.3640
  169MOL    H7127287   6.654   1.537   2.138 -1.7021 -0.3364  0.0459
  169MOL    H7227288   6.712   1.326   2.020 -1.3877 -0.9541 -1.2571
  169MOL    H7327289   6.712   1.409   1.865 -0.7181 -0.2690 -0.9002
  169MOL    C7427290   6.499   1.246   1.832  0.1500  0.6442 -0.4833
  169MOL    C7527291   6.520   1.105   1.893 -0.0997 -0.5221 -0.1778
  169MOL    C7627292   6.638   1.030   1.833  0.0155  0.3480  0.4160
  169MOL    O7727293   6.752   1.078   1.821 -0.4075  0.0915 -0.4227
  169MOL    H7827294   6.570   1.264   1.751 -1.1029 -1.2632 -2.0736
  169MOL    H7927295   6.401   1.251   1.784  0.0137  1.7833 -0.0784
  169MOL    H8027296   6.435   1.039   1.878  0.9663 -2.4957  2.1453
  169MOL    H8127297   6.532   1.124   1.999  1.3681  2.0911 -0.7767
  169MOL    C8227298   6.605   0.895   1.782  0.2989  0.4398 -0.1570
  169MOL    C8327299   6.731   0.807   1.747 -0.0528 -0.1191 -0.4280
  169MOL    C8427300   6.686   0.667   1.704 -0.0794  0.2806  0.3252
  169MOL    O8527301   6.650   0.589   1.788 -0.0239 -0.4352  0.3768
  169MOL    H8627302   6.541   0.902   1.693  1.3786 -1.4207 -1.1129
  169MOL    H8727303   6.538   0.841   1.848  0.0279  0.7707 -0.1558
  169MOL    H8827304   6.810   0.800   1.821 -0.9705 -2.3082  0.3723
  169MOL    H8927305   6.779   0.863   1.666 -2.4651  1.5201 -0.7681
  169MOL    C9027306   6.662   0.639   1.564 -0.2882 -0.0893 -0.3775
  169MOL    C9127307   6.678   0.488   1.533  0.4337  0.1125 -0.6103
  169MOL    C9227308   6.698   0.458   1.387 -0.1512 -0.2832 -0.5147
  169MOL    O9327309   6.634   0.524   1.306  0.5585 -0.0505 -0.1886
  169MOL    H9427310   6.735   0.701   1.511 -0.1469  1.6704  1.7989
  169MOL    H9527311   6.566   0.680   1.532  0.0945  1.7911  0.8038
  169MOL    H9627312   6.589   0.443   1.579  1.7735 -1.8737  0.1120
  169MOL    H9727313   6.760   0.441   1.587  0.0971 -0.7890 -0.8767
  169MOL    C9827314   6.789   0.346   1.342 -0.1564 -0.7480 -0.1613
  169MOL    C9927315   6.710   0.236   1.259 -0.2594 -0.6637 -0.4147
  169MOL   C10027316   6.803   0.128   1.194  0.0908  0.3482  0.7204
  169MOL   O10127317   6.925   0.138   1.197  0.8308 -0.0083 -0.1911
  169MOL   H10227318   6.821   0.299   1.435 -0.0242 -0.9618 -0.3124
  169MOL   H10327319   6.873   0.392   1.289  0.4589  1.0415  2.2641
  169MOL   H10427320   6.639   0.266   1.181 -0.7667  0.0326  0.3110
  169MOL   H10527321   6.654   0.185   1.337 -1.2756 -0.7239 -1.1625
  169MOL   C10627322   6.742   0.009   1.128 -0.0056  0.9215  0.4562
  169MOL   C10727323   6.835   7.746   1.112 -0.1173  0.0365 -0.6903
  169MOL   C10827324   6.799   7.644   1.216  0.1041  0.2060 -0.5085
  169MOL   O10927325   6.840   7.645   1.327 -0.6726  0.4321 -1.0846
  169MOL   H11027326   6.711   0.042   1.029 -2.2665 -0.1243  0.7745
  169MOL   H11127327   6.649   7.836   1.177 -0.2147 -0.1888 -0.6274
  169MOL   H11227328   6.940   7.775   1.117 -0.3689  0.7812  0.4584
  169MOL   H11327329   6.835   7.712   1.009 -1.9439  0.0486 -0.7117
  169MOL   C11427330   6.698   7.531   1.181 -0.7022  0.1266 -0.3130
  169MOL   C11527331   6.753   7.391   1.206  0.3938  0.0437 -0.6274
  169MOL   C11627332   6.717   7.301   1.089 -0.5004 -0.2611  0.2120
  169MOL   O11727333   6.637   7.335   1.004 -0.1507 -0.2920  0.3426
  169MOL   H11827334   6.647   7.544   1.086 -0.3947 -2.1645 -0.8194
  169MOL   H11927335   6.626   7.542   1.262  1.1070  1.2938  1.1823
  169MOL   H12027336   6.696   7.353   1.290  0.2148 -0.7281 -1.1001
  169MOL   H12127337   6.859   7.385   1.229  0.7614 -2.2333 -2.7033
  169MOL   C12227338   6.790   7.166   1.086  0.7183 -0.2834  0.5753
  169MOL   C12327339   6.783   7.108   0.938  0.7594  0.8201  0.0254
  169MOL   C12427340   6.673   7.008   0.925 -0.5944 -0.0205 -0.2990
  169MOL   O12527341   6.660   6.922   1.010  0.2195 -0.2744 -0.7901
  169MOL   H12627342   6.729   7.106   1.152 -0.4361 -0.0129 -0.2262
  169MOL   H12727343   6.892   7.167   1.125  0.6008 -0.2823  0.8839
  169MOL   H12827344   6.872   7.049   0.915 -2.4919 -3.5385 -2.0246
  169MOL   H12927345   6.770   7.196   0.874 -0.4710  0.3370 -0.4096
  169MOL   C13027346   6.586   7.019   0.797 -0.7685  0.0714 -0.7180
  169MOL   C13127347   6.462   6.930   0.813 -0.7664 -1.0358 -0.4187
  169MOL   C13227348   6.369   6.975   0.920  0.1584  0.4029 -0.4614
  169MOL   O13327349   6.341   7.097   0.939 -0.0605 -0.3974 -0.4174
  169MOL   H13427350   6.650   6.985   0.715 -0.9506 -0.2437 -0.7334
  169MOL   H13527351   6.568   7.124   0.777 -0.0259  0.6672  1.5780
  169MOL   H13627352   6.484   6.824   0.810  2.0305 -0.5396  0.9677
  169MOL   H13727353   6.402   6.950   0.724  0.9272  0.5898 -1.2333
  169MOL   C13827354   6.285   6.870   0.998 -0.0043 -0.6840 -0.0827
  169MOL   C13927355   6.364   6.830   1.118 -0.6739 -0.5576  0.1516
  169MOL   C14027356   6.272   6.786   1.231  0.5380  0.5769 -0.2854
  169MOL   O14127357   6.158   6.822   1.245 -0.2204 -0.5005 -0.2127
  169MOL   H14227358   6.262   6.787   0.932  0.5614  0.5141 -1.8065
  169MOL   H14327359   6.192   6.919   1.028  1.0414  1.1136  0.2893
  169MOL   H14427360   6.443   6.897   1.153 -0.0214  0.2075 -2.6859
  169MOL   H14527361   6.427   6.751   1.078  0.6812  0.6351 -0.1039
  169MOL   C14627362   6.326   6.689   1.340  0.5140 -0.2847 -0.3705
  169MOL   C14727363   6.233   6.661   1.458  0.0697 -0.0497 -0.0030
  169MOL   C14827364   6.234   6.764   1.570  0.4619 -0.4009 -0.2576
  169MOL   O14927365   6.275   6.882   1.547  0.0930 -0.5335 -0.4114
  169MOL   H15027366   6.416   6.731   1.386  1.1525 -2.9263  0.9112
  169MOL   H15127367   6.356   6.600   1.285  3.5037  0.7505 -0.5156
  169MOL   H15227368   6.274   6.573   1.508  2.0937  1.8291  1.7450
  169MOL   H15327369   6.133   6.625   1.433  0.2283  0.6768 -1.7366
  169MOL   C15427370   6.169   6.715   1.701 -0.4889 -0.5065 -0.0728
  169MOL   C15527371   6.269   6.737   1.819 -0.4621  0.9593 -0.9397
  169MOL   C15627372   6.252   6.642   1.936  0.6782  0.2408  0.0860
  169MOL   O15727373   6.150   6.573   1.954  0.1528  0.2472  0.0474
  169MOL   H15827374   6.153   6.609   1.684 -2.9972  0.1449 -2.2190
  169MOL   H15927375   6.066   6.745   1.719 -0.6233 -1.2242  0.3230
  169MOL   H16027376   6.257   6.838   1.860 -0.7919  0.7946 -0.6289
  169MOL   H16127377   6.372   6.726   1.785  0.4760  1.5052  1.5942
  169MOL   H16227378   6.331   6.639   2.012  0.8885 -1.1133 -0.1764
  170MOL     C127379   4.024   5.973   0.419  0.1958  0.2305 -0.0830
  170MOL     C227380   4.175   5.970   0.455  0.0465 -0.6574  0.5440
  170MOL     C327381   4.204   5.851   0.541 -0.7991 -0.1837 -0.2627
  170MOL     O427382   4.214   5.867   0.662 -0.1899 -0.1105 -0.0711
  170MOL     H527383   3.985   5.874   0.397 -0.1379 -0.0033  1.4838
  170MOL     H627384   3.955   6.015   0.493 -0.9678  0.1604 -1.0991
  170MOL     H727385   4.196   6.057   0.517 -2.3004  0.1196  0.2958
  170MOL     H827386   4.243   5.969   0.370  0.0306 -0.6387  0.5314
  170MOL     H927387   4.014   6.034   0.329 -0.0289  3.5232  2.1029
  170MOL    C1027388   4.232   5.731   0.458 -0.6834  1.4684 -0.2763
  170MOL    C1127389   4.156   5.610   0.498 -0.0316  0.0131 -0.1759
  170MOL    C1227390   4.225   5.477   0.459 -1.2440  0.1604  0.2616
  170MOL    O1327391   4.266   5.461   0.343  0.1683 -0.1931 -0.2742
  170MOL    H1427392   4.339   5.713   0.458 -0.7761  0.6545  2.2476
  170MOL    H1527393   4.186   5.763   0.365 -0.9485  0.0582 -0.6519
  170MOL    H1627394   4.059   5.609   0.450  0.0326  0.9122 -0.3207
  170MOL    H1727395   4.128   5.609   0.603 -3.4868  0.2235 -1.0553
  170MOL    C1827396   4.251   5.372   0.565 -0.1997 -0.1798  0.2319
  170MOL    C1927397   4.298   5.239   0.511 -0.7610  0.1867  0.6691
  170MOL    C2027398   4.262   5.119   0.597  0.2408  0.1568 -0.3897
  170MOL    O2127399   4.170   5.124   0.680  0.3255  0.4318 -0.3594
  170MOL    H2227400   4.155   5.359   0.614 -0.0831 -1.3034  0.1849
  170MOL    H2327401   4.314   5.413   0.644  2.1836 -0.6946 -1.3410
  170MOL    H2427402   4.407   5.246   0.504 -0.5681 -2.5303  0.3068
  170MOL    H2527403   4.254   5.218   0.414 -0.8811 -2.2146  1.2046
  170MOL    C2627404   4.335   4.993   0.568  0.0881  0.6276  0.1715
  170MOL    C2727405   4.346   4.888   0.676  0.4964  0.0078  0.3872
  170MOL    C2827406   4.479   4.904   0.761  0.0333 -0.1124  0.4500
  170MOL    O2927407   4.560   4.992   0.737 -0.2867 -0.5752  0.7083
  170MOL    H3027408   4.432   5.020   0.527 -0.5430  1.3757 -0.8558
  170MOL    H3127409   4.280   4.955   0.482 -0.8352 -0.7901  1.3662
  170MOL    H3227410   4.365   4.791   0.631  0.4576  0.8452 -1.4913
  170MOL    H3327411   4.259   4.900   0.740  0.4159  1.7827 -0.0154
  170MOL    C3427412   4.507   4.793   0.854 -0.0419  0.1704  1.1931
  170MOL    C3527413   4.604   4.837   0.962 -0.5028  0.1546 -0.1203
  170MOL    C3627414   4.743   4.784   0.935 -0.6777 -0.7828  0.7934
  170MOL    O3727415   4.778   4.744   0.823 -0.1341 -0.2546 -0.0621
  170MOL    H3827416   4.541   4.710   0.793 -2.1308  0.7045 -0.7794
  170MOL    H3927417   4.414   4.772   0.906 -0.1230  0.9373  1.3702
  170MOL    H4027418   4.582   4.791   1.058 -0.1103 -2.7603 -1.3807
  170MOL    H4127419   4.601   4.945   0.973 -0.9983  0.0577  0.6752
  170MOL    C4227420   4.846   4.801   1.043 -0.1741  0.1229  0.0270
  170MOL    C4327421   4.968   4.889   1.001 -0.5068 -0.4700 -0.2153
  170MOL    C4427422   4.954   5.033   1.052  0.1797 -0.5995  0.1362
  170MOL    O4527423   4.851   5.073   1.096 -0.2609  1.0021 -0.1323
  170MOL    H4627424   4.868   4.701   1.082  0.1477  1.6130  3.8502
  170MOL    H4727425   4.796   4.851   1.125  0.3684  0.5912  0.0679
  170MOL    H4827426   4.983   4.890   0.893 -0.6025 -0.2464 -0.2274
  170MOL    H4927427   5.057   4.844   1.043  0.8785  2.9835  0.7163
  170MOL    C5027428   5.079   5.126   1.042  0.0820  0.2200  0.5805
  170MOL    C5127429   5.039   5.275   1.014 -0.3922  0.4532 -0.2969
  170MOL    C5227430   5.002   5.352   1.141  0.3383 -0.6172 -0.3440
  170MOL    O5327431   5.064   5.341   1.245  0.7794 -0.4583 -0.1851
  170MOL    H5427432   5.154   5.093   0.971 -1.2530 -1.1823 -0.2033
  170MOL    H5527433   5.122   5.112   1.141  0.8089 -1.1832  0.0723
  170MOL    H5627434   4.947   5.270   0.956 -0.8262  1.7374  0.2713
  170MOL    H5727435   5.128   5.318   0.970  2.2119 -2.1097  2.2693
  170MOL    C5827436   4.879   5.441   1.135  0.1566 -0.3271  0.1999
  170MOL    C5927437   4.859   5.537   1.243 -1.0681 -0.5770 -0.1331
  170MOL    C6027438   4.782   5.478   1.355  0.0910  0.5250  0.3439
  170MOL    O6127439   4.685   5.406   1.340  0.2494 -0.9166  0.1125
  170MOL    H6227440   4.804   5.362   1.127  0.0917 -0.2427 -0.0191
  170MOL    H6327441   4.861   5.490   1.040  2.2293  1.2851  0.6122
  170MOL    H6427442   4.797   5.618   1.205 -0.5943  0.3496  1.0043
  170MOL    H6527443   4.954   5.571   1.286 -0.8059 -0.2389 -0.9737
  170MOL    C6627444   4.833   5.494   1.493 -0.2389 -0.0912  0.6033
  170MOL    C6727445   4.738   5.565   1.593 -0.0010 -0.6491  0.0219
  170MOL    C6827446   4.782   5.537   1.734  0.0951 -0.1655 -0.0882
  170MOL    O6927447   4.863   5.447   1.762 -0.4163  0.8169  0.1591
  170MOL    H7027448   4.929   5.547   1.495 -0.3961  0.2216 -0.0005
  170MOL    H7127449   4.862   5.397   1.534 -1.0183 -1.0648 -1.0648
  170MOL    H7227450   4.631   5.553   1.574 -0.1207  2.4833 -1.5812
  170MOL    H7327451   4.743   5.673   1.580 -3.3351 -0.2926  1.0618
  170MOL    C7427452   4.729   5.633   1.835  0.5091 -0.3285 -0.3244
  170MOL    C7527453   4.651   5.566   1.950 -0.1049 -0.1636 -0.5004
  170MOL    C7627454   4.500   5.558   1.940  0.3975 -0.8286  0.1226
  170MOL    O7727455   4.440   5.592   1.834  0.2890  0.0232 -0.2926
  170MOL    H7827456   4.670   5.710   1.785  0.6754 -1.0781 -1.7250
  170MOL    H7927457   4.817   5.681   1.878  0.8305 -0.2991 -1.0019
  170MOL    H8027458   4.664   5.625   2.041 -1.1139 -0.7038  0.0137
  170MOL    H8127459   4.691   5.465   1.960 -0.0469 -0.1075 -0.1381
  170MOL    C8227460   4.422   5.511   2.060 -0.1167  0.7640 -0.6540
  170MOL    C8327461   4.401   5.619   2.169 -0.0392  0.2038 -0.0105
  170MOL    C8427462   4.246   5.629   2.190  0.2111  0.2937 -1.4893
  170MOL    O8527463   4.163   5.607   2.108 -0.1513  0.2282  0.6988
  170MOL    H8627464   4.463   5.424   2.111 -2.4362 -0.1344 -0.2632
  170MOL    H8727465   4.327   5.476   2.020 -0.3416  1.0831 -0.4049
  170MOL    H8827466   4.427   5.719   2.136  1.4901 -0.5199 -1.0350
  170MOL    H8927467   4.454   5.597   2.261 -0.9885  0.5057  0.6123
  170MOL    C9027468   4.202   5.686   2.324 -0.2585 -0.3020 -0.2900
  170MOL    C9127469   4.057   5.702   2.352  0.7192  0.1050 -0.4328
  170MOL    C9227470   3.990   5.830   2.305  0.0837  0.5688  0.0007
  170MOL    O9327471   4.042   5.939   2.333 -0.0708 -0.5459  0.7851
  170MOL    H9427472   4.246   5.785   2.333  0.0189 -0.3807 -0.7729
  170MOL    H9527473   4.242   5.614   2.396 -1.6127 -2.2466 -1.4210
  170MOL    H9627474   4.029   5.684   2.456  0.0390  2.5122 -0.1580
  170MOL    H9727475   4.007   5.622   2.297 -0.5191  0.0772  0.6986
  170MOL    C9827476   3.848   5.817   2.241 -0.5794 -0.4556 -0.2153
  170MOL    C9927477   3.734   5.913   2.300 -0.2331 -0.4365 -0.8710
  170MOL   C10027478   3.652   5.852   2.413  0.0253  0.2547  1.1492
  170MOL   O10127479   3.709   5.772   2.490  0.0899 -0.5588 -0.4521
  170MOL   H10227480   3.823   5.715   2.213  2.0042 -1.6783  1.7623
  170MOL   H10327481   3.869   5.868   2.147  1.2452  0.7869  0.8430
  170MOL   H10427482   3.662   5.940   2.222 -0.4227 -0.4452 -0.6990
  170MOL   H10527483   3.786   6.001   2.337  1.5240 -1.8698  0.1451
  170MOL   C10627484   3.504   5.874   2.413 -0.2523 -0.5388 -0.4824
  170MOL   C10727485   3.435   5.832   2.546 -0.5201  0.3991 -0.4769
  170MOL   C10827486   3.283   5.818   2.528  0.1868  0.7793 -0.3030
  170MOL   O10927487   3.218   5.884   2.446 -0.5492  0.0020  0.6501
  170MOL   H11027488   3.452   5.835   2.325  0.4320 -0.5047 -0.9044
  170MOL   H11127489   3.487   5.982   2.416 -1.4289 -0.6750 -1.7755
  170MOL   H11227490   3.438   5.905   2.628 -0.4884  0.6818 -0.7293
  170MOL   H11327491   3.468   5.739   2.592  0.4064  0.4723 -0.9765
  170MOL   C11427492   3.197   5.743   2.631  0.2310  0.3148  0.2872
  170MOL   C11527493   3.049   5.774   2.608 -0.6013  1.0017 -0.6854
  170MOL   C11627494   2.968   5.771   2.733  0.1222 -0.3414 -0.3558
  170MOL   O11727495   3.018   5.797   2.843 -0.6432  0.6376 -0.6635
  170MOL   H11827496   3.240   5.761   2.730 -1.0946 -3.0634  1.5501
  170MOL   H11927497   3.216   5.638   2.610  0.3186  0.3818  0.0269
  170MOL   H12027498   2.999   5.705   2.541 -0.3988  0.7446 -0.5755
  170MOL   H12127499   3.038   5.875   2.570  0.7023  0.1426 -3.4487
  170MOL   C12227500   2.825   5.726   2.720 -0.0193 -0.1841  0.2433
  170MOL   C12327501   2.743   5.829   2.788 -0.0260  0.4841  0.3158
  170MOL   C12427502   2.709   5.955   2.700  0.8543  0.1120 -0.0004
  170MOL   O12527503   2.784   5.991   2.613 -0.4820  0.3595  0.6873
  170MOL   H12627504   2.808   5.631   2.771 -1.6435 -1.2984 -2.3211
  170MOL   H12727505   2.798   5.716   2.615  0.1950 -0.9557  0.2552
  170MOL   H12827506   2.785   5.863   2.883 -1.2040 -0.0513  1.0363
  170MOL   H12927507   2.652   5.774   2.814  0.4377 -0.5251 -0.1808
  170MOL   C13027508   2.569   6.001   2.722  0.1889  0.1545 -0.2952
  170MOL   C13127509   2.542   6.144   2.678 -0.0433 -0.8634 -0.8265
  170MOL   C13227510   2.447   6.157   2.557  0.0067 -0.1916  0.3002
  170MOL   O13327511   2.490   6.147   2.443 -0.1986  0.5228 -0.1871
  170MOL   H13427512   2.548   5.983   2.827  1.6045 -0.9793 -0.1873
  170MOL   H13527513   2.494   5.936   2.675 -0.4383  0.2325  0.5838
  170MOL   H13627514   2.635   6.196   2.653  0.0673 -1.7725 -2.3963
  170MOL   H13727515   2.496   6.201   2.759 -0.5617 -2.3587 -0.0568
  170MOL   C13827516   2.298   6.185   2.578 -0.5939  0.3595 -0.5275
  170MOL   C13927517   2.246   6.307   2.507 -0.1684 -0.5309  0.1474
  170MOL   C14027518   2.108   6.276   2.448 -0.2430  0.3219 -1.2129
  170MOL   O14127519   2.089   6.252   2.330  0.0644 -0.3887 -0.1728
  170MOL   H14227520   2.273   6.203   2.683 -1.8656  2.1214 -1.1058
  170MOL   H14327521   2.252   6.091   2.548  2.5202 -0.7855 -1.8949
  170MOL   H14427522   2.296   6.343   2.417 -0.7519 -0.2593 -0.0740
  170MOL   H14527523   2.246   6.395   2.572 -0.2727  0.6598 -1.4295
  170MOL   C14627524   1.995   6.285   2.555 -0.5435  0.1738  1.4103
  170MOL   C14727525   1.860   6.327   2.480  0.0023 -0.1098  0.1544
  170MOL   C14827526   1.726   6.272   2.534 -0.3862 -0.6026  0.1374
  170MOL   O14927527   1.715   6.206   2.640 -0.3847 -0.1079 -0.3866
  170MOL   H15027528   2.010   6.358   2.634  1.2327  1.5615 -0.1520
  170MOL   H15127529   1.984   6.187   2.601  1.1832  0.0401  1.5682
  170MOL   H15227530   1.859   6.293   2.377  0.4460 -1.3232  0.5438
  170MOL   H15327531   1.851   6.435   2.469 -0.0236 -0.2406 -1.1734
  170MOL   C15427532   1.608   6.289   2.438 -0.0532 -0.1660  0.3012
  170MOL   C15527533   1.480   6.206   2.477  0.2939 -0.1459  0.1401
  170MOL   C15627534   1.398   6.286   2.579 -0.4040 -0.3634 -0.2418
  170MOL   O15727535   1.450   6.355   2.668 -0.2101 -0.0409  0.3699
  170MOL   H15827536   1.646   6.253   2.343 -1.4677  1.2248 -0.8002
  170MOL   H15927537   1.579   6.392   2.419 -1.6741 -0.5061  0.8765
  170MOL   H16027538   1.513   6.112   2.522  2.0451  0.1127 -0.5633
  170MOL   H16127539   1.425   6.174   2.388  2.3190 -0.7327 -0.9414
  170MOL   H16227540   1.290   6.271   2.582 -0.3783 -0.4461  0.4107
  171MOL     C127541   2.854   1.682   2.003 -0.2600 -0.1999  0.1483
  171MOL     C227542   2.877   1.534   1.978  0.4726  0.1875 -0.8134
  171MOL     C327543   2.945   1.500   1.845  0.1468  0.7102 -0.1267
  171MOL     O427544   2.938   1.567   1.744  1.1632  0.1591  0.2331
  171MOL     H527545   2.800   1.713   1.913  0.0720 -0.2931 -0.0858
  171MOL     H627546   2.788   1.694   2.089  1.0037 -2.0935  1.4013
  171MOL     H727547   2.783   1.479   1.977  0.4747  0.1833 -2.5996
  171MOL     H827548   2.935   1.500   2.064  0.6644 -1.4472 -1.5542
  171MOL     H927549   2.941   1.747   2.012  0.2542 -0.7840 -0.5400
  171MOL    C1027550   3.053   1.387   1.839  0.3536 -0.0943 -0.1512
  171MOL    C1127551   2.997   1.269   1.759  0.1774  0.1315 -0.8682
  171MOL    C1227552   2.920   1.164   1.838  0.4664 -0.2090  0.0993
  171MOL    O1327553   2.903   1.165   1.959 -0.5377 -0.2989 -0.1269
  171MOL    H1427554   3.081   1.352   1.939  3.2653 -2.0922 -1.6112
  171MOL    H1527555   3.145   1.425   1.795  0.4814  0.3184  0.4606
  171MOL    H1627556   3.080   1.225   1.703 -1.3663  1.9774 -4.7766
  171MOL    H1727557   2.933   1.311   1.682 -0.7777  0.5668  0.1507
  171MOL    C1827558   2.840   1.060   1.762  0.3512 -0.2650  0.0574
  171MOL    C1927559   2.925   0.935   1.764  0.3130  0.7300 -0.3421
  171MOL    C2027560   2.876   0.815   1.843  0.5739  0.0696 -0.1129
  171MOL    O2127561   2.787   0.827   1.926  0.0212  0.0166  0.0415
  171MOL    H2227562   2.818   1.098   1.662  0.8227  1.3091  0.5265
  171MOL    H2327563   2.741   1.047   1.806 -1.0755  0.5054 -2.8371
  171MOL    H2427564   3.029   0.958   1.788  1.1678 -2.1001 -1.1485
  171MOL    H2527565   2.913   0.898   1.662 -3.2665 -0.8462  0.5625
  171MOL    C2627566   2.948   0.684   1.808 -0.3291  0.2112 -0.6564
  171MOL    C2727567   3.088   0.671   1.854 -0.1746  0.5470  1.4193
  171MOL    C2827568   3.122   0.551   1.938 -0.9117 -0.0484  0.0984
  171MOL    O2927569   3.049   0.450   1.932 -0.1020 -0.3789  0.3889
  171MOL    H3027570   2.942   0.665   1.700  1.9100 -0.8955 -0.6219
  171MOL    H3127571   2.894   0.599   1.850  2.3159 -0.9078  0.5674
  171MOL    H3227572   3.123   0.765   1.896  0.7223 -0.0616  2.0480
  171MOL    H3327573   3.155   0.663   1.768  1.9997  0.2803  3.0889
  171MOL    C3427574   3.239   0.562   2.034 -0.5274  0.6545  0.2256
  171MOL    C3527575   3.264   0.424   2.121  0.1518 -0.8049 -0.1795
  171MOL    C3627576   3.340   0.458   2.253  0.9368 -0.3691  0.2997
  171MOL    O3727577   3.416   0.552   2.256  0.2776 -0.5187 -0.2154
  171MOL    H3827578   3.230   0.647   2.102 -1.5489 -0.4535  1.5354
  171MOL    H3927579   3.320   0.572   1.963 -0.4297 -0.2831  0.1971
  171MOL    H4027580   3.318   0.350   2.063  0.1246  0.4285 -1.8079
  171MOL    H4127581   3.170   0.381   2.154  0.1262  0.5638  1.6392
  171MOL    C4227582   3.325   0.358   2.371  0.6272 -0.5969  0.0783
  171MOL    C4327583   3.440   0.371   2.475  0.3995 -0.1939  0.7614
  171MOL    C4427584   3.391   0.440   2.601 -0.1914 -0.3472  0.2669
  171MOL    O4527585   3.330   0.381   2.692 -0.2612 -0.9327  0.0485
  171MOL    H4627586   3.336   0.260   2.324 -1.2192 -0.6375 -0.3267
  171MOL    H4727587   3.236   0.366   2.434 -0.2352 -0.1752 -1.1696
  171MOL    H4827588   3.523   0.428   2.434  0.6871 -0.9039  0.3503
  171MOL    H4927589   3.494   0.279   2.498  2.8583  0.4200 -2.2022
  171MOL    C5027590   3.416   0.589   2.605 -0.8262  1.4695 -0.5450
  171MOL    C5127591   3.342   0.659   2.722 -0.0137  1.0393  0.1298
  171MOL    C5227592   3.192   0.686   2.689 -0.5933 -0.2533  0.0847
  171MOL    O5327593   3.152   0.658   2.577  0.2239 -0.6929  0.1704
  171MOL    H5427594   3.380   0.629   2.510  0.3605  1.5201 -0.9811
  171MOL    H5527595   3.525   0.600   2.605 -0.6467 -0.0714 -0.0104
  171MOL    H5627596   3.396   0.752   2.739 -0.3488  1.4950 -1.2219
  171MOL    H5727597   3.367   0.602   2.811  0.4676  0.0811 -0.6054
  171MOL    C5827598   3.099   0.743   2.798 -0.5487 -0.2753  0.2970
  171MOL    C5927599   2.960   0.664   2.815 -0.4260 -0.2756 -0.5043
  171MOL    C6027600   2.835   0.759   2.813  0.3584  0.5126 -0.0417
  171MOL    O6127601   2.825   0.857   2.743 -0.5763  0.0392  0.1093
  171MOL    H6227602   3.071   0.839   2.756 -1.8722 -1.0412 -0.6206
  171MOL    H6327603   3.163   0.755   2.885  0.2394 -0.9829 -0.1733
  171MOL    H6427604   2.961   0.604   2.906  0.2140 -0.6603 -0.7603
  171MOL    H6527605   2.945   0.596   2.732 -0.7561  0.8492 -1.3783
  171MOL    C6627606   2.716   0.711   2.906  0.3835 -0.2762 -0.0316
  171MOL    C6727607   2.603   0.809   2.929  0.4942 -0.6011 -0.2605
  171MOL    C6827608   2.639   0.948   2.981  0.2631 -0.5033 -0.1173
  171MOL    O6927609   2.601   1.052   2.928  0.1085  0.5111  0.4607
  171MOL    H7027610   2.742   0.694   3.010  2.3856  0.0604 -0.4531
  171MOL    H7127611   2.680   0.617   2.863 -0.3233 -0.6820  1.4241
  171MOL    H7227612   2.521   0.778   2.993 -0.1830  1.8190  0.1029
  171MOL    H7327613   2.547   0.824   2.837 -2.1503 -2.4291  0.9555
  171MOL    C7427614   2.730   0.953   3.101  0.9909  0.9366  0.2437
  171MOL    C7527615   2.784   1.095   3.121 -0.3083 -0.8677  0.2344
  171MOL    C7627616   2.903   1.122   3.031  0.8366  0.4322 -0.4846
  171MOL    O7727617   3.008   1.065   3.055  0.0215 -0.2485 -0.3435
  171MOL    H7827618   2.809   0.878   3.096  0.0163  0.0872 -3.6134
  171MOL    H7927619   2.677   0.927   3.193  0.1063  0.9699 -0.2509
  171MOL    H8027620   2.832   1.119   3.216  2.3640 -1.1115 -1.0155
  171MOL    H8127621   2.700   1.162   3.106  0.3211 -0.5592 -2.0661
  171MOL    C8227622   2.893   1.216   2.913 -0.8499 -0.0240 -0.1183
  171MOL    C8327623   2.971   1.163   2.791 -0.6032 -0.4472 -0.2236
  171MOL    C8427624   3.095   1.236   2.750  0.3038 -0.2861  0.1667
  171MOL    O8527625   3.090   1.340   2.688  0.1786 -0.0759 -0.3982
  171MOL    H8627626   2.927   1.316   2.940  2.1722 -1.0091 -0.0626
  171MOL    H8727627   2.786   1.211   2.894 -0.5072  0.3619 -2.3083
  171MOL    H8827628   2.907   1.186   2.706  0.2739  0.2003 -0.7137
  171MOL    H8927629   3.006   1.060   2.792 -0.1334 -0.2902 -0.3775
  171MOL    C9027630   3.229   1.172   2.800  0.1777 -0.4479 -0.1362
  171MOL    C9127631   3.338   1.176   2.692  0.2578 -1.0012 -0.7578
  171MOL    C9227632   3.339   1.051   2.607  0.1074  0.5698  0.4745
  171MOL    O9327633   3.418   0.966   2.635  0.1639  0.2873  0.1587
  171MOL    H9427634   3.203   1.076   2.844 -3.0717  0.1314 -0.6974
  171MOL    H9527635   3.264   1.225   2.888  1.3014 -1.1285 -0.1567
  171MOL    H9627636   3.439   1.182   2.733 -0.7762 -0.7598  1.8829
  171MOL    H9727637   3.336   1.272   2.641  1.8084 -0.0140  0.9673
  171MOL    C9827638   3.225   1.032   2.504 -0.5819 -0.2520 -0.1601
  171MOL    C9927639   3.277   0.969   2.372  0.8491 -0.5586 -0.4862
  171MOL   C10027640   3.291   1.079   2.257 -0.2191  0.7756 -0.0371
  171MOL   O10127641   3.315   1.190   2.288  0.8648  0.2222 -0.3504
  171MOL   H10227642   3.185   1.132   2.483  1.0063  0.3609 -0.3443
  171MOL   H10327643   3.141   0.980   2.551 -0.1620  0.9889  2.0131
  171MOL   H10427644   3.220   0.886   2.329 -0.8737  0.1177  0.4809
  171MOL   H10527645   3.379   0.932   2.387  0.3848 -1.4624  0.4756
  171MOL   C10627646   3.289   1.036   2.113 -0.0046  0.3703  0.8173
  171MOL   C10727647   3.228   1.137   2.009  0.2017  0.3285 -0.0591
  171MOL   C10827648   3.338   1.198   1.924  0.0763 -0.5359  0.1332
  171MOL   O10927649   3.339   1.188   1.806 -0.1742  0.6250  0.7473
  171MOL   H11027650   3.239   0.940   2.099  3.9001 -1.6863  0.1919
  171MOL   H11127651   3.388   1.017   2.071 -1.4110 -2.5605 -1.3547
  171MOL   H11227652   3.169   1.210   2.065  0.1639  0.3174 -0.0844
  171MOL   H11327653   3.158   1.092   1.939 -0.1244  1.5309 -0.5168
  171MOL   C11427654   3.441   1.292   1.995 -0.0198 -0.2531  0.2212
  171MOL   C11527655   3.510   1.392   1.896  0.4279 -0.2635  0.5157
  171MOL   C11627656   3.660   1.407   1.916  0.3616 -0.6027  1.0044
  171MOL   O11727657   3.723   1.310   1.954 -0.1085 -0.0508  1.0348
  171MOL   H11827658   3.509   1.236   2.060 -0.8989 -0.4994  0.9253
  171MOL   H11927659   3.376   1.351   2.058  0.9730  1.2587 -0.1414
  171MOL   H12027660   3.467   1.491   1.911 -1.9547 -1.2642  0.4267
  171MOL   H12127661   3.495   1.376   1.789 -0.6356  5.3431 -0.3453
  171MOL   C12227662   3.719   1.547   1.902 -0.2123  0.2686 -0.5173
  171MOL   C12327663   3.826   1.548   1.793  0.5647  0.1340  0.0999
  171MOL   C12427664   3.963   1.596   1.828 -0.2179  0.4227 -0.6224
  171MOL   O12527665   4.005   1.635   1.941  0.8938 -0.1491  0.0906
  171MOL   H12627666   3.757   1.585   1.997 -1.2532  0.2775 -0.0949
  171MOL   H12727667   3.639   1.620   1.887 -0.5705  0.0503  0.2866
  171MOL   H12827668   3.784   1.593   1.702 -1.1242 -0.3763  0.6059
  171MOL   H12927669   3.850   1.449   1.753 -0.6861 -0.0351 -0.2537
  171MOL   C13027670   4.062   1.593   1.715  0.0995 -0.1050 -0.2834
  171MOL   C13127671   4.068   1.733   1.648  0.2562 -0.0407 -0.5567
  171MOL   C13227672   3.992   1.742   1.516 -0.2461 -0.5174 -0.1660
  171MOL   O13327673   3.924   1.649   1.483 -0.4223  0.3394 -0.3554
  171MOL   H13427674   4.034   1.521   1.639 -0.4539 -0.8595  0.6304
  171MOL   H13527675   4.159   1.561   1.753  0.3234  0.2325 -0.5651
  171MOL   H13627676   4.171   1.753   1.619  0.3033  0.6202  0.0485
  171MOL   H13727677   4.036   1.804   1.725  1.2419 -2.3748  2.0837
  171MOL   C13827678   4.035   1.859   1.425  0.1869 -0.4656 -0.3947
  171MOL   C13927679   3.910   1.891   1.332 -0.2471 -0.9773  0.6507
  171MOL   C14027680   3.932   2.021   1.260  0.5699 -0.4725  0.1783
  171MOL   O14127681   3.949   2.030   1.139 -0.0336  0.2231 -0.4116
  171MOL   H14227682   4.126   1.827   1.374  0.3121  0.3368 -0.6827
  171MOL   H14327683   4.061   1.940   1.493 -1.6119 -2.5078  2.8530
  171MOL   H14427684   3.813   1.883   1.383 -0.7703  0.1344 -0.1509
  171MOL   H14527685   3.912   1.823   1.248 -1.3262  2.0626 -1.9243
  171MOL   C14627686   3.935   2.141   1.354  0.1220 -0.1495  0.7727
  171MOL   C14727687   3.945   2.282   1.284 -0.0014 -0.4855 -0.1250
  171MOL   C14827688   4.089   2.332   1.277  0.2731 -0.3124  0.3142
  171MOL   O14927689   4.181   2.264   1.325 -0.1856  0.6959  0.1252
  171MOL   H15027690   4.012   2.129   1.431  0.0745  1.1490  1.0357
  171MOL   H15127691   3.844   2.153   1.413 -1.3114  1.4633 -1.6949
  171MOL   H15227692   3.877   2.361   1.318  1.9349  1.1702 -0.0234
  171MOL   H15327693   3.913   2.262   1.182 -1.3832 -0.8059  0.3505
  171MOL   C15427694   4.109   2.469   1.238  0.2914  0.1593 -0.2020
  171MOL   C15527695   4.078   2.561   1.357  0.3634  0.0322 -0.3944
  171MOL   C15627696   4.057   2.702   1.315 -0.8440 -0.0576 -0.0933
  171MOL   O15727697   4.136   2.755   1.241  0.4643 -0.2821 -0.0455
  171MOL   H15827698   4.046   2.489   1.152  0.4986 -1.1749 -0.6755
  171MOL   H15927699   4.212   2.486   1.204  1.1699 -2.1191  1.1936
  171MOL   H16027700   4.165   2.559   1.423 -1.4728 -1.1175  2.0729
  171MOL   H16127701   3.988   2.537   1.414  0.5329 -2.2027 -1.0384
  171MOL   H16227702   3.979   2.764   1.358 -0.1813 -0.2807  1.4344
  172MOL     C127703   7.494   7.466   6.805 -0.0887  0.2990 -0.2995
  172MOL     C227704   7.506   7.363   6.695  0.0788 -0.3940 -0.1126
  172MOL     C327705   7.512   7.431   6.559 -0.4959 -0.7693  0.8969
  172MOL     O427706   7.481   7.548   6.542  0.1669 -1.3847  0.3152
  172MOL     H527707   7.554   7.552   6.777  2.0561 -1.7723 -2.2629
  172MOL     H627708   7.397   7.516   6.809 -0.1423  0.0976  1.2072
  172MOL     H727709   7.413   7.305   6.693 -0.9939  1.2585  0.7939
  172MOL     H827710   7.594   7.301   6.711  0.3912  0.4389  1.3751
  172MOL     H927711   7.512   7.423   6.903 -1.2284  2.1213  0.7475
  172MOL    C1027712   7.572   7.351   6.444  0.6406  0.1059 -0.7895
  172MOL    C1127713   7.476   7.250   6.382  0.1296  0.1233 -0.4243
  172MOL    C1227714   7.523   7.108   6.398 -0.7252 -0.2365 -0.3192
  172MOL    O1327715   7.621   7.071   6.461  0.2006  0.0286  0.4515
  172MOL    H1427716   7.656   7.296   6.487 -0.5677 -2.3434 -1.4410
  172MOL    H1527717   7.604   7.415   6.362  0.5748  0.7637 -0.3097
  172MOL    H1627718   7.443   7.275   6.281  1.0320  2.2899 -0.2033
  172MOL    H1727719   7.382   7.251   6.437 -0.6601  1.0751 -1.7613
  172MOL    C1827720   7.431   6.995   6.345 -0.3100 -0.0669 -0.1965
  172MOL    C1927721   7.481   6.918   6.219  0.0800 -0.5759  0.3962
  172MOL    C2027722   7.437   6.986   6.093  0.7580  0.3340 -0.2225
  172MOL    O2127723   7.418   7.108   6.093 -0.9348 -0.1794 -0.1262
  172MOL    H2227724   7.327   7.029   6.345 -1.1064 -2.3800 -1.0818
  172MOL    H2327725   7.430   6.920   6.424  0.2467  0.9390  0.7741
  172MOL    H2427726   7.436   6.820   6.231 -1.0779 -0.4672 -2.5685
  172MOL    H2527727   7.586   6.893   6.215 -0.1392 -1.3618 -0.6898
  172MOL    C2627728   7.434   6.897   5.968  0.0100  0.0762 -0.4122
  172MOL    C2727729   7.357   6.972   5.859 -0.7373 -0.1265 -0.2625
  172MOL    C2827730   7.234   6.896   5.809 -0.1860 -0.5718 -0.4918
  172MOL    O2927731   7.234   6.774   5.793 -0.2801 -0.1045  0.0537
  172MOL    H3027732   7.376   6.810   6.000 -0.5079  0.8244  0.7105
  172MOL    H3127733   7.533   6.869   5.932  0.2595 -0.9070  0.9876
  172MOL    H3227734   7.424   6.991   5.775 -1.0881  5.1351  0.4839
  172MOL    H3327735   7.328   7.074   5.885  0.0808  0.9324 -3.2440
  172MOL    C3427736   7.110   6.979   5.778 -0.8095  0.4719  0.5505
  172MOL    C3527737   7.052   6.956   5.632  0.1814  0.1441  0.7504
  172MOL    C3627738   7.074   7.069   5.531  0.0307  0.1065  0.1182
  172MOL    O3727739   7.078   7.186   5.575  0.1080 -0.4228 -0.2429
  172MOL    H3827740   7.140   7.082   5.798  2.4937 -0.5303  0.9461
  172MOL    H3927741   7.038   6.953   5.856 -1.2488  0.1505  0.0438
  172MOL    H4027742   6.944   6.943   5.632  0.1761  0.1804 -0.0672
  172MOL    H4127743   7.077   6.856   5.595 -0.5614 -0.0816  0.8509
  172MOL    C4227744   7.097   7.037   5.383 -0.0594  0.2623  0.2670
  172MOL    C4327745   7.022   7.129   5.282 -0.2155  0.2730 -0.6893
  172MOL    C4427746   6.905   7.077   5.201 -0.2089  0.5074  0.3248
  172MOL    O4527747   6.851   6.978   5.244 -0.1855  0.2578 -0.0945
  172MOL    H4627748   7.077   6.932   5.359  0.1507  0.4017 -0.5293
  172MOL    H4727749   7.201   7.047   5.354  0.0815 -3.2483 -0.7166
  172MOL    H4827750   7.094   7.184   5.222  1.5119 -1.1150  0.0562
  172MOL    H4927751   6.967   7.201   5.342  1.5203  0.7161  0.4093
  172MOL    C5027752   6.874   7.141   5.062 -0.0735  0.1157  0.0181
  172MOL    C5127753   6.840   7.034   4.951 -0.4324 -0.4494  0.1620
  172MOL    C5227754   6.735   7.094   4.855  0.2939  0.4958  0.5734
  172MOL    O5327755   6.657   7.181   4.887 -0.3221  0.2559 -0.6203
  172MOL    H5427756   6.965   7.197   5.038  1.1243 -1.4243  0.8488
  172MOL    H5527757   6.793   7.214   5.069 -0.6613 -0.3728 -1.7099
  172MOL    H5627758   6.804   6.935   4.977  2.6559 -1.9942 -1.1234
  172MOL    H5727759   6.936   7.015   4.903  0.0331  0.3318  0.7615
  172MOL    C5827760   6.735   7.054   4.710  0.3735 -0.0337 -0.5195
  172MOL    C5927761   6.594   7.025   4.652 -0.2806 -0.0145  0.0357
  172MOL    C6027762   6.534   7.135   4.570  0.4842  0.1300 -0.4979
  172MOL    O6127763   6.599   7.207   4.499  0.0292 -0.2672  0.2267
  172MOL    H6227764   6.798   6.966   4.699  1.4255  0.7800 -1.1307
  172MOL    H6327765   6.778   7.127   4.641 -0.6201  1.2992  0.2601
  172MOL    H6427766   6.534   6.994   4.737  0.2005 -1.5442 -0.1520
  172MOL    H6527767   6.597   6.929   4.601 -1.8534 -0.7082  1.1946
  172MOL    C6627768   6.385   7.163   4.594  0.6203  0.2857  0.2265
  172MOL    C6727769   6.344   7.295   4.534  0.2118  0.7657 -0.7250
  172MOL    C6827770   6.294   7.394   4.645 -0.0718  0.1991 -0.3864
  172MOL    O6927771   6.210   7.359   4.728 -0.1490  0.2255  0.1542
  172MOL    H7027772   6.357   7.170   4.699 -1.5936  3.5624 -0.4942
  172MOL    H7127773   6.318   7.089   4.549  0.8506 -0.5567  1.2437
  172MOL    H7227774   6.271   7.281   4.454  1.6717  1.6723 -2.2564
  172MOL    H7327775   6.415   7.353   4.476  0.3197 -0.6005 -1.9866
  172MOL    C7427776   6.353   7.532   4.647 -0.3683  0.4420  1.1350
  172MOL    C7527777   6.256   7.633   4.712 -0.0892 -0.2360  0.0396
  172MOL    C7627778   6.302   7.778   4.693  0.4684  0.4604 -0.1225
  172MOL    O7727779   6.414   7.811   4.661  0.2311 -0.0695 -0.2577
  172MOL    H7827780   6.368   7.556   4.541 -0.6782  0.9346  1.2015
  172MOL    H7927781   6.442   7.529   4.709 -0.9493  2.4819  2.0992
  172MOL    H8027782   6.246   7.613   4.819  0.1504  4.3314  1.0093
  172MOL    H8127783   6.157   7.616   4.669 -1.0488  0.6925  1.8276
  172MOL    C8227784   6.197   0.030   4.718 -0.5020 -0.1016 -0.2143
  172MOL    C8327785   6.253   0.168   4.689 -0.4228 -0.5388 -0.1768
  172MOL    C8427786   6.146   0.275   4.691  1.2301 -0.6046  0.1450
  172MOL    O8527787   6.071   0.293   4.788  0.0448 -0.2058  0.4278
  172MOL    H8627788   6.155   0.033   4.818  1.1676 -1.8005  0.5732
  172MOL    H8727789   6.111   0.015   4.653 -1.1418  0.2209  0.5465
  172MOL    H8827790   6.313   0.162   4.598  0.5322  0.8161  0.3396
  172MOL    H8927791   6.322   0.188   4.771 -1.9951  3.6487  0.2237
  172MOL    C9027792   6.107   0.350   4.560 -0.2754  0.3802  0.6325
  172MOL    C9127793   5.971   0.410   4.556  0.5099 -0.2153  1.1766
  172MOL    C9227794   5.882   0.342   4.451 -0.1298  0.9050 -0.5237
  172MOL    O9327795   5.886   0.370   4.331 -0.5399 -0.0406 -0.4660
  172MOL    H9427796   6.115   0.278   4.479  3.3959 -0.3776  1.5851
  172MOL    H9527797   6.183   0.426   4.545  2.6043 -2.4880  0.0207
  172MOL    H9627798   5.992   0.513   4.527  0.3609  0.1209  2.2142
  172MOL    H9727799   5.914   0.416   4.649 -0.9954 -0.4767  0.3036
  172MOL    C9827800   5.774   0.240   4.502 -0.0143  0.6356 -0.0875
  172MOL    C9927801   5.642   0.277   4.439 -0.0014  0.0934  0.9456
  172MOL   C10027802   5.549   0.331   4.549 -0.0932  1.0491  0.4838
  172MOL   O10127803   5.594   0.391   4.651  0.4430 -0.1194 -0.1191
  172MOL   H10227804   5.770   0.228   4.611 -3.5227 -0.0468 -0.2266
  172MOL   H10327805   5.810   0.151   4.451 -1.5113  0.2499 -0.5110
  172MOL   H10427806   5.602   0.193   4.382 -2.3565  2.1372 -0.4891
  172MOL   H10527807   5.646   0.352   4.360 -0.1054 -0.9240 -0.0383
  172MOL   C10627808   5.400   0.308   4.535 -0.3646  0.3992 -0.0380
  172MOL   C10727809   5.327   0.337   4.673  0.2757  0.6241 -0.6086
  172MOL   C10827810   5.203   0.417   4.652 -0.4275 -0.2225 -0.6817
  172MOL   O10927811   5.198   0.519   4.581 -0.3728 -0.4840 -0.7126
  172MOL   H11027812   5.389   0.203   4.508 -2.2965  0.9082 -1.3406
  172MOL   H11127813   5.367   0.375   4.455 -1.1322 -0.4439 -0.4383
  172MOL   H11227814   5.386   0.390   4.748 -2.8467  0.3051  2.1902
  172MOL   H11327815   5.303   0.254   4.740 -1.1420  0.5693 -1.1618
  172MOL   C11427816   5.081   0.370   4.723  0.3627 -0.0067 -0.0461
  172MOL   C11527817   5.068   0.429   4.864 -0.0378  0.8916 -0.3776
  172MOL   C11627818   4.924   0.470   4.896 -0.4218  0.3126 -0.2435
  172MOL   O11727819   4.845   0.387   4.928 -0.2216  0.2397 -0.5502
  172MOL   H11827820   5.094   0.263   4.734  0.2533  0.1763  2.2240
  172MOL   H11927821   4.988   0.385   4.667 -0.5533  0.7446  1.6319
  172MOL   H12027822   5.145   0.505   4.874  1.5486 -0.4528 -1.9164
  172MOL   H12127823   5.092   0.343   4.927  1.9079  1.8250  0.1928
  172MOL   C12227824   4.887   0.622   4.879  0.0087  0.4781  0.0904
  172MOL   C12327825   4.737   0.646   4.917  0.6949 -0.8476  0.5580
  172MOL   C12427826   4.713   0.699   5.054  0.0009  0.5130 -0.4342
  172MOL   O12527827   4.804   0.729   5.131  0.6838 -0.4471  0.9065
  172MOL   H12627828   4.924   0.652   4.782  0.1604 -0.7831 -0.2503
  172MOL   H12727829   4.951   0.667   4.955 -0.3526 -0.2210  0.8128
  172MOL   H12827830   4.683   0.557   4.887 -1.2210  0.5283 -0.2155
  172MOL   H12927831   4.687   0.721   4.855  2.6503  1.4451  1.6272
  172MOL   C13027832   4.567   0.703   5.114 -0.1260  0.1254 -0.3824
  172MOL   C13127833   4.540   0.836   5.189  0.0977  0.0904 -0.0429
  172MOL   C13227834   4.417   0.907   5.129 -0.3737  0.0627 -0.5433
  172MOL   O13327835   4.328   0.842   5.071  0.2408  0.3207 -0.5837
  172MOL   H13427836   4.563   0.629   5.193  1.8591  1.2168  0.7969
  172MOL   H13527837   4.486   0.676   5.047 -1.1974  0.6320  0.7063
  172MOL   H13627838   4.624   0.905   5.181  0.5224 -0.4247 -0.0583
  172MOL   H13727839   4.526   0.820   5.296  1.0819  3.4039  0.6353
  172MOL   C13827840   4.405   1.056   5.157 -0.2422  0.4491 -0.0821
  172MOL   C13927841   4.305   1.121   5.065 -0.9058 -0.0378 -0.3965
  172MOL   C14027842   4.353   1.256   5.010  0.0318 -0.9052 -0.4882
  172MOL   O14127843   4.448   1.321   5.068  0.3804  0.6686 -0.0002
  172MOL   H14227844   4.504   1.101   5.147 -1.3657  2.7844 -1.1908
  172MOL   H14327845   4.364   1.071   5.257 -3.2109  0.6030 -1.2753
  172MOL   H14427846   4.213   1.144   5.119 -1.6860 -6.9200  1.6560
  172MOL   H14527847   4.283   1.060   4.977  1.8450 -0.2145 -0.9829
  172MOL   C14627848   4.279   1.320   4.887 -0.1940 -0.4453  0.0254
  172MOL   C14727849   4.326   1.471   4.860 -0.5895 -0.1848  0.1449
  172MOL   C14827850   4.406   1.505   4.734 -0.3604 -0.2099 -0.3056
  172MOL   O14927851   4.427   1.416   4.654  0.0304  0.5776 -0.1756
  172MOL   H15027852   4.170   1.309   4.891 -0.3523 -1.7977 -4.5910
  172MOL   H15127853   4.311   1.261   4.801  3.8128  0.8436  0.5633
  172MOL   H15227854   4.376   1.516   4.947 -0.2357 -0.3134  0.0105
  172MOL   H15327855   4.234   1.529   4.858 -1.8082 -2.1642 -2.4472
  172MOL   C15427856   4.466   1.647   4.728 -0.8549 -0.7823 -0.3072
  172MOL   C15527857   4.532   1.672   4.593 -0.3463 -0.7847 -0.0829
  172MOL   C15627858   4.512   1.814   4.544 -0.0059  0.2118  0.1428
  172MOL   O15727859   4.554   1.912   4.606 -0.2094  0.8345  0.4498
  172MOL   H15827860   4.533   1.659   4.814 -0.3649  2.6538 -1.0643
  172MOL   H15927861   4.383   1.715   4.748  0.4604  0.2611  1.9416
  172MOL   H16027862   4.484   1.614   4.515 -1.1876 -0.5747  0.2761
  172MOL   H16127863   4.641   1.666   4.593 -0.2100  0.8525 -2.5108
  172MOL   H16227864   4.470   1.827   4.444 -0.2654 -0.7758  0.1133
  173MOL     C127865   5.984   0.927   4.278  0.1205  0.3501 -0.6333
  173MOL     C227866   6.031   0.777   4.290  0.5365  0.2453 -0.1554
  173MOL     C327867   6.176   0.758   4.251  0.3423 -0.3656  0.5349
  173MOL     O427868   6.242   0.855   4.215  0.1101 -0.0462 -0.5000
  173MOL     H527869   5.956   0.958   4.178 -0.0037  2.6602  0.0950
  173MOL     H627870   5.904   0.941   4.351  1.4593 -1.2238  1.1864
  173MOL     H727871   5.964   0.710   4.236  0.6149  0.9897 -1.1888
  173MOL     H827872   6.031   0.740   4.392  0.8626 -0.9258 -0.5609
  173MOL     H927873   6.063   0.996   4.308  0.3789  1.7952 -4.4396
  173MOL    C1027874   6.239   0.620   4.255 -0.6404 -0.1079  0.3937
  173MOL    C1127875   6.373   0.605   4.197 -0.7009 -0.5167 -0.4348
  173MOL    C1227876   6.454   0.472   4.233  0.9562 -0.0545 -0.4032
  173MOL    O1327877   6.404   0.381   4.301  0.4866  0.4536 -0.3121
  173MOL    H1427878   6.173   0.554   4.198 -1.7004  0.2647  1.1669
  173MOL    H1527879   6.235   0.587   4.359 -2.1965  0.8052  0.6322
  173MOL    H1627880   6.441   0.690   4.194  0.2733 -1.1999  1.2347
  173MOL    H1727881   6.346   0.592   4.092 -0.2748  0.5590 -0.6810
  173MOL    C1827882   6.601   0.477   4.190 -0.4310 -0.4677  1.4301
  173MOL    C1927883   6.682   0.399   4.286  0.9369  0.6157  0.3231
  173MOL    C2027884   6.826   0.437   4.279  0.2935  0.4002 -0.1624
  173MOL    O2127885   6.871   0.488   4.177  0.1540  0.3095 -0.1411
  173MOL    H2227886   6.637   0.580   4.199  2.4670 -1.1295 -1.7941
  173MOL    H2327887   6.631   0.447   4.090  0.3880  1.3819  1.0997
  173MOL    H2427888   6.670   0.294   4.259 -0.2388  1.2262 -1.6133
  173MOL    H2527889   6.637   0.425   4.382 -0.1882  1.2762 -0.3748
  173MOL    C2627890   6.922   0.405   4.384 -0.4075  0.8072  0.0493
  173MOL    C2727891   7.050   0.499   4.367 -0.3709 -0.2931 -0.3062
  173MOL    C2827892   7.027   0.629   4.447 -0.1186  0.2749  1.0670
  173MOL    O2927893   6.915   0.656   4.482 -0.4674 -0.1294  0.2313
  173MOL    H3027894   6.954   0.301   4.382  0.0291  0.9519 -3.1535
  173MOL    H3127895   6.866   0.428   4.475 -0.2423  0.8798  0.1334
  173MOL    H3227896   7.075   0.525   4.264 -1.8439  0.2475 -0.5417
  173MOL    H3327897   7.136   0.461   4.422 -1.1501  1.8159  2.4508
  173MOL    C3427898   7.148   0.720   4.473  0.1237  0.3369 -0.2477
  173MOL    C3527899   7.107   0.873   4.487  0.1754  0.5758  0.0058
  173MOL    C3627900   7.130   0.934   4.619  0.5942 -0.4559  0.1261
  173MOL    O3727901   7.209   1.028   4.639  0.6772 -0.5911  0.0020
  173MOL    H3827902   7.221   0.691   4.398  2.3471 -0.0223  1.9995
  173MOL    H3927903   7.199   0.677   4.559  1.1315  0.3748 -0.8190
  173MOL    H4027904   7.005   0.899   4.461 -0.5446 -3.2131 -1.3434
  173MOL    H4127905   7.177   0.920   4.417  0.8037 -0.6841 -0.2325
  173MOL    C4227906   7.041   0.876   4.725  0.6181  0.0098 -0.4623
  173MOL    C4327907   6.993   0.976   4.835  0.7940  0.0694  0.8621
  173MOL    C4427908   6.851   1.029   4.820 -0.0974  0.9749 -0.2772
  173MOL    O4527909   6.799   1.051   4.712  0.0081  0.1961  0.5067
  173MOL    H4627910   7.090   0.789   4.768  2.3539  0.9325 -0.5443
  173MOL    H4727911   6.957   0.826   4.675 -1.2632 -0.1092  2.6730
  173MOL    H4827912   7.063   1.060   4.841 -0.2091  0.7961  2.7123
  173MOL    H4927913   6.991   0.930   4.934 -2.9028  1.5212  1.5152
  173MOL    C5027914   6.767   1.034   4.945 -0.1657  0.2289 -0.4343
  173MOL    C5127915   6.634   1.116   4.935  1.0409 -0.4111  0.9084
  173MOL    C5227916   6.638   1.253   5.006 -0.1147  0.8070 -0.2659
  173MOL    O5327917   6.635   1.250   5.130  0.4245  0.1357  0.2250
  173MOL    H5427918   6.827   1.067   5.030 -1.4682 -0.2458  0.7002
  173MOL    H5527919   6.734   0.933   4.968  2.3374 -0.8102 -1.2606
  173MOL    H5627920   6.552   1.065   4.985  0.0535  0.8750  0.6378
  173MOL    H5727921   6.604   1.140   4.834  1.0330 -2.2149  0.4649
  173MOL    C5827922   6.646   1.380   4.918 -0.3228  0.5109 -0.1647
  173MOL    C5927923   6.577   1.499   4.980  0.2164 -0.7802 -0.6761
  173MOL    C6027924   6.610   1.629   4.909  0.2120  0.1825  0.0877
  173MOL    O6127925   6.640   1.627   4.787  0.2782 -0.0929  0.1551
  173MOL    H6227926   6.594   1.357   4.825  0.2272  0.9811 -0.5987
  173MOL    H6327927   6.749   1.397   4.885  0.2229 -1.0903  0.6572
  173MOL    H6427928   6.622   1.501   5.079  1.8233  0.0033 -1.4141
  173MOL    H6527929   6.470   1.483   4.993  0.3910  0.5371  3.0627
  173MOL    C6627930   6.578   1.758   4.982  0.2217 -0.1601 -0.1143
  173MOL    C6727931   6.576   1.885   4.900 -0.0783 -0.4124  0.2857
  173MOL    C6827932   6.708   1.962   4.896 -0.2104 -0.2812  0.2399
  173MOL    O6927933   6.807   1.936   4.966 -0.0123 -0.1519 -0.5672
  173MOL    H7027934   6.642   1.767   5.070 -0.1377 -0.0604  0.1400
  173MOL    H7127935   6.483   1.749   5.034  0.7100  1.0224  1.0291
  173MOL    H7227936   6.513   1.971   4.924 -0.3714  0.1866 -2.4999
  173MOL    H7327937   6.561   1.865   4.794 -0.9573  1.4623  0.0280
  173MOL    C7427938   6.717   2.077   4.795 -0.1717  0.4166  0.0678
  173MOL    C7527939   6.844   2.158   4.817 -0.2489 -0.1815  0.0442
  173MOL    C7627940   6.902   2.216   4.687  0.3145 -1.0391  0.4222
  173MOL    O7727941   6.841   2.218   4.580  0.0735  0.1470 -0.0446
  173MOL    H7827942   6.629   2.139   4.816 -0.1461  0.4334  0.1237
  173MOL    H7927943   6.714   2.020   4.702  0.0227 -0.9363  0.8664
  173MOL    H8027944   6.923   2.088   4.846  0.8240  0.7704 -0.5215
  173MOL    H8127945   6.839   2.232   4.897  3.0112  1.2993 -1.0002
  173MOL    C8227946   7.035   2.290   4.713  0.1482  0.5449  0.0666
  173MOL    C8327947   7.053   2.415   4.638 -0.2400  0.1137 -0.1686
  173MOL    C8427948   7.194   2.438   4.591 -0.0960  0.1187 -0.1432
  173MOL    O8527949   7.231   2.407   4.479 -0.0373 -0.1899  0.3327
  173MOL    H8627950   7.122   2.232   4.685  1.3178  0.9057  2.7900
  173MOL    H8727951   7.029   2.310   4.820 -1.6613  2.6475 -0.3871
  173MOL    H8827952   7.028   2.497   4.706 -3.4048  1.6930 -3.1204
  173MOL    H8927953   6.981   2.428   4.557 -2.3686 -1.5933  1.4011
  173MOL    C9027954   7.277   2.524   4.685 -0.5516  0.4358  0.2057
  173MOL    C9127955   7.287   2.674   4.657  0.0209 -0.2779 -0.2469
  173MOL    C9227956   7.274   2.764   4.776  0.0354  0.2001  0.2720
  173MOL    O9327957   7.382   2.787   4.833  0.1556 -0.1845  0.3722
  173MOL    H9427958   7.375   2.476   4.675 -0.9418 -0.7199  1.7126
  173MOL    H9527959   7.250   2.495   4.786 -0.6066  1.0215  0.3594
  173MOL    H9627960   7.215   2.711   4.584 -0.4113 -0.4526  0.0860
  173MOL    H9727961   7.385   2.692   4.612 -0.3953  1.9653 -0.2799
  173MOL    C9827962   7.140   2.812   4.810 -0.3087  0.3868  0.5338
  173MOL    C9927963   7.130   2.920   4.920 -0.0387  0.1933 -0.0257
  173MOL   C10027964   7.005   3.000   4.893 -0.0001  0.2457  0.1609
  173MOL   O10127965   6.887   2.955   4.900  0.8391  0.1082 -0.1300
  173MOL   H10227966   7.082   2.728   4.849 -0.4136 -0.0685 -0.5754
  173MOL   H10327967   7.079   2.839   4.724 -1.9733 -0.5953  1.3821
  173MOL   H10427968   7.220   2.980   4.936  0.5308 -1.2636  2.4030
  173MOL   H10527969   7.107   2.869   5.013 -0.9718 -2.6967 -1.7730
  173MOL   C10627970   7.026   3.152   4.883  0.4854 -0.4174 -0.0694
  173MOL   C10727971   6.902   3.235   4.833 -0.4029 -0.2576  0.3126
  173MOL   C10827972   6.819   3.298   4.947  0.1973 -0.5228  0.4307
  173MOL   O10927973   6.861   3.297   5.063  0.6913  0.7241 -0.0166
  173MOL   H11027974   7.110   3.180   4.819 -0.7103  4.0910  0.2008
  173MOL   H11127975   7.063   3.175   4.982  2.1805  0.9884 -0.9996
  173MOL   H11227976   6.836   3.166   4.780 -0.3470 -1.0896  1.3170
  173MOL   H11327977   6.914   3.315   4.760 -1.0371  3.4867  4.0999
  173MOL   C11427978   6.697   3.380   4.902  0.1817 -0.3198 -0.2485
  173MOL   C11527979   6.602   3.419   5.025  1.0441  0.3746  0.5952
  173MOL   C11627980   6.454   3.426   4.976  0.0122 -0.2843  0.1432
  173MOL   O11727981   6.415   3.506   4.888  0.3181 -0.0688  0.7826
  173MOL   H11827982   6.645   3.322   4.826  0.4352  1.1220 -1.5398
  173MOL   H11927983   6.739   3.467   4.852  1.6673 -0.4301  0.7590
  173MOL   H12027984   6.626   3.513   5.077  1.9818  1.9016 -2.4711
  173MOL   H12127985   6.597   3.339   5.099 -0.2645  0.1220  0.2329
  173MOL   C12227986   6.351   3.341   5.048 -0.1040 -0.4990  0.4086
  173MOL   C12327987   6.265   3.268   4.951  0.3501 -0.0131  0.8649
  173MOL   C12427988   6.127   3.242   5.009  0.6729  0.6523  0.2133
  173MOL   O12527989   6.104   3.247   5.130  0.0464 -0.3191 -0.8094
  173MOL   H12627990   6.301   3.395   5.128  0.7865 -0.7666  1.1592
  173MOL   H12727991   6.405   3.266   5.107 -0.7284 -0.8624  0.5197
  173MOL   H12827992   6.310   3.180   4.904 -0.5037 -0.2043  0.4054
  173MOL   H12927993   6.245   3.336   4.868 -0.2267  1.0717  1.8849
  173MOL   C13027994   6.025   3.201   4.905  0.1102  0.4124 -0.1403
  173MOL   C13127995   5.895   3.161   4.972 -0.0940  0.3335 -0.0093
  173MOL   C13227996   5.911   3.018   5.024  0.7394  0.1652  0.5641
  173MOL   O13327997   5.995   2.936   4.987  0.2510 -0.0360 -0.2863
  173MOL   H13427998   6.058   3.134   4.826 -0.6731  1.2044 -1.1392
  173MOL   H13527999   6.004   3.298   4.861 -0.5705 -0.4534 -1.7482
  173MOL   H13628000   5.803   3.167   4.914 -2.5120  0.1102  3.6130
  173MOL   H13728001   5.884   3.232   5.054 -0.3654 -0.0692  0.3084
  173MOL   C13828002   5.801   2.985   5.121 -0.3756 -0.5765 -0.2579
  173MOL   C13928003   5.826   3.037   5.271  0.2848  0.2771  0.2008
  173MOL   C14028004   5.791   2.941   5.381 -0.1904 -0.1768  0.6894
  173MOL   O14128005   5.799   2.817   5.369  0.4699 -0.0470  0.2819
  173MOL   H14228006   5.798   2.876   5.121 -2.0085 -0.5634  1.6657
  173MOL   H14328007   5.700   3.003   5.083 -0.6436 -0.9317  0.2894
  173MOL   H14428008   5.781   3.134   5.289 -0.9002 -0.3797  0.8429
  173MOL   H14528009   5.934   3.043   5.284  0.0492  1.1216  1.8922
  173MOL   C14628010   5.757   3.003   5.519 -0.0302 -0.0407  0.1195
  173MOL   C14728011   5.755   2.892   5.631  0.0946  0.9640 -0.6053
  173MOL   C14828012   5.789   2.943   5.773  0.1950  0.3936  0.3520
  173MOL   O14928013   5.707   3.012   5.834  0.3629  0.2533 -0.9613
  173MOL   H15028014   5.657   3.045   5.518 -0.9757 -2.2204  0.0042
  173MOL   H15128015   5.830   3.081   5.539  0.4032 -0.4730  0.2334
  173MOL   H15228016   5.833   2.823   5.598 -1.2612 -0.1018 -1.6196
  173MOL   H15328017   5.661   2.837   5.630  2.1169 -2.6448 -1.2596
  173MOL   C15428018   5.925   2.911   5.823  0.0143 -0.2688  0.1113
  173MOL   C15528019   5.983   3.009   5.930 -0.1744 -0.1920  0.5654
  173MOL   C15628020   6.114   2.960   5.991 -0.4841 -0.5371  0.6678
  173MOL   O15728021   6.177   2.874   5.922  0.2622  0.1687  0.4090
  173MOL   H15828022   5.995   2.907   5.740 -1.0552  1.2603 -0.8890
  173MOL   H15928023   5.933   2.810   5.863  0.2652 -0.2592  0.0850
  173MOL   H16028024   5.907   3.026   6.008  0.7797  1.0369  1.2485
  173MOL   H16128025   5.992   3.105   5.880 -1.0673 -0.4810 -0.1679
  173MOL   H16228026   6.148   3.012   6.081 -2.6257  3.8761 -0.9106
  174MOL     C128027   5.592   2.385   2.421  0.4962 -0.7019 -0.1602
  174MOL     C228028   5.618   2.240   2.385 -0.5419 -0.1088 -1.1161
  174MOL     C328029   5.493   2.177   2.325 -0.3070  0.8034  0.9562
  174MOL     O428030   5.440   2.081   2.376  0.5629  0.2410  0.2397
  174MOL     H528031   5.552   2.438   2.335  2.8167  2.0039  0.3314
  174MOL     H628032   5.522   2.407   2.502  1.6015 -1.4844  1.0415
  174MOL     H728033   5.645   2.183   2.475 -0.3199 -0.4438 -1.3935
  174MOL     H828034   5.703   2.234   2.317 -0.0910  0.7730 -0.6524
  174MOL     H928035   5.682   2.437   2.454 -0.7473  2.0305 -0.9353
  174MOL    C1028036   5.440   2.235   2.192 -0.2542  0.7564 -0.3767
  174MOL    C1128037   5.348   2.141   2.111 -0.1857 -0.3210 -0.4475
  174MOL    C1228038   5.335   2.180   1.963 -0.4470 -0.0807 -0.3656
  174MOL    O1328039   5.306   2.098   1.873  0.2374 -0.6137 -0.5302
  174MOL    H1428040   5.522   2.243   2.120 -0.8696  1.0477 -1.0450
  174MOL    H1528041   5.403   2.334   2.216  0.1918  0.4243  1.8335
  174MOL    H1628042   5.253   2.127   2.161  0.0393  2.4765  0.8566
  174MOL    H1728043   5.411   2.052   2.108 -1.0234 -0.9282 -0.0265
  174MOL    C1828044   5.362   2.328   1.921  0.5026  0.4046  0.1274
  174MOL    C1928045   5.321   2.371   1.779  0.0191 -0.2665 -0.0712
  174MOL    C2028046   5.198   2.464   1.778  0.2297 -0.3079  0.0110
  174MOL    O2128047   5.117   2.459   1.871 -1.1835 -0.4231  0.3206
  174MOL    H2228048   5.470   2.332   1.937  0.5741  1.1362 -0.5204
  174MOL    H2328049   5.337   2.386   2.009  1.5932 -0.4363  1.0178
  174MOL    H2428050   5.306   2.280   1.722 -2.9813 -1.2750  2.1843
  174MOL    H2528051   5.406   2.417   1.729  0.2495 -0.7032 -0.0826
  174MOL    C2628052   5.179   2.550   1.657  0.9642 -0.7508  0.4544
  174MOL    C2728053   5.076   2.665   1.675 -0.1828 -0.5707  0.0246
  174MOL    C2828054   4.951   2.627   1.597 -0.2056 -0.4812  0.0997
  174MOL    O2928055   4.963   2.594   1.482  0.4717 -0.1660 -0.4896
  174MOL    H3028056   5.156   2.478   1.578  1.2732  0.0354 -0.3632
  174MOL    H3128057   5.271   2.594   1.621 -0.4137  1.5092 -0.4186
  174MOL    H3228058   5.109   2.758   1.628  1.3030 -1.1386 -0.0860
  174MOL    H3328059   5.042   2.675   1.778  1.1911 -0.4974  0.4761
  174MOL    C3428060   4.814   2.662   1.659  0.6401  0.1303 -0.1670
  174MOL    C3528061   4.704   2.675   1.548  0.1616  0.4073  0.1178
  174MOL    C3628062   4.588   2.772   1.592  0.1604 -0.4485 -0.1681
  174MOL    O3728063   4.591   2.837   1.699  0.1036  0.3404 -0.6918
  174MOL    H3828064   4.830   2.757   1.709  2.0449  0.1303 -0.5930
  174MOL    H3928065   4.803   2.589   1.739  0.8064  1.0768  0.7330
  174MOL    H4028066   4.653   2.580   1.526 -0.5253  1.1463 -1.5243
  174MOL    H4128067   4.738   2.693   1.446  0.5111 -3.2886 -0.5144
  174MOL    C4228068   4.462   2.778   1.502  0.3005  0.2222 -0.1802
  174MOL    C4328069   4.337   2.819   1.582  1.1285  0.3875 -0.0063
  174MOL    C4428070   4.278   2.705   1.672 -0.9612  0.4065 -0.0107
  174MOL    O4528071   4.289   2.588   1.639  0.2965  0.3663 -0.0159
  174MOL    H4628072   4.461   2.677   1.462  3.5245 -0.7014  1.8839
  174MOL    H4728073   4.479   2.843   1.416 -2.3929 -1.1308 -1.7904
  174MOL    H4828074   4.252   2.845   1.519  0.9745  0.1559  0.1085
  174MOL    H4928075   4.352   2.910   1.640 -0.4865  2.3312 -2.5511
  174MOL    C5028076   4.190   2.748   1.789  0.2670 -0.3195  0.4377
  174MOL    C5128077   4.282   2.798   1.895 -0.0657  0.0200  0.8867
  174MOL    C5228078   4.207   2.813   2.025  0.5471 -0.3799 -0.2026
  174MOL    O5328079   4.107   2.889   2.025 -0.2902  0.6540  0.0727
  174MOL    H5428080   4.126   2.666   1.822  2.1281 -2.0993 -0.3026
  174MOL    H5528081   4.130   2.832   1.754  0.0971 -1.8808 -3.1707
  174MOL    H5628082   4.345   2.885   1.876  0.9017 -1.1563 -1.5503
  174MOL    H5728083   4.364   2.728   1.912  1.1802  1.1087 -0.4864
  174MOL    C5828084   4.264   2.741   2.148  0.3111  0.0173  0.4944
  174MOL    C5928085   4.159   2.663   2.227 -0.3459  0.3669 -0.1449
  174MOL    C6028086   4.146   2.512   2.184 -0.0803  0.1855 -0.5201
  174MOL    O6128087   4.191   2.467   2.081  0.1830 -0.1853 -0.3546
  174MOL    H6228088   4.295   2.820   2.216 -0.7263  1.8976 -1.1758
  174MOL    H6328089   4.350   2.681   2.118  2.2801  2.8436  0.3748
  174MOL    H6428090   4.062   2.712   2.217 -0.4945  0.2983  0.9379
  174MOL    H6528091   4.187   2.672   2.332 -0.7693  0.0546 -0.0024
  174MOL    C6628092   4.054   2.414   2.265 -0.0092 -0.1718  0.5844
  174MOL    C6728093   4.136   2.280   2.291 -0.0470 -0.2506 -0.1263
  174MOL    C6828094   4.192   2.251   2.423  0.0579 -0.6674  0.6073
  174MOL    O6928095   4.177   2.327   2.517  0.5041  0.2597 -0.6350
  174MOL    H7028096   3.965   2.389   2.207  0.4396 -0.9175  0.2112
  174MOL    H7128097   4.021   2.458   2.359 -0.5329  2.2707 -0.6901
  174MOL    H7228098   4.216   2.268   2.219 -0.5285  1.7839 -1.0262
  174MOL    H7328099   4.066   2.200   2.266 -0.5114  0.7241 -2.0453
  174MOL    C7428100   4.257   2.118   2.454  0.3333  0.3503  0.0991
  174MOL    C7528101   4.307   2.106   2.608  0.3689 -0.4599  0.9774
  174MOL    C7628102   4.203   2.027   2.685  0.1050  0.2687  0.0374
  174MOL    O7728103   4.085   2.014   2.643 -0.0874  0.1278  0.6990
  174MOL    H7828104   4.333   2.097   2.378  0.3060  1.1290 -0.1458
  174MOL    H7928105   4.175   2.047   2.438  1.6541 -1.4592  1.2270
  174MOL    H8028106   4.313   2.200   2.662  1.3702 -0.0992  0.2501
  174MOL    H8128107   4.406   2.062   2.603  0.5904  0.1839 -0.5711
  174MOL    C8228108   4.248   1.968   2.819  0.6192 -0.2139  0.4525
  174MOL    C8328109   4.152   1.865   2.880 -0.0888 -0.3502 -0.1517
  174MOL    C8428110   4.215   1.786   2.998 -0.2132 -0.2016 -0.5122
  174MOL    O8528111   4.339   1.777   3.002  0.5590 -0.0474 -0.6191
  174MOL    H8628112   4.267   2.050   2.888  3.7360 -0.7717  0.3462
  174MOL    H8728113   4.343   1.915   2.805 -0.5549 -2.2415  0.0197
  174MOL    H8828114   4.127   1.795   2.801 -0.0610  1.2403 -1.6039
  174MOL    H8928115   4.061   1.912   2.917 -0.2712 -2.2541  1.9521
  174MOL    C9028116   4.122   1.718   3.101 -0.3522 -0.1699  0.0552
  174MOL    C9128117   4.190   1.592   3.170 -0.6965  0.3305 -0.3478
  174MOL    C9228118   4.229   1.479   3.070 -0.3228  0.0502  0.2654
  174MOL    O9328119   4.156   1.461   2.968 -0.1933  0.2142 -0.4069
  174MOL    H9428120   4.029   1.686   3.054  1.0093 -3.8359 -0.2831
  174MOL    H9528121   4.090   1.794   3.172 -0.7937 -0.4455  0.1496
  174MOL    H9628122   4.123   1.555   3.247  0.0912  0.9616  0.6612
  174MOL    H9728123   4.282   1.617   3.224 -0.4849 -1.0747 -0.0406
  174MOL    C9828124   4.372   1.416   3.091 -0.2533 -0.3707  0.0212
  174MOL    C9928125   4.404   1.301   2.996  0.1030 -0.0372  0.2024
  174MOL   C10028126   4.489   1.187   3.052 -0.2850 -0.0843  0.5980
  174MOL   O10128127   4.491   1.160   3.173 -0.3012 -0.8081  0.2270
  174MOL   H10228128   4.363   1.387   3.195 -2.1322 -0.2674 -0.0964
  174MOL   H10328129   4.449   1.493   3.100  0.6828 -1.2840 -0.0811
  174MOL   H10428130   4.457   1.345   2.911  0.3786  0.5552  0.6756
  174MOL   H10528131   4.311   1.259   2.958 -2.0331  2.1569  2.8074
  174MOL   C10628132   4.559   1.103   2.947 -0.4618 -0.3821 -0.7580
  174MOL   C10728133   4.649   0.982   3.001 -0.7473  0.6775  0.4359
  174MOL   C10828134   4.564   0.855   3.034 -0.2812  0.3763 -0.2579
  174MOL   O10928135   4.439   0.858   3.029 -0.0103  0.6862  0.1994
  174MOL   H11028136   4.624   1.168   2.888 -0.4101 -0.5154 -0.8490
  174MOL   H11128137   4.489   1.063   2.873 -0.3812 -0.1808 -0.9439
  174MOL   H11228138   4.716   1.020   3.078  1.1094  2.0016 -1.7600
  174MOL   H11328139   4.706   0.948   2.914 -2.4327 -2.2502  0.3999
  174MOL   C11428140   4.629   0.726   3.085 -0.1433  0.1696 -0.2723
  174MOL   C11528141   4.585   0.705   3.227  0.0617  0.3060 -0.3923
  174MOL   C11628142   4.487   0.586   3.237  0.1605 -0.5144 -0.1963
  174MOL   O11728143   4.515   0.479   3.188  0.1759 -0.3184  0.4219
  174MOL   H11828144   4.737   0.744   3.076  0.1366 -1.3707 -0.1826
  174MOL   H11928145   4.601   0.644   3.019  0.3094 -0.3704  0.2090
  174MOL   H12028146   4.538   0.794   3.269  3.5114  1.6470  0.7996
  174MOL   H12128147   4.666   0.685   3.296  0.4138  2.4536 -0.1453
  174MOL   C12228148   4.373   0.599   3.320 -0.1342 -0.5369 -0.3915
  174MOL   C12328149   4.247   0.648   3.243 -0.2282  0.3252  0.1328
  174MOL   C12428150   4.123   0.640   3.341  0.1118  0.2728  0.4713
  174MOL   O12528151   4.136   0.626   3.463 -0.6263  0.9589  0.6057
  174MOL   H12628152   4.387   0.655   3.412  0.1589 -1.9070  0.4237
  174MOL   H12728153   4.354   0.496   3.351 -2.8008 -0.3169 -1.2097
  174MOL   H12828154   4.233   0.584   3.156 -0.1114 -0.3628  0.6151
  174MOL   H12928155   4.252   0.749   3.203 -1.0236  0.3511  0.0940
  174MOL   C13028156   3.985   0.658   3.282  0.0492  0.5548  0.5948
  174MOL   C13128157   3.874   0.674   3.390 -0.3100 -0.5042 -0.4730
  174MOL   C13228158   3.777   0.794   3.374 -0.0333  0.5418  0.1578
  174MOL   O13328159   3.783   0.869   3.274 -0.4936  0.0146  0.2334
  174MOL   H13428160   3.961   0.579   3.210  2.5265  0.7172 -0.4911
  174MOL   H13528161   3.991   0.747   3.220  2.8080 -0.2397 -0.3685
  174MOL   H13628162   3.922   0.686   3.487 -1.1864 -1.1313  0.0414
  174MOL   H13728163   3.816   0.582   3.389 -0.1342 -0.6411  0.7900
  174MOL   C13828164   3.672   0.821   3.485 -0.7816 -0.1348 -0.3584
  174MOL   C13928165   3.531   0.842   3.427  0.4905 -0.1148  0.0917
  174MOL   C14028166   3.450   0.954   3.490  0.0259  0.3503  0.5236
  174MOL   O14128167   3.414   1.046   3.410  0.4403  0.3537 -0.3470
  174MOL   H14228168   3.697   0.916   3.531 -0.8790  0.1264 -0.8454
  174MOL   H14328169   3.664   0.739   3.556  0.9321  0.1514  0.1912
  174MOL   H14428170   3.479   0.747   3.439 -0.3236  0.1756 -1.0050
  174MOL   H14528171   3.533   0.871   3.322  1.4787 -1.2633 -0.2182
  174MOL   C14628172   3.417   0.949   3.638  0.2266 -0.3486 -0.5850
  174MOL   C14728173   3.372   1.079   3.701  0.4262  0.9372  0.2793
  174MOL   C14828174   3.482   1.170   3.758 -0.3535 -0.7512  0.1703
  174MOL   O14928175   3.600   1.143   3.738 -0.0626  0.1072  0.3352
  174MOL   H15028176   3.494   0.894   3.691  0.5384 -0.7533 -1.4361
  174MOL   H15128177   3.333   0.879   3.647 -0.3112  0.0877 -1.9923
  174MOL   H15228178   3.316   1.041   3.786 -0.0849 -1.1979 -0.9917
  174MOL   H15328179   3.299   1.131   3.638  2.5504  1.7054 -1.6439
  174MOL   C15428180   3.438   1.291   3.842 -0.0333  0.1589 -0.1185
  174MOL   C15528181   3.557   1.390   3.855  0.3792 -0.2278  0.0129
  174MOL   C15628182   3.593   1.422   4.002 -0.0627  0.7324  0.2129
  174MOL   O15728183   3.541   1.365   4.096  0.2814 -0.3956 -0.1806
  174MOL   H15828184   3.406   1.247   3.937 -0.1675 -0.5513 -0.4899
  174MOL   H15928185   3.351   1.332   3.791  0.6819  0.6260 -0.9710
  174MOL   H16028186   3.507   1.479   3.816  0.5899  0.8591  2.1311
  174MOL   H16128187   3.644   1.373   3.791  0.7872  0.8548  0.2739
  174MOL   H16228188   3.676   1.490   4.021  0.3864 -0.3077  2.0325
  175MOL     C128189   7.116   5.778   7.158 -1.1782 -0.1205 -0.3268
  175MOL     C228190   7.136   5.750   7.309  0.2768  0.5891  0.0214
  175MOL     C328191   7.244   5.827   7.383  1.2843 -0.2569 -0.5786
  175MOL     O428192   7.353   5.836   7.335  0.1142 -0.4080 -0.0019
  175MOL     H528193   7.079   5.877   7.133  1.0801  0.7216 -0.3742
  175MOL     H628194   7.220   5.768   7.127 -1.4907 -1.3491 -1.0008
  175MOL     H728195   7.158   5.647   7.338  1.1426  1.0424  1.0148
  175MOL     H828196   7.046   5.772   7.365  0.5076 -1.4828  1.2404
  175MOL     H928197   7.055   5.701   7.111  0.6582 -1.4647 -0.5494
  175MOL    C1028198   7.210   5.888   7.517 -0.1561  0.0591 -0.2940
  175MOL    C1128199   7.326   5.864   7.618 -0.5560 -0.1186 -0.2281
  175MOL    C1228200   7.273   5.849   7.765 -1.1098  0.2130 -0.7564
  175MOL    O1328201   7.200   5.934   7.816  0.1207 -0.1786  0.3864
  175MOL    H1428202   7.117   5.844   7.554  0.2641 -0.0718  0.6379
  175MOL    H1528203   7.187   5.992   7.497 -2.2372  0.2404  2.7152
  175MOL    H1628204   7.404   5.939   7.617 -2.2084  1.6795  1.4777
  175MOL    H1728205   7.377   5.771   7.592  3.4060  2.3119 -1.6270
  175MOL    C1828206   7.308   5.717   7.845 -0.1452 -1.1861 -0.0924
  175MOL    C1928207   7.280   5.731   0.135  1.0158 -0.3310  0.0810
  175MOL    C2028208   7.393   5.790   0.215 -0.0978  0.6301 -0.6586
  175MOL    O2128209   7.511   5.752   0.201  0.5028  0.0076  0.7280
  175MOL    H2228210   7.416   5.703   7.836  0.1423  1.1092 -0.5522
  175MOL    H2328211   7.258   5.629   7.805 -1.0356  0.5102 -2.8417
  175MOL    H2428212   7.259   5.633   0.178 -2.7345  0.4723  0.2135
  175MOL    H2528213   7.189   5.786   0.156  1.2576  0.1280 -0.0787
  175MOL    C2628214   7.358   5.892   0.323  0.0975 -0.2810 -0.2473
  175MOL    C2728215   7.355   6.026   0.249  0.6625 -0.2214 -0.5601
  175MOL    C2828216   7.370   6.146   0.340  0.0364  0.0155  0.9920
  175MOL    O2928217   7.421   6.127   0.455 -0.2227 -0.1800  0.0217
  175MOL    H3028218   7.435   5.880   0.399 -0.8053 -0.0081  0.7235
  175MOL    H3128219   7.267   5.866   0.378  0.2641  3.3605  1.8926
  175MOL    H3228220   7.268   6.039   0.183 -0.0328 -0.1900  0.3501
  175MOL    H3328221   7.445   6.022   0.188 -0.5262 -1.5896 -2.2934
  175MOL    C3428222   7.342   6.284   0.287  0.2169 -0.3703 -0.4405
  175MOL    C3528223   7.470   6.366   0.250 -0.0379 -0.5068  0.3327
  175MOL    C3628224   7.508   6.363   0.107 -0.0886  0.0213 -0.1904
  175MOL    O3728225   7.435   6.414   0.017  0.0815  0.0878 -0.4907
  175MOL    H3828226   7.292   6.332   0.371 -0.1201 -1.2557 -0.1304
  175MOL    H3928227   7.263   6.284   0.211 -0.1252 -0.2347 -0.0890
  175MOL    H4028228   7.552   6.323   0.307 -0.0283  1.0560  1.5439
  175MOL    H4128229   7.455   6.473   0.264  1.2306 -0.1552 -0.8672
  175MOL    C4228230   7.644   6.296   0.079 -0.5235  0.0552  0.0520
  175MOL    C4328231   7.661   6.236   7.792  0.3399  0.7001 -0.3677
  175MOL    C4428232   7.612   6.096   7.774 -0.5502  0.3635  0.0362
  175MOL    O4528233   7.511   6.069   7.831  0.3802 -0.4493 -0.1609
  175MOL    H4628234   7.639   6.218   0.154  0.6810 -1.0048 -0.9645
  175MOL    H4728235   7.725   6.361   0.111 -0.1770 -1.5052  2.4681
  175MOL    H4828236   7.769   6.231   7.784  0.1899 -1.5046 -1.5270
  175MOL    H4928237   7.616   6.297   7.714  0.4156 -3.2635 -3.7091
  175MOL    C5028238   7.686   5.994   7.680 -0.0934 -0.3392 -0.0251
  175MOL    C5128239   7.661   5.841   7.720 -0.5519  0.3706  0.4449
  175MOL    C5228240   7.790   5.766   7.742 -0.0911  0.2202  0.1240
  175MOL    O5328241   0.038   5.797   7.691 -0.3850  0.1768  0.3470
  175MOL    H5428242   7.788   6.032   7.686  0.7790 -2.4387 -1.1124
  175MOL    H5528243   7.660   6.013   7.576 -1.8961  1.9100  0.7995
  175MOL    H5628244   7.612   5.786   7.639  0.3760 -0.3686  0.3856
  175MOL    H5728245   7.599   5.827   7.808 -0.4693 -0.8539  0.3202
  175MOL    C5828246   7.772   5.634   7.821 -0.2050  0.6692  0.1315
  175MOL    C5928247   0.038   5.545   7.822 -0.0641  0.4717  0.5350
  175MOL    C6028248   0.031   5.446   7.704 -0.0051 -0.4968 -0.2784
  175MOL    O6128249   7.817   5.348   7.708  0.2407  0.6225 -0.1580
  175MOL    H6228250   7.687   5.578   7.782  1.1293 -1.6699  0.4755
  175MOL    H6328251   7.749   5.660   0.065  2.0962  0.2841  0.7520
  175MOL    H6428252   0.043   5.483   0.052  1.5492 -0.9296 -0.5003
  175MOL    H6528253   0.130   5.602   7.809  1.4262 -1.5556  1.7460
  175MOL    C6628254   0.118   5.474   7.584  0.7610 -0.2547  0.3448
  175MOL    C6728255   0.127   5.358   7.479 -0.1694 -0.2968 -0.3409
  175MOL    C6828256   0.200   5.240   7.532 -0.0315 -0.3951 -0.3216
  175MOL    O6928257   0.308   5.264   7.592 -0.1014  0.7260  0.3734
  175MOL    H7028258   0.219   5.498   7.617  1.0942  1.8594 -2.0356
  175MOL    H7128259   0.083   5.560   7.527  1.7785  0.3994  0.6934
  175MOL    H7228260   0.175   5.395   7.388  0.0569 -0.8121 -0.4331
  175MOL    H7328261   0.025   5.329   7.454 -0.2333 -0.2621 -0.1172
  175MOL    C7428262   0.143   5.101   7.516 -1.0740  0.3762  0.0148
  175MOL    C7528263   0.250   4.995   7.506  0.2820  0.1486 -0.2801
  175MOL    C7628264   0.187   4.869   7.466  0.8882 -0.0964 -0.0773
  175MOL    O7728265   0.118   4.803   7.543  0.1448  0.2174 -0.3918
  175MOL    H7828266   0.087   5.102   7.423  0.8269 -0.0262 -1.1714
  175MOL    H7928267   0.074   5.082   7.598 -2.1577  0.6431 -0.8348
  175MOL    H8028268   0.281   4.981   7.610 -0.2828  1.3516  0.0585
  175MOL    H8128269   0.331   5.025   7.439 -0.6336  1.6433 -0.7525
  175MOL    C8228270   0.216   4.824   7.329 -0.5881  0.2853  0.9357
  175MOL    C8328271   0.105   4.728   7.274  0.3706 -0.1336  1.1013
  175MOL    C8428272   0.146   4.586   7.290 -0.0016 -0.0541 -0.2431
  175MOL    O8528273   0.252   4.543   7.240  0.0792 -0.4755  0.1073
  175MOL    H8628274   0.310   4.768   7.335 -0.5102  0.5747  2.7149
  175MOL    H8728275   0.234   4.915   7.272  0.5787 -0.5774 -0.0965
  175MOL    H8828276   0.094   4.746   7.167  1.1555  0.0135  1.0395
  175MOL    H8928277   0.008   4.753   7.318  0.9713  1.2988  1.6594
  175MOL    C9028278   0.054   4.495   7.374  0.1578  0.2541 -0.3074
  175MOL    C9128279   0.120   4.360   7.414  0.0861 -0.0447  0.0367
  175MOL    C9228280   0.043   4.239   7.373 -0.6686 -0.0449 -0.1230
  175MOL    O9328281   7.811   4.235   7.288  0.1593  0.0009 -0.0487
  175MOL    H9428282   7.821   4.486   7.317 -1.7755 -0.6563  2.7873
  175MOL    H9528283   0.019   4.556   7.457  0.1068  0.0190 -0.1554
  175MOL    H9628284   0.126   4.349   7.522 -0.0714 -0.0071  0.0485
  175MOL    H9728285   0.225   4.348   7.386 -0.0350 -0.0237 -0.4311
  175MOL    C9828286   0.111   4.115   7.436 -0.3890 -0.2749  0.4569
  175MOL    C9928287   0.030   3.997   7.433 -0.3059  0.0334 -0.6348
  175MOL   C10028288   0.015   3.923   7.299 -0.4650 -0.2200 -0.2503
  175MOL   O10128289   0.112   3.894   7.223 -0.2661 -0.2913 -0.5398
  175MOL   H10228290   0.122   4.148   7.539  1.1725  0.3242  0.1174
  175MOL   H10328291   0.209   4.093   7.391 -1.9091 -2.3435 -1.9833
  175MOL   H10428292   7.793   4.016   7.481  1.6119  1.7035  2.6813
  175MOL   H10528293   0.074   3.932   7.508 -1.9673  1.8772  2.0365
  175MOL   C10628294   7.731   3.903   7.246  0.0051 -0.0676  0.0508
  175MOL   C10728295   7.716   3.964   7.108  0.3063  0.9344  0.2452
  175MOL   C10828296   7.629   3.883   7.016 -0.1584 -0.1372 -0.4234
  175MOL   O10928297   7.538   3.811   7.050 -0.8574 -0.5672 -0.3908
  175MOL   H11028298   7.665   3.950   7.318  1.3959 -1.5082  2.3305
  175MOL   H11128299   7.720   3.796   7.231  1.2318 -0.0741 -0.8729
  175MOL   H11228300   7.808   3.990   7.056  0.2165  0.9399  0.0907
  175MOL   H11328301   7.665   4.059   7.129 -1.5952  0.0759 -0.4114
  175MOL   C11428302   7.666   3.908   6.870  0.2882  1.1093  0.5471
  175MOL   C11528303   7.611   3.794   6.781  0.3758 -0.7052  0.6635
  175MOL   C11628304   7.674   3.792   6.640 -0.0226  0.5882  0.4169
  175MOL   O11728305   7.758   3.877   6.604  0.4643  0.1177  0.0691
  175MOL   H11828306   7.775   3.898   6.867  0.2797  1.3922 -1.5769
  175MOL   H11928307   7.641   4.007   6.832  3.1317  1.3957 -0.6926
  175MOL   H12028308   7.506   3.823   6.770  1.2866  3.4068  1.9473
  175MOL   H12128309   7.615   3.693   6.822  2.6016 -0.4807  1.0437
  175MOL   C12228310   7.632   3.686   6.544  0.2656  0.2587  0.2403
  175MOL   C12328311   7.679   3.696   6.400  0.1509 -0.1876  0.0229
  175MOL   C12428312   7.577   3.642   6.300  0.3389 -0.0445  0.1830
  175MOL   O12528313   7.461   3.617   6.335  0.1460 -0.1514  0.3634
  175MOL   H12628314   7.524   3.696   6.549  0.3734  0.6274  2.2438
  175MOL   H12728315   7.654   3.585   6.578  1.6238  0.3737 -0.2347
  175MOL   H12828316   7.772   3.639   6.414  0.6232  0.5010 -0.3129
  175MOL   H12928317   7.696   3.800   6.373  0.7254 -0.8354 -2.1774
  175MOL   C13028318   7.621   3.636   6.153 -0.4694  0.3876  0.4416
  175MOL   C13128319   7.665   3.490   6.121  0.5247  0.2773  0.6644
  175MOL   C13228320   7.785   3.471   6.034 -0.0248 -0.1986 -0.1598
  175MOL   O13328321   7.828   3.564   5.970  0.4410 -0.3085  0.2692
  175MOL   H13428322   7.699   3.710   6.140 -0.1668  0.2528  1.5092
  175MOL   H13528323   7.538   3.670   6.090  1.2390  0.2826 -1.9504
  175MOL   H13628324   7.581   3.447   6.066 -0.7302 -0.0989  2.8271
  175MOL   H13728325   7.679   3.429   6.210  3.5190  0.0026  0.0598
  175MOL   C13828326   7.848   3.333   6.039  0.3257  0.0864  0.0113
  175MOL   C13928327   0.135   3.322   5.994 -0.2374  0.0988 -0.0429
  175MOL   C14028328   0.148   3.289   5.849 -0.6461  0.5059 -0.0360
  175MOL   O14128329   0.100   3.185   5.803  0.1467 -0.3130  0.6710
  175MOL   H14228330   7.791   3.260   5.982  2.0028 -2.5782  1.6102
  175MOL   H14328331   7.830   3.290   6.138 -0.1591 -0.6561 -0.3928
  175MOL   H14428332   0.195   3.260   6.060  0.1472  0.9534  0.4246
  175MOL   H14528333   0.185   3.417   6.014 -0.2159 -0.3222  1.9741
  175MOL   C14628334   0.217   3.391   5.762 -0.2415 -0.0626  0.0890
  175MOL   C14728335   0.134   3.430   5.640 -0.9108  0.1102 -0.6075
  175MOL   C14828336   0.199   3.551   5.577  0.7620 -0.5211  0.3453
  175MOL   O14928337   0.321   3.555   5.553  0.4164 -0.7799 -0.3197
  175MOL   H15028338   0.316   3.360   5.728  0.1424 -0.3167  1.4007
  175MOL   H15128339   0.241   3.483   5.815  3.0635  0.0315 -1.3880
  175MOL   H15228340   0.034   3.467   5.664 -0.4685 -0.6109  2.5564
  175MOL   H15328341   0.128   3.344   5.574 -0.0354 -0.0867 -0.4376
  175MOL   C15428342   0.106   3.658   5.535 -0.1813  0.0306  0.4262
  175MOL   C15528343   0.167   3.762   5.436  0.0445 -0.3130  0.1914
  175MOL   C15628344   0.160   3.731   5.288  0.1347  0.1613 -0.3643
  175MOL   O15728345   0.114   3.621   5.255 -0.2294 -0.2634  0.1051
  175MOL   H15828346   0.067   3.716   5.619  1.3070  1.2863  0.2715
  175MOL   H15928347   0.018   3.611   5.491 -0.5432 -1.6813  2.8366
  175MOL   H16028348   0.274   3.767   5.461 -0.6210 -1.3232  3.5369
  175MOL   H16128349   0.129   3.863   5.450  2.3382  0.4768  1.0283
  175MOL   H16228350   0.212   3.800   5.221 -0.3401  0.5078 -0.3765
  176MOL     C128351   1.191   7.474   2.010  0.2546 -0.3246 -0.2128
  176MOL     C228352   1.195   7.317   1.976 -0.0501  0.1864  0.1993
  176MOL     C328353   1.301   7.242   2.050 -0.4789  0.3972 -0.7754
  176MOL     O428354   1.354   7.291   2.156  0.6030  0.6621 -0.3878
  176MOL     H528355   1.099   7.516   1.967  0.0659  0.9490  1.3864
  176MOL     H628356   1.200   7.499   2.116  1.4815 -1.4805 -0.0389
  176MOL     H728357   1.222   7.290   1.874  1.0531  1.2446  0.1995
  176MOL     H828358   1.097   7.272   1.989 -0.1825 -0.3464 -2.4099
  176MOL     H928359   1.284   7.517   1.973  1.9101 -3.4363  0.1824
  176MOL    C1028360   1.322   7.092   2.018  0.2614 -0.2132 -0.3199
  176MOL    C1128361   1.445   7.026   2.079 -0.1289 -0.4536  0.2453
  176MOL    C1228362   1.493   6.906   2.001  0.7151 -0.7558 -0.0515
  176MOL    O1328363   1.445   6.876   1.892  0.0472 -0.1562  0.2600
  176MOL    H1428364   1.334   7.090   1.910  0.9399 -1.1326 -0.2344
  176MOL    H1528365   1.222   7.057   2.045  0.6831 -1.5128 -0.4135
  176MOL    H1628366   1.434   6.993   2.182  1.6222 -0.7074  0.3747
  176MOL    H1728367   1.529   7.094   2.067  0.8777 -1.7194 -0.0389
  176MOL    C1828368   1.609   6.829   2.062  0.3273  0.2631  1.0467
  176MOL    C1928369   1.632   6.697   1.991 -0.3531  0.5337  0.0290
  176MOL    C2028370   1.550   6.578   2.056 -0.4939 -0.5242 -1.0832
  176MOL    O2128371   1.461   6.602   2.133  0.2542 -0.1216  0.0901
  176MOL    H2228372   1.605   6.819   2.171  1.6255 -3.1490  0.8524
  176MOL    H2328373   1.697   6.885   2.031 -2.0158  2.0089 -2.7861
  176MOL    H2428374   1.738   6.672   1.991 -0.6538 -0.8235 -1.3947
  176MOL    H2528375   1.596   6.692   1.888 -2.4130 -0.3058  0.7549
  176MOL    C2628376   1.587   6.433   2.027  0.8486 -0.3287 -0.2554
  176MOL    C2728377   1.477   6.361   1.950  0.2118 -0.7152 -0.1181
  176MOL    C2828378   1.392   6.274   2.040 -1.0063 -0.7243  0.4404
  176MOL    O2928379   1.442   6.182   2.099  0.4515  0.1344  0.2215
  176MOL    H3028380   1.615   6.377   2.116  1.5813 -0.7461 -0.7465
  176MOL    H3128381   1.676   6.441   1.964  0.9848 -1.4663 -0.2061
  176MOL    H3228382   1.518   6.295   1.874  0.8985 -2.2699  1.5852
  176MOL    H3328383   1.410   6.424   1.890 -1.4869 -2.9407 -0.6212
  176MOL    C3428384   1.250   6.323   2.077  0.3393 -0.0252  0.6575
  176MOL    C3528385   1.212   6.331   2.231  0.1116 -1.0099  0.9741
  176MOL    C3628386   1.065   6.351   2.247  0.8145 -0.1395  0.3632
  176MOL    O3728387   1.003   6.446   2.201 -0.3808  0.0078 -0.1896
  176MOL    H3828388   1.193   6.241   2.035 -0.1300  1.0216 -0.7970
  176MOL    H3928389   1.228   6.419   2.029 -0.3460 -0.7894 -0.5581
  176MOL    H4028390   1.267   6.417   2.269 -1.1452  0.4616 -0.4263
  176MOL    H4128391   1.231   6.239   2.286 -1.5491 -1.2322  1.2082
  176MOL    C4228392   0.991   6.237   2.327 -0.2011  0.4600 -0.4690
  176MOL    C4328393   0.904   6.153   2.224  0.3015 -0.2402  0.0747
  176MOL    C4428394   0.972   6.016   2.205  0.4547 -0.0474  0.5598
  176MOL    O4528395   0.985   5.978   2.087  0.2409  0.5509 -0.7416
  176MOL    H4628396   0.924   6.290   2.395 -0.2387 -0.8546  0.5331
  176MOL    H4728397   1.063   6.179   2.385 -0.3012  0.0197 -0.7864
  176MOL    H4828398   0.903   6.191   2.122  0.2255  0.8621  0.4836
  176MOL    H4928399   0.802   6.153   2.262  0.5915 -0.8736  0.8791
  176MOL    C5028400   1.014   5.933   2.317  0.7021 -0.3841  0.6105
  176MOL    C5128401   1.133   5.846   2.286 -0.4130  0.2325 -0.0005
  176MOL    C5228402   1.256   5.884   2.367  1.1168 -0.9530 -0.0458
  176MOL    O5328403   1.252   5.988   2.433 -0.1995 -0.0745  0.1675
  176MOL    H5428404   0.926   5.869   2.328 -0.6021  1.0246 -1.3550
  176MOL    H5528405   1.014   5.986   2.413  1.7755  0.5404  0.1012
  176MOL    H5628406   1.157   5.843   2.180 -0.1099 -2.2438  0.1146
  176MOL    H5728407   1.110   5.742   2.307  0.0493 -0.1432 -1.3251
  176MOL    C5828408   1.381   5.803   2.372  0.1306 -0.0357 -0.7298
  176MOL    C5928409   1.455   5.818   2.236 -0.3727 -0.2819  0.7197
  176MOL    C6028410   1.580   5.896   2.245 -0.1041  0.3925  0.0467
  176MOL    O6128411   1.592   5.999   2.307 -0.2784 -0.5715 -0.3712
  176MOL    H6228412   1.356   5.699   2.396 -0.1298  0.2305  0.2006
  176MOL    H6328413   1.440   5.833   2.459  1.6805 -4.5532 -0.0963
  176MOL    H6428414   1.386   5.856   2.160  0.7479  0.5753  0.1191
  176MOL    H6528415   1.472   5.721   2.190 -3.2524 -0.1356 -0.7639
  176MOL    C6628416   1.702   5.832   2.176 -0.5498 -0.1572  0.2249
  176MOL    C6728417   1.826   5.924   2.169  0.3894  0.5323 -0.5561
  176MOL    C6828418   1.848   5.956   2.021  0.1647 -0.9727 -0.0731
  176MOL    O6928419   1.916   5.878   1.950 -0.0083 -0.0628 -0.0623
  176MOL    H7028420   1.680   5.792   2.077 -0.8142 -1.4595  0.8004
  176MOL    H7128421   1.744   5.749   2.232  1.8289  0.9286  0.1186
  176MOL    H7228422   1.914   5.883   2.218  0.4769 -0.4789 -1.5346
  176MOL    H7328423   1.804   6.019   2.217  2.4004  0.5604  0.3552
  176MOL    C7428424   1.774   6.077   1.962 -0.5765  0.2758  0.2717
  176MOL    C7528425   1.853   6.139   1.838  0.7543 -0.3077  0.1047
  176MOL    C7628426   1.944   6.253   1.883 -0.2674  0.1361 -0.3193
  176MOL    O7728427   1.961   6.281   2.001 -0.1937  0.6909  0.0363
  176MOL    H7828428   1.764   6.144   2.048 -3.0223  0.9312 -0.4928
  176MOL    H7928429   1.675   6.037   1.943 -0.9034  0.6598  1.1405
  176MOL    H8028430   1.771   6.177   1.778 -0.1268  0.0865  1.5487
  176MOL    H8128431   1.912   6.065   1.784  0.9640 -0.6378  0.7775
  176MOL    C8228432   2.023   6.331   1.784  0.1250  0.0260  0.7780
  176MOL    C8328433   2.080   6.472   1.818 -0.2878 -0.5720  0.4147
  176MOL    C8428434   1.984   6.587   1.789  0.4009 -0.8019 -0.6475
  176MOL    O8528435   1.864   6.566   1.805 -0.0074  0.1757 -0.3247
  176MOL    H8628436   1.980   6.329   1.683  3.3445 -0.7638 -0.6558
  176MOL    H8728437   2.116   6.276   1.771  2.4854  3.2797  3.0592
  176MOL    H8828438   2.176   6.492   1.769 -0.9345  0.3309 -0.4916
  176MOL    H8928439   2.117   6.475   1.920  0.6294  0.8975  0.0537
  176MOL    C9028440   2.050   6.725   1.770  0.4146  0.0209 -0.1027
  176MOL    C9128441   1.950   6.835   1.801 -0.2695  0.2318  0.0022
  176MOL    C9228442   1.856   6.875   1.687  0.2011 -0.2733  0.2319
  176MOL    O9328443   1.865   6.841   1.571 -0.0071  0.3616  0.3497
  176MOL    H9428444   2.087   6.730   1.668  0.1694  0.9032 -0.1520
  176MOL    H9528445   2.138   6.737   1.833  1.2526  1.1353 -1.4764
  176MOL    H9628446   2.014   6.919   1.827 -0.7047  0.2785  0.9526
  176MOL    H9728447   1.895   6.816   1.893 -0.5264  1.9241  0.2212
  176MOL    C9828448   1.735   6.957   1.727  0.5800 -0.3730  0.3840
  176MOL    C9928449   1.641   7.009   1.610  0.0448 -0.3720 -0.0237
  176MOL   C10028450   1.707   7.112   1.515  0.4401 -0.9756  0.6663
  176MOL   O10128451   1.796   7.184   1.560 -0.3892  0.2077  0.1225
  176MOL   H10228452   1.775   7.039   1.788  1.2227 -0.3588 -0.0577
  176MOL   H10328453   1.681   6.890   1.795 -1.3454  0.6806 -0.0663
  176MOL   H10428454   1.560   7.061   1.662 -0.0570 -0.6672  0.1190
  176MOL   H10528455   1.599   6.927   1.551 -1.3877  0.6141 -0.3880
  176MOL   C10628456   1.664   7.120   1.365 -0.2974  0.0197 -0.2586
  176MOL   C10728457   1.767   7.197   1.286 -0.6932 -0.2462  0.3687
  176MOL   C10828458   1.729   7.210   1.141  0.2132  0.2762 -0.0662
  176MOL   O10928459   1.666   7.121   1.084  0.7485 -0.9086  0.1172
  176MOL   H11028460   1.568   7.172   1.367  0.5354  1.5801 -0.1438
  176MOL   H11128461   1.655   7.015   1.337 -2.6531  0.1872 -0.2507
  176MOL   H11228462   1.864   7.147   1.287 -0.4329  0.2881  1.4795
  176MOL   H11328463   1.791   7.292   1.333 -0.5895 -0.8666  1.5841
  176MOL   C11428464   1.778   7.328   1.063 -0.1459 -0.2266 -0.0855
  176MOL   C11528465   1.737   7.323   0.912 -0.2215 -1.2264  0.0392
  176MOL   C11628466   1.808   7.440   0.838 -0.4479 -0.7016  0.1849
  176MOL   O11728467   1.875   7.522   0.902 -0.2517 -0.5485 -0.2376
  176MOL   H11828468   1.887   7.327   1.062 -0.1459 -0.5472  0.5005
  176MOL   H11928469   1.727   7.410   1.114  0.3583 -0.8632  1.4634
  176MOL   H12028470   1.632   7.333   0.885  0.0406 -1.4353 -1.0681
  176MOL   H12128471   1.776   7.241   0.852  2.6670 -0.7598  1.1701
  176MOL   C12228472   1.790   7.445   0.683 -0.6750 -0.1121 -0.6993
  176MOL   C12328473   1.915   7.510   0.625 -0.1305 -0.1240 -0.1309
  176MOL   C12428474   1.888   7.647   0.565  0.2566  0.3170  0.4988
  176MOL   O12528475   1.793   7.721   0.600 -0.7485  0.5485  0.1872
  176MOL   H12628476   1.693   7.493   0.666 -1.1010 -0.6355  0.1833
  176MOL   H12728477   1.781   7.339   0.660 -1.5580  0.2001 -1.8250
  176MOL   H12828478   1.950   7.453   0.539 -2.4165  0.6080 -1.5946
  176MOL   H12928479   1.996   7.508   0.698 -1.4778  0.3362  1.4159
  176MOL   C13028480   1.986   7.696   0.462 -0.2767  0.2803 -0.5606
  176MOL   C13128481   1.975   7.621   0.326  0.5152  0.1021 -0.0228
  176MOL   C13228482   1.896   7.706   0.227 -0.1604  0.8675 -0.8163
  176MOL   O13328483   1.796   7.776   0.252  0.1092  0.1858 -0.0680
  176MOL   H13428484   2.088   7.682   0.497 -0.9964  0.1591  1.5505
  176MOL   H13528485   1.979   7.804   0.456  0.5484  0.3836  0.1722
  176MOL   H13628486   1.922   7.528   0.344  0.5190  0.3436  1.2512
  176MOL   H13728487   2.067   7.579   0.284  0.2667 -0.7054  0.2273
  176MOL   C13828488   1.940   7.688   0.082  0.3910 -0.3994 -0.6479
  176MOL   C13928489   1.933   7.826   0.006  0.0022  0.1529 -0.6908
  176MOL   C14028490   1.831   7.818   7.746 -0.6356  0.8288  0.3228
  176MOL   O14128491   1.862   7.778   7.632 -0.1971  0.4897 -1.0118
  176MOL   H14228492   1.867   7.625   0.031  0.4964  1.2001 -2.8633
  176MOL   H14328493   2.042   7.651   0.077  1.1072  1.1046  2.0465
  176MOL   H14428494   2.036   7.851   7.841  0.2736 -1.1443 -0.8952
  176MOL   H14528495   1.899   0.035   0.084  1.3750  0.0911 -0.0186
  176MOL   C14628496   1.682   7.840   7.778  0.8396 -0.1788 -0.5009
  176MOL   C14728497   1.590   7.767   7.690 -0.0533  0.0092 -0.2114
  176MOL   C14828498   1.561   7.632   7.748 -0.1822 -0.2403 -0.4660
  176MOL   O14928499   1.618   7.570   7.838 -0.2854  0.5412  0.3265
  176MOL   H15028500   1.662   0.089   7.780 -1.7571 -0.6357  2.0136
  176MOL   H15128501   1.658   7.824   0.025 -0.8608  0.9104 -0.6920
  176MOL   H15228502   1.636   7.753   7.592  0.9461  1.4567  0.0413
  176MOL   H15328503   1.496   7.822   7.683 -1.9097 -2.7338  1.9149
  176MOL   C15428504   1.432   7.563   7.692 -0.1402  0.2421 -0.0974
  176MOL   C15528505   1.333   7.529   7.809 -0.2494  0.7671  0.3357
  176MOL   C15628506   1.274   7.649   0.019 -0.3369 -0.5113 -0.1445
  176MOL   O15728507   1.319   7.766   0.012  0.5006 -0.3238 -0.4936
  176MOL   H15828508   1.458   7.471   7.640 -3.4567 -0.5348 -0.4911
  176MOL   H15928509   1.379   7.625   7.620 -0.3429  0.0865 -0.0832
  176MOL   H16028510   1.396   7.480   0.024  0.8754  0.6236 -0.7102
  176MOL   H16128511   1.260   7.457   7.773  0.3747  0.8603 -1.1679
  176MOL   H16228512   1.184   7.624   0.076 -1.6626  1.2402 -1.4304
  177MOL     C128513   4.793   2.686   4.737 -0.1252  0.4507  0.9084
  177MOL     C228514   4.811   2.538   4.703 -0.1831  0.5404 -0.2897
  177MOL     C328515   4.743   2.444   4.794  0.7030 -0.0477  0.0195
  177MOL     O428516   4.648   2.484   4.866 -0.2248  0.3608  0.0700
  177MOL     H528517   4.697   2.726   4.704  0.2217 -0.2612 -1.0405
  177MOL     H628518   4.801   2.709   4.843 -1.5363  2.6868  0.5715
  177MOL     H728519   4.915   2.507   4.696 -0.8717 -1.8504 -0.2256
  177MOL     H828520   4.762   2.521   4.607 -1.1274  0.7752  0.1395
  177MOL     H928521   4.874   2.732   4.680 -0.1171  1.1529  1.4815
  177MOL    C1028522   4.775   2.299   4.780 -0.3130  0.4946  0.2663
  177MOL    C1128523   4.684   2.193   4.847 -0.1160  0.0929 -0.3780
  177MOL    C1228524   4.754   2.095   4.942 -0.0236  0.4134  0.2605
  177MOL    O1328525   4.860   2.124   5.002 -0.3737 -0.2105  0.1975
  177MOL    H1428526   4.882   2.283   4.798 -0.7653 -1.0471  1.7678
  177MOL    H1528527   4.764   2.280   4.674 -0.6883  0.8479  0.2434
  177MOL    H1628528   4.629   2.135   4.772 -0.8376  0.5988 -0.2507
  177MOL    H1728529   4.610   2.247   4.906 -0.0656 -0.9657  0.6777
  177MOL    C1828530   4.680   1.963   4.965 -0.0447  0.6489 -0.2260
  177MOL    C1928531   4.733   1.870   5.077  1.0808  0.6927  0.3844
  177MOL    C2028532   4.636   1.759   5.118 -0.7228 -0.9130 -0.1101
  177MOL    O2128533   4.528   1.749   5.057 -0.2647 -0.4559 -0.2799
  177MOL    H2228534   4.677   1.913   4.869  0.1636  1.4024 -0.6313
  177MOL    H2328535   4.574   1.974   4.985 -0.4392 -0.2733 -1.7792
  177MOL    H2428536   4.758   1.923   5.169 -1.1451 -0.4648  1.7007
  177MOL    H2528537   4.822   1.818   5.041  1.1750  0.5463  0.8215
  177MOL    C2628538   4.674   1.660   5.230 -0.4523  0.3353  0.6834
  177MOL    C2728539   4.547   1.610   5.293 -0.1648  0.4296 -0.8240
  177MOL    C2828540   4.546   1.626   5.444  0.0209 -0.2854 -0.0155
  177MOL    O2928541   4.653   1.665   5.501  0.9732  0.2993  0.2578
  177MOL    H3028542   4.747   1.699   5.300 -2.6672  1.2108  2.5767
  177MOL    H3128543   4.725   1.582   5.173 -0.4349  1.2194 -0.5382
  177MOL    H3228544   4.521   1.506   5.272  0.8393  0.1480 -0.6719
  177MOL    H3328545   4.454   1.661   5.266 -0.0188  0.7781 -0.6678
  177MOL    C3428546   4.425   1.595   5.530  0.6373  0.2110 -0.6012
  177MOL    C3528547   4.457   1.567   5.678  0.1499 -0.1582  0.2268
  177MOL    C3628548   4.511   1.430   5.718 -0.4144  0.0806 -0.5032
  177MOL    O3728549   4.505   1.344   5.636 -0.3539  0.5268 -0.2476
  177MOL    H3828550   4.359   1.525   5.477 -0.2265  0.4474  0.1438
  177MOL    H3928551   4.381   1.694   5.520 -1.2091 -0.6621 -1.5822
  177MOL    H4028552   4.383   1.587   5.756 -0.4982  0.4093 -0.5225
  177MOL    H4128553   4.526   1.647   5.703  2.1683 -1.2328 -1.7030
  177MOL    C4228554   4.585   1.407   5.850 -0.7954  0.6670  0.4243
  177MOL    C4328555   4.522   1.303   5.938 -0.1415  0.9824 -0.2222
  177MOL    C4428556   4.485   1.361   6.077  0.0470 -0.1416  0.2389
  177MOL    O4528557   4.570   1.373   6.161  0.7544  0.2645  0.3474
  177MOL    H4628558   4.598   1.501   5.903  0.5808  0.1411  1.0260
  177MOL    H4728559   4.688   1.378   5.830 -1.4645 -0.3258 -1.8093
  177MOL    H4828560   4.596   1.224   5.950 -1.6297 -0.5249 -0.7278
  177MOL    H4928561   4.442   1.247   5.890 -0.0792  1.0308 -0.3828
  177MOL    C5028562   4.343   1.409   6.102  1.3145 -0.1818 -0.4422
  177MOL    C5128563   4.304   1.431   6.248 -0.1056  0.2771  0.0211
  177MOL    C5228564   4.155   1.436   6.263 -0.3070 -0.3704 -0.6561
  177MOL    O5328565   4.080   1.431   6.165 -0.1584 -0.3702  0.2751
  177MOL    H5428566   4.271   1.347   6.049  0.1319  1.0280 -0.2920
  177MOL    H5528567   4.348   1.505   6.050 -1.5561 -0.9149 -2.1832
  177MOL    H5628568   4.348   1.528   6.275  0.2816  0.3792 -0.9384
  177MOL    H5728569   4.346   1.356   6.315 -1.9214 -0.2669  0.5742
  177MOL    C5828570   4.102   1.443   6.405  0.7199 -0.2222  0.2858
  177MOL    C5928571   3.964   1.512   6.425 -0.4687 -0.3020 -0.1910
  177MOL    C6028572   3.939   1.581   6.561  0.1840 -0.3821 -0.1554
  177MOL    O6128573   4.021   1.587   6.651  0.2428 -0.4443  0.0534
  177MOL    H6228574   4.185   1.493   6.457 -0.0397  2.4232 -0.9647
  177MOL    H6328575   4.092   1.344   6.449 -0.2465 -1.5346 -2.7827
  177MOL    H6428576   3.883   1.442   6.400 -1.3130  1.0845 -1.4384
  177MOL    H6528577   3.948   1.585   6.346 -1.5039 -1.9164 -1.5360
  177MOL    C6628578   3.798   1.640   6.571  0.4283 -0.2671 -0.0951
  177MOL    C6728579   3.774   1.687   6.714 -0.2038  0.0484 -0.2211
  177MOL    C6828580   3.718   1.821   6.738 -0.2359 -0.7011  0.1656
  177MOL    O6928581   3.701   1.906   6.647  0.2387  0.3523 -0.7401
  177MOL    H7028582   3.742   1.549   6.550  1.9589 -0.9953 -1.1713
  177MOL    H7128583   3.775   1.710   6.490  0.7660 -2.1870 -1.8857
  177MOL    H7228584   3.859   1.674   6.781 -1.0386 -2.0338  0.4790
  177MOL    H7328585   3.694   1.621   6.746 -2.1011 -0.0777 -4.9139
  177MOL    C7428586   3.675   1.853   6.881  0.2491  0.9312  0.3662
  177MOL    C7528587   3.633   1.992   6.912  0.2884 -0.4238  0.7153
  177MOL    C7628588   3.569   2.005   7.049  0.3647  0.2385  0.1861
  177MOL    O7728589   3.448   1.990   7.067  0.0711 -0.8905  0.7289
  177MOL    H7828590   3.765   1.839   6.941 -0.9420  0.3007  2.0634
  177MOL    H7928591   3.587   1.790   6.896  0.6972  0.3484  0.5609
  177MOL    H8028592   3.565   2.031   6.836  3.7676  3.3001 -0.6375
  177MOL    H8128593   3.720   2.057   6.912  0.4808 -0.6660 -0.3156
  177MOL    C8228594   3.669   2.005   7.165 -0.1942 -0.5587 -0.9261
  177MOL    C8328595   3.670   2.137   7.237 -0.2030 -0.7934 -0.1048
  177MOL    C8428596   3.677   2.126   7.388  0.3528  0.4285  0.3881
  177MOL    O8528597   3.638   2.029   7.447  0.1154  0.1623  0.0364
  177MOL    H8628598   3.769   1.987   7.126  0.5333  0.7132  0.3196
  177MOL    H8728599   3.643   1.924   7.234  2.2345  0.9073  1.8235
  177MOL    H8828600   3.580   2.188   7.203  1.3417  1.7232 -0.5650
  177MOL    H8928601   3.751   2.205   7.211  1.6539 -2.2640  1.5796
  177MOL    C9028602   3.749   2.239   7.453  0.3443 -0.7549  0.2114
  177MOL    C9128603   3.798   2.213   7.595  0.7881  1.6342  0.2264
  177MOL    C9228604   3.724   2.292   7.699 -0.1514 -0.4378  0.1017
  177MOL    O9328605   3.603   2.274   7.705 -0.3948 -0.6885 -0.7428
  177MOL    H9428606   3.700   2.335   7.437 -0.3696 -0.7850  2.1442
  177MOL    H9528607   3.840   2.238   7.393  0.3103 -1.4362  0.1689
  177MOL    H9628608   3.900   2.247   7.616  0.0370  3.8285  0.5336
  177MOL    H9728609   3.785   2.109   7.624  0.7101  1.7376  0.5730
  177MOL    C9828610   3.816   2.386   7.783  0.0207 -0.2172  0.3861
  177MOL    C9928611   3.752   2.410   0.064  0.1776 -0.1442 -0.1082
  177MOL   C10028612   3.685   2.545   0.086  0.2865 -0.1718 -0.3773
  177MOL   O10128613   3.682   2.627   7.858 -0.1846  0.3124 -0.1699
  177MOL   H10228614   3.839   2.482   7.737 -2.7217 -0.4021 -1.5192
  177MOL   H10328615   3.909   2.334   7.807 -0.1428 -0.6524  0.0801
  177MOL   H10428616   3.832   2.404   0.137  2.5579 -1.6638 -2.7164
  177MOL   H10528617   3.676   2.335   0.085 -1.4789  1.1009 -1.4736
  177MOL   C10628618   3.623   2.562   0.223  0.7567 -0.0983 -0.0505
  177MOL   C10728619   3.553   2.697   0.246  0.7659  0.1088  0.8657
  177MOL   C10828620   3.613   2.790   0.348  0.0398 -0.1716 -1.1174
  177MOL   O10928621   3.736   2.790   0.362  0.2822 -0.3832 -0.6254
  177MOL   H11028622   3.705   2.549   0.293 -0.5543  0.6994  1.6944
  177MOL   H11128623   3.559   2.474   0.227  2.0121 -1.0426 -0.4293
  177MOL   H11228624   3.448   2.672   0.262  0.6045 -0.4074 -0.9675
  177MOL   H11328625   3.553   2.747   0.149  0.9475 -1.3595  0.1003
  177MOL   C11428626   3.526   2.894   0.427 -0.0316 -0.3177  0.1131
  177MOL   C11528627   3.536   2.886   0.581 -0.7388  0.7522 -0.1628
  177MOL   C11628628   3.416   2.947   0.656  0.6254  0.0416 -0.5764
  177MOL   O11728629   3.323   2.992   0.591 -0.2243  0.3167  0.5665
  177MOL   H11828630   3.420   2.896   0.399  0.1903  2.8559 -0.7274
  177MOL   H11928631   3.549   2.995   0.393 -0.8871  0.1181  0.7953
  177MOL   H12028632   3.627   2.936   0.614 -0.2708  0.8700 -1.6043
  177MOL   H12128633   3.556   2.783   0.611  1.0042  0.9253 -0.7268
  177MOL   C12228634   3.417   2.940   0.812  0.0677 -0.3231  0.1251
  177MOL   C12328635   3.274   2.937   0.873  0.0845  0.9254 -0.4274
  177MOL   C12428636   3.260   2.832   0.989  0.3062 -0.3395 -0.3063
  177MOL   O12528637   3.340   2.746   1.007  0.2797  0.5423 -0.7913
  177MOL   H12628638   3.462   3.034   0.846  2.4765 -0.6818 -1.9008
  177MOL   H12728639   3.486   2.866   0.852  1.9314 -0.2998 -2.9372
  177MOL   H12828640   3.205   2.900   0.797  0.7368 -0.6415 -0.2857
  177MOL   H12928641   3.237   3.034   0.907 -0.9438  0.4319 -0.1057
  177MOL   C13028642   3.129   2.836   1.075 -0.2851  0.6520 -0.1269
  177MOL   C13128643   3.040   2.709   1.058  0.1103  0.2282 -0.0745
  177MOL   C13228644   3.005   2.651   1.192 -0.4765 -0.5351 -0.2318
  177MOL   O13328645   2.910   2.695   1.260 -0.2122  0.5166 -0.2043
  177MOL   H13428646   3.075   2.927   1.049 -1.7671  0.2817  1.5776
  177MOL   H13528647   3.150   2.853   1.180  0.2878 -0.5578 -0.0435
  177MOL   H13628648   3.094   2.637   0.997  1.2828 -0.2505  1.5022
  177MOL   H13728649   2.948   2.728   1.002 -0.4815  0.5487  0.9681
  177MOL   C13828650   3.101   2.551   1.254 -0.0440  0.7688 -0.8509
  177MOL   C13928651   3.060   2.491   1.392  0.2543  0.1894 -0.1544
  177MOL   C14028652   3.135   2.559   1.507  0.0361 -0.6747 -0.4009
  177MOL   O14128653   3.137   2.681   1.525  0.1284 -0.0441 -0.5348
  177MOL   H14228654   3.188   2.615   1.267 -0.1256  0.5095  1.2909
  177MOL   H14328655   3.120   2.468   1.186  0.9440  0.4370 -0.1922
  177MOL   H14428656   3.099   2.390   1.404  3.0287  1.3100  0.5803
  177MOL   H14528657   2.952   2.499   1.409  0.2838 -1.8669  1.1125
  177MOL   C14628658   3.198   2.463   1.611 -0.2851 -0.0834 -0.9583
  177MOL   C14728659   3.197   2.530   1.755  0.3323  0.0502 -0.3193
  177MOL   C14828660   3.307   2.622   1.796 -0.2574  0.2794  0.1111
  177MOL   O14928661   3.413   2.619   1.735 -0.0746  0.3318 -0.5355
  177MOL   H15028662   3.298   2.439   1.574  0.5567  0.0791  1.1686
  177MOL   H15128663   3.144   2.368   1.607  0.3581 -0.5757  1.6676
  177MOL   H15228664   3.185   2.450   1.828  1.3622 -0.5432 -0.7896
  177MOL   H15328665   3.101   2.582   1.766  0.9194  1.0647  0.0695
  177MOL   C15428666   3.279   2.711   1.922  0.2943 -1.0859 -0.2627
  177MOL   C15528667   3.370   2.830   1.921 -0.0551 -0.1330 -0.1260
  177MOL   C15628668   3.298   2.958   1.904 -0.4980 -0.3443 -0.1947
  177MOL   O15728669   3.192   2.950   1.838  0.4762 -0.0854  0.3625
  177MOL   H15828670   3.303   2.667   2.018 -0.6585 -0.0050  0.4893
  177MOL   H15928671   3.174   2.741   1.927  0.1477 -1.5816 -0.2682
  177MOL   H16028672   3.454   2.817   1.853 -2.0878 -1.3092 -2.4699
  177MOL   H16128673   3.420   2.840   2.017 -0.0067  0.8729 -0.2467
  177MOL   H16228674   3.343   3.044   1.953 -0.2540 -1.9370  2.4958
  178MOL     C128675   6.303   5.633   2.758  0.3373 -0.7990 -0.2186
  178MOL     C228676   6.344   5.639   2.909  0.1137  0.1031  1.0119
  178MOL     C328677   6.360   5.779   2.966 -0.1569 -0.5887  0.1329
  178MOL     O428678   6.347   5.879   2.895 -0.6245  0.6843  0.4269
  178MOL     H528679   6.386   5.662   2.694 -0.6164  3.7327  0.3988
  178MOL     H628680   6.280   5.533   2.720  0.1220  0.1437 -2.7004
  178MOL     H728681   6.440   5.589   2.924 -0.4107 -0.5693  2.2507
  178MOL     H828682   6.272   5.578   2.964  0.4090 -0.7690  0.4453
  178MOL     H928683   6.214   5.694   2.744 -0.7224 -2.2801 -0.0454
  178MOL    C1028684   6.408   5.801   3.102 -0.1508 -0.0620 -0.6440
  178MOL    C1128685   6.338   5.917   3.180  0.5196  0.3547 -0.0443
  178MOL    C1228686   6.411   6.049   3.168  0.2997  0.1867 -0.5898
  178MOL    O1328687   6.512   6.052   3.105 -0.1219 -0.1916 -0.5696
  178MOL    H1428688   6.517   5.808   3.111  0.1710 -2.4259 -2.2329
  178MOL    H1528689   6.393   5.707   3.156 -0.4655  0.4910  0.2538
  178MOL    H1628690   6.317   5.883   3.282 -3.0159  0.0139 -0.8482
  178MOL    H1728691   6.240   5.929   3.135  0.1809 -0.6953  0.4014
  178MOL    C1828692   6.359   6.173   3.249 -0.5330  0.1397 -0.7108
  178MOL    C1928693   6.384   6.312   3.189 -0.5936  0.1656 -0.4080
  178MOL    C2028694   6.273   6.364   3.097  0.0652 -0.3485  0.0673
  178MOL    O2128695   6.200   6.284   3.042  0.0125  0.1296 -0.3838
  178MOL    H2228696   6.422   6.179   3.338 -2.7895  2.9043  0.7649
  178MOL    H2328697   6.258   6.150   3.282 -0.4704 -1.3399 -1.5203
  178MOL    H2428698   6.480   6.318   3.138 -0.1700  0.1735  0.3733
  178MOL    H2528699   6.396   6.382   3.272 -1.0385 -0.4528  0.1923
  178MOL    C2628700   6.256   6.505   3.069  0.5418 -0.2584  0.5770
  178MOL    C2728701   6.131   6.534   2.991 -0.2647  0.0366 -0.6384
  178MOL    C2828702   6.011   6.555   3.082 -0.3903 -0.5208 -0.5730
  178MOL    O2928703   6.006   6.513   3.202 -0.3977  0.9460  1.2548
  178MOL    H3028704   6.348   6.531   3.016  0.9787 -1.9790  0.4546
  178MOL    H3128705   6.263   6.555   3.166 -0.2944  0.6107  0.1959
  178MOL    H3228706   6.106   6.457   2.918 -4.1142  1.4465 -0.9171
  178MOL    H3328707   6.141   6.628   2.936  1.6729  1.0001  1.2860
  178MOL    C3428708   5.887   6.608   3.016  0.0880 -0.7122  0.3244
  178MOL    C3528709   5.804   6.712   3.090  0.0889  0.1052 -0.0800
  178MOL    C3628710   5.684   6.653   3.154 -0.3430 -0.5734  0.1546
  178MOL    O3728711   5.668   6.530   3.156  0.0327  0.0805  0.0077
  178MOL    H3828712   5.826   6.525   2.978 -2.0146  0.1145  1.7805
  178MOL    H3928713   5.920   6.675   2.937  0.8240 -1.8645 -0.3576
  178MOL    H4028714   5.781   6.796   3.025 -1.0258  0.5337  0.8541
  178MOL    H4128715   5.863   6.752   3.173 -0.6336  2.4615 -0.6455
  178MOL    C4228716   5.567   6.745   3.201  0.2042 -0.1118  0.0426
  178MOL    C4328717   5.429   6.675   3.200 -0.0311  0.4732  0.2294
  178MOL    C4428718   5.307   6.767   3.158 -0.5102 -0.2114 -1.1828
  178MOL    O4528719   5.320   6.890   3.148  0.5276 -0.1470  0.3998
  178MOL    H4628720   5.571   6.830   3.133  0.5888 -0.4658 -0.3871
  178MOL    H4728721   5.595   6.788   3.297 -1.5724 -0.4423  0.7291
  178MOL    H4828722   5.409   6.628   3.297  0.0019  0.0523  0.0352
  178MOL    H4928723   5.410   6.595   3.128 -0.2212  0.9432 -0.2379
  178MOL    C5028724   5.175   6.692   3.145  0.0182 -0.1303 -0.3183
  178MOL    C5128725   5.063   6.778   3.078  0.1884 -0.6347  0.2540
  178MOL    C5228726   4.944   6.692   3.029  0.0498 -0.6308 -0.0792
  178MOL    O5328727   4.955   6.607   2.944  0.1510 -0.1102  0.1225
  178MOL    H5428728   5.152   6.659   3.247  1.1283 -1.6556 -0.5623
  178MOL    H5528729   5.190   6.603   3.085  0.0358  0.2503 -0.8730
  178MOL    H5628730   5.103   6.848   3.004  0.3015  1.2073  1.9978
  178MOL    H5728731   5.020   6.854   3.143  1.4850  2.1724 -2.0458
  178MOL    C5828732   4.812   6.743   3.079  0.9742 -0.1409 -0.3230
  178MOL    C5928733   4.698   6.636   3.042 -1.0511 -0.2426 -0.0848
  178MOL    C6028734   4.580   6.705   2.973 -0.0876 -0.2733 -0.1107
  178MOL    O6128735   4.599   6.815   2.918 -0.6085 -0.2125  0.4095
  178MOL    H6228736   4.788   6.840   3.036 -0.3459  0.1368  1.0229
  178MOL    H6328737   4.814   6.765   3.186 -0.7419  1.1112 -0.5314
  178MOL    H6428738   4.663   6.598   3.138  0.8254  0.1824  0.7956
  178MOL    H6528739   4.727   6.554   2.976  2.1498  1.0245 -0.3643
  178MOL    C6628740   4.442   6.630   2.965  0.3046 -0.5865  0.4478
  178MOL    C6728741   4.328   6.728   2.929  0.2794  0.6858 -0.5244
  178MOL    C6828742   4.253   6.691   2.797 -0.6852 -0.2603 -0.2605
  178MOL    O6928743   4.297   6.602   2.729  0.2755 -0.2546 -0.3156
  178MOL    H7028744   4.417   6.579   3.058  0.3552 -0.1055  0.7293
  178MOL    H7128745   4.467   6.549   2.896  0.7730  0.4229 -0.5906
  178MOL    H7228746   4.366   6.830   2.924  1.5124  0.2932  0.4971
  178MOL    H7328747   4.254   6.744   3.007  0.5532  0.4356 -0.2093
  178MOL    C7428748   4.126   6.769   2.753  0.1722  0.1278  0.6186
  178MOL    C7528749   4.054   6.718   2.627  0.3649  0.3663 -0.2028
  178MOL    C7628750   3.933   6.633   2.647  0.1900  0.0526  0.8272
  178MOL    O7728751   3.918   6.572   2.754 -0.5314 -0.3383  0.6172
  178MOL    H7828752   4.163   6.871   2.743  0.5061 -0.0523 -0.0105
  178MOL    H7928753   4.048   6.772   2.829 -1.8305  0.4342 -1.3867
  178MOL    H8028754   4.120   6.667   2.557 -0.9101  1.6044 -2.3655
  178MOL    H8128755   4.029   6.807   2.568 -0.7631 -0.7727 -1.4886
  178MOL    C8228756   3.826   6.627   2.546  0.3709  0.7747  0.1804
  178MOL    C8328757   3.783   6.481   2.518 -0.0465 -0.0576  0.1845
  178MOL    C8428758   3.683   6.417   2.615 -0.0193 -0.2053  0.0389
  178MOL    O8528759   3.608   6.492   2.674 -0.3705 -0.3216  0.3839
  178MOL    H8628760   3.876   6.655   2.453 -1.2281 -1.7671 -1.4997
  178MOL    H8728761   3.734   6.682   2.570  0.1375 -0.9784  3.5548
  178MOL    H8828762   3.873   6.419   2.514 -0.6070 -0.8801  0.2684
  178MOL    H8928763   3.750   6.476   2.414 -1.2696  0.7337  0.5291
  178MOL    C9028764   3.691   6.266   2.651  0.2636 -0.3939 -0.4076
  178MOL    C9128765   3.597   6.232   2.770  0.5184  0.0310 -0.0142
  178MOL    C9228766   3.463   6.168   2.735 -0.1981 -0.2675  0.1968
  178MOL    O9328767   3.427   6.175   2.620  0.3567 -0.5999  0.4144
  178MOL    H9428768   3.790   6.237   2.685  1.2854  1.7865 -1.4494
  178MOL    H9528769   3.670   6.203   2.565 -0.1236 -0.9520  0.0890
  178MOL    H9628770   3.578   6.327   2.821 -0.0982  0.3245 -0.7741
  178MOL    H9728771   3.649   6.176   2.848 -0.4535  0.7222  1.1493
  178MOL    C9828772   3.397   6.079   2.844  0.0241  0.3826 -0.4515
  178MOL    C9928773   3.246   6.056   2.831 -0.0205 -0.4308 -0.0553
  178MOL   C10028774   3.163   6.178   2.869  0.1608  0.3781  0.2425
  178MOL   O10128775   3.216   6.290   2.897  0.2515 -0.1244 -0.4987
  178MOL   H10228776   3.426   6.114   2.943 -1.1490 -0.2311  0.1250
  178MOL   H10328777   3.440   5.979   2.843 -2.8702 -0.9128 -0.0394
  178MOL   H10428778   3.210   5.965   2.879  0.0972 -0.2868  0.3053
  178MOL   H10528779   3.220   6.035   2.727  1.8039 -0.1446 -0.5905
  178MOL   C10628780   3.015   6.151   2.866 -0.4123  0.5622 -1.0472
  178MOL   C10728781   2.933   6.278   2.895  0.0140  0.2973 -0.3192
  178MOL   C10828782   2.936   6.323   3.047  0.4086  0.2658  0.4560
  178MOL   O10928783   2.908   6.250   3.144 -0.2555  0.7311 -0.0636
  178MOL   H11028784   2.991   6.076   2.942  2.6177  0.3958 -0.1833
  178MOL   H11128785   2.991   6.110   2.768 -2.0898  0.8517 -0.7818
  178MOL   H11228786   2.828   6.266   2.868 -0.0736  0.2457  0.0378
  178MOL   H11328787   2.962   6.354   2.822 -1.1584 -0.8992 -2.0658
  178MOL   C11428788   2.990   6.463   3.084  0.3017  0.0253  0.0785
  178MOL   C11528789   3.131   6.474   3.151 -0.1156  0.7718 -0.4622
  178MOL   C11628790   3.214   6.561   3.065 -0.2372  0.2868 -0.5456
  178MOL   O11728791   3.177   6.657   3.001 -0.0088  0.2914  0.0877
  178MOL   H11828792   2.912   6.503   3.148  1.5311  1.2393  0.8294
  178MOL   H11928793   2.982   6.520   2.992  0.6387 -0.5495 -0.3100
  178MOL   H12028794   3.181   6.378   3.167  0.3349  1.0837  0.0181
  178MOL   H12128795   3.115   6.517   3.250 -0.5097  0.9822 -0.6153
  178MOL   C12228796   3.361   6.530   3.084  0.5016  0.0967  0.3584
  178MOL   C12328797   3.453   6.643   3.027  0.3614 -0.0008 -0.4778
  178MOL   C12428798   3.601   6.606   3.041 -0.6618  0.1022 -0.0383
  178MOL   O12528799   3.644   6.524   3.124  0.4397 -0.1465  0.2695
  178MOL   H12628800   3.386   6.434   3.040  0.9670 -0.7168  2.3734
  178MOL   H12728801   3.373   6.510   3.190 -0.7044 -1.6981  0.1624
  178MOL   H12828802   3.435   6.737   3.079  1.3764  0.4460 -0.9050
  178MOL   H12928803   3.426   6.653   2.922 -1.7426  0.3466  0.0771
  178MOL   C13028804   3.692   6.691   2.961 -0.4493  0.3934  0.0850
  178MOL   C13128805   3.817   6.737   3.041  0.1197 -0.3371 -0.1013
  178MOL   C13228806   3.814   6.880   3.093 -0.5217 -0.4681  0.1311
  178MOL   O13328807   3.738   6.963   3.038  0.2639 -1.0852 -0.4232
  178MOL   H13428808   3.639   6.781   2.931 -1.5532 -0.1518  0.3510
  178MOL   H13528809   3.718   6.623   2.880  0.6680 -1.8038  2.2252
  178MOL   H13628810   3.903   6.722   2.977  1.2872  2.9916  0.5784
  178MOL   H13728811   3.836   6.671   3.126  1.2014  1.4766  1.1118
  178MOL   C13828812   3.905   6.919   3.211  0.2262 -0.7181  0.2443
  178MOL   C13928813   3.839   7.038   3.297 -0.2876  0.4260  0.2489
  178MOL   C14028814   3.926   7.064   3.416  0.1386 -0.0637  0.0809
  178MOL   O14128815   4.016   6.990   3.445  0.0518  0.5658  0.1844
  178MOL   H14228816   4.003   6.945   3.173 -0.5183  0.1371 -1.1459
  178MOL   H14328817   3.920   6.831   3.273 -0.1579  1.1419  3.0708
  178MOL   H14428818   3.744   7.009   3.341 -0.2474  0.9150  0.6669
  178MOL   H14528819   3.825   7.126   3.235 -0.2830 -0.1310 -0.5476
  178MOL   C14628820   3.891   7.185   3.495 -0.0012  0.1469 -0.4507
  178MOL   C14728821   3.961   7.202   3.629 -0.3535 -0.3530  0.0976
  178MOL   C14828822   3.867   7.191   3.753  0.3874 -1.0261  0.1810
  178MOL   O14928823   3.753   7.237   3.755 -0.2304 -0.5343  0.8140
  178MOL   H15028824   3.783   7.200   3.495  0.2386  1.9865 -0.9193
  178MOL   H15128825   3.909   7.278   3.441  1.7491  0.6232  0.9199
  178MOL   H15228826   4.002   7.302   3.621  0.2444 -0.5317  0.9499
  178MOL   H15328827   4.050   7.140   3.637 -1.0069 -1.6950 -2.3207
  178MOL   C15428828   3.935   7.144   3.879 -0.7354  0.3896  0.1563
  178MOL   C15528829   3.871   7.209   4.003 -0.3162 -0.0195 -0.1445
  178MOL   C15628830   3.891   7.359   4.000 -0.3835 -0.0393 -0.6632
  178MOL   O15728831   4.000   7.402   3.967 -0.2083  0.3000 -0.2905
  178MOL   H15828832   4.041   7.166   3.873 -0.7162  0.5018  0.8543
  178MOL   H15928833   3.941   7.035   3.875  0.5492  0.4198  1.0495
  178MOL   H16028834   3.925   7.173   4.091  0.5932  2.5413  0.4077
  178MOL   H16128835   3.770   7.182   4.034 -0.0437 -0.4387  0.3865
  178MOL   H16228836   3.808   7.420   4.034 -0.6885 -0.3832 -0.7856
  179MOL     C128837   2.834   0.727   3.386 -0.2489  0.3521  0.3624
  179MOL     C228838   2.960   0.796   3.339 -1.2806 -0.2498  0.4965
  179MOL     C328839   3.046   0.715   3.237  0.0167 -0.2668  0.1043
  179MOL     O428840   2.989   0.652   3.142  0.0203 -0.3476  0.3028
  179MOL     H528841   2.754   0.706   3.315 -0.1691  1.1574  0.0250
  179MOL     H628842   2.869   0.626   3.405  0.3274  0.3085 -0.8842
  179MOL     H728843   3.025   0.834   3.418  0.7771 -2.2946 -0.1471
  179MOL     H828844   2.930   0.886   3.287  0.0361  0.8886  1.6821
  179MOL     H928845   2.789   0.770   3.476 -0.9747 -2.2976  1.2880
  179MOL    C1028846   3.200   0.720   3.241  0.3422  0.0993 -0.4914
  179MOL    C1128847   3.243   0.838   3.156  0.2987 -0.2042  0.0809
  179MOL    C1228848   3.367   0.821   3.070  1.0758  0.0844  0.0683
  179MOL    O1328849   3.396   0.708   3.030 -0.0650 -0.2537 -0.3193
  179MOL    H1428850   3.233   0.625   3.199 -0.7809 -0.4408 -0.1694
  179MOL    H1528851   3.236   0.720   3.344  3.6290  1.2282 -1.5670
  179MOL    H1628852   3.256   0.923   3.224  1.9350 -0.3912  0.0321
  179MOL    H1728853   3.164   0.873   3.090  0.0851 -2.4108 -0.8750
  179MOL    C1828854   3.434   0.944   3.032 -0.2590 -0.3659 -0.0898
  179MOL    C1928855   3.569   0.922   2.969  0.1560 -0.3675  0.2646
  179MOL    C2028856   3.650   1.050   2.958  0.5824  0.2629  0.3962
  179MOL    O2128857   3.587   1.157   2.960 -0.1716  0.2347 -0.2308
  179MOL    H2228858   3.443   1.004   3.123  0.1750  0.0004 -0.3711
  179MOL    H2328859   3.374   0.997   2.958  0.2499  1.2495  0.6383
  179MOL    H2428860   3.571   0.876   2.870 -1.8405 -2.4672  1.1443
  179MOL    H2528861   3.621   0.867   3.048 -3.1528 -1.8581  1.5120
  179MOL    C2628862   3.802   1.035   2.960 -0.3214  0.0162 -0.5767
  179MOL    C2728863   3.875   1.167   2.923 -1.1762  0.3576  0.5889
  179MOL    C2828864   3.990   1.128   2.832 -0.1021 -0.1082 -0.2098
  179MOL    O2928865   4.041   1.016   2.839  0.0628  0.0819 -0.0354
  179MOL    H3028866   3.813   0.962   2.880  3.6071  0.1856 -0.2899
  179MOL    H3128867   3.838   0.972   3.042 -1.1758  0.2526 -0.0135
  179MOL    H3228868   3.908   1.215   3.015 -0.2811 -0.1536  0.5393
  179MOL    H3328869   3.811   1.235   2.867  0.5898  1.2180 -0.4422
  179MOL    C3428870   4.043   1.237   2.737 -0.5769  0.3287  0.9499
  179MOL    C3528871   4.100   1.179   2.607 -0.1666  0.6625 -0.1662
  179MOL    C3628872   4.251   1.179   2.593  0.3181  0.1260 -0.0511
  179MOL    O3728873   4.329   1.198   2.690 -0.1207  0.4844  0.2665
  179MOL    H3828874   4.117   1.296   2.790 -1.8258  0.7338  2.2732
  179MOL    H3928875   3.968   1.314   2.721  0.3367  0.4302 -3.4482
  179MOL    H4028876   4.063   1.245   2.529  0.4937  0.3128 -0.7819
  179MOL    H4128877   4.055   1.084   2.580  0.4848  0.4222 -0.4286
  179MOL    C4228878   4.303   1.170   2.451 -0.4632  0.1493  0.0259
  179MOL    C4328879   4.409   1.273   2.422  0.3360  1.0678  0.1462
  179MOL    C4428880   4.533   1.206   2.356 -0.0148  0.2362  0.5186
  179MOL    O4528881   4.509   1.142   2.253  0.4489 -0.0683 -0.1031
  179MOL    H4628882   4.219   1.198   2.387  0.4123 -1.4682 -1.9133
  179MOL    H4728883   4.328   1.066   2.430 -2.5209 -0.3097 -0.2413
  179MOL    H4828884   4.425   1.327   2.515  0.1165 -0.1925  0.9256
  179MOL    H4928885   4.361   1.338   2.349  1.0932 -1.4044 -2.6754
  179MOL    C5028886   4.669   1.223   2.416 -0.4076  0.0183  0.1730
  179MOL    C5128887   4.777   1.124   2.369  1.1404 -0.4037 -0.5732
  179MOL    C5228888   4.797   1.021   2.476  0.5594  0.9394 -0.7801
  179MOL    O5328889   4.856   1.051   2.578  0.0008  0.1708 -0.0315
  179MOL    H5428890   4.647   1.219   2.523 -2.2608  0.5261 -0.1699
  179MOL    H5528891   4.714   1.321   2.401  0.7477 -0.4413  0.6216
  179MOL    H5628892   4.873   1.172   2.347  0.0742  1.6332 -0.8602
  179MOL    H5728893   4.747   1.075   2.277  0.4320  1.8224 -1.5482
  179MOL    C5828894   4.748   0.878   2.448  0.8399  0.2776  0.1172
  179MOL    C5928895   4.677   0.815   2.571 -0.2622  0.3208  0.2708
  179MOL    C6028896   4.522   0.830   2.577 -0.1165 -0.0283 -0.8805
  179MOL    O6128897   4.465   0.899   2.491  0.6531  0.4138  0.2216
  179MOL    H6228898   4.839   0.825   2.419  1.7365  2.0846 -0.4886
  179MOL    H6328899   4.697   0.884   2.352  1.9927  1.5418 -0.4342
  179MOL    H6428900   4.723   0.853   2.663  2.5369 -1.0014 -0.5235
  179MOL    H6528901   4.709   0.712   2.582  1.8583  0.5486 -3.0200
  179MOL    C6628902   4.446   0.757   2.682  0.3462  0.5711  0.0236
  179MOL    C6728903   4.305   0.810   2.719 -0.2382  0.0593 -0.0888
  179MOL    C6828904   4.214   0.692   2.752  1.3089 -0.0258  0.1431
  179MOL    O6928905   4.175   0.607   2.675  0.3134 -0.2395 -0.3766
  179MOL    H7028906   4.513   0.736   2.765 -0.2306  0.6822  0.5180
  179MOL    H7128907   4.434   0.662   2.629  0.1626  1.1445 -0.9846
  179MOL    H7228908   4.267   0.868   2.634  1.2385  0.8002 -0.2582
  179MOL    H7328909   4.306   0.878   2.804 -2.1099 -0.8996  0.7473
  179MOL    C7428910   4.154   0.691   2.890  0.3029  0.3755 -0.7151
  179MOL    C7528911   4.009   0.722   2.896 -0.2030  0.1718 -0.1526
  179MOL    C7628912   3.924   0.605   2.947 -1.2370 -0.0790  0.5927
  179MOL    O7728913   3.964   0.491   2.982 -0.8499  0.1522  0.7937
  179MOL    H7828914   4.208   0.765   2.950  2.6363 -1.1637 -0.8490
  179MOL    H7928915   4.180   0.599   2.942  1.6107  0.7761 -0.6196
  179MOL    H8028916   3.978   0.743   2.793  0.3790 -2.4517 -0.9007
  179MOL    H8128917   3.986   0.813   2.952 -0.8896 -0.1035  0.0224
  179MOL    C8228918   3.782   0.643   2.968  0.2192  0.4756  0.6495
  179MOL    C8328919   3.682   0.526   2.953  0.0127  0.3042 -0.5657
  179MOL    C8428920   3.653   0.450   3.083 -0.5789  0.3515 -0.0195
  179MOL    O8528921   3.702   0.487   3.185  0.0572  0.7651  0.1999
  179MOL    H8628922   3.755   0.717   2.893 -1.9732  0.2792  1.2301
  179MOL    H8728923   3.769   0.698   3.061  0.0189  1.4873  0.0237
  179MOL    H8828924   3.715   0.457   2.875 -1.6927  0.2914 -1.3047
  179MOL    H8928925   3.588   0.568   2.916  0.8870  0.8880 -2.1792
  179MOL    C9028926   3.546   0.340   3.087 -0.8101 -0.0997 -0.4744
  179MOL    C9128927   3.408   0.400   3.109  0.1796  0.8308  0.6726
  179MOL    C9228928   3.294   0.300   3.103  0.1919 -0.1191  0.3540
  179MOL    O9328929   3.316   0.183   3.135  0.2071  0.0077 -0.3410
  179MOL    H9428930   3.581   0.278   3.169  0.7658  1.0221 -0.2534
  179MOL    H9528931   3.548   0.282   2.995 -1.9110 -0.7978 -0.0629
  179MOL    H9628932   3.381   0.475   3.034 -0.5961  0.3704  0.4897
  179MOL    H9728933   3.405   0.450   3.206  3.7599  0.0158  1.2795
  179MOL    C9828934   3.159   0.342   3.038  0.6077  0.4708  0.5043
  179MOL    C9928935   3.030   0.299   3.115 -0.2063 -0.3452 -0.2253
  179MOL   C10028936   3.030   0.324   3.268  0.4008 -0.4618 -0.6063
  179MOL   O10128937   3.097   0.409   3.325 -0.6041 -0.0629  0.4310
  179MOL   H10228938   3.170   0.334   2.930 -2.7512  0.5639  0.0989
  179MOL   H10328939   3.150   0.449   3.055  1.1898  0.4171  1.1766
  179MOL   H10428940   3.018   0.191   3.108  2.4867 -0.5202 -2.8062
  179MOL   H10528941   2.942   0.344   3.070 -0.7780 -0.2581  0.9515
  179MOL   C10628942   2.928   0.234   3.335 -0.5924 -0.2037 -0.6497
  179MOL   C10728943   2.935   0.260   3.487 -0.0131  0.6216 -0.4302
  179MOL   C10828944   2.841   0.175   3.564  0.0538  0.3623  0.3878
  179MOL   O10928945   2.751   0.114   3.503 -0.2583  0.2180 -0.0108
  179MOL   H11028946   2.963   0.132   3.317  1.9684  0.4020  0.6743
  179MOL   H11128947   2.832   0.242   3.283 -0.3767  2.6559 -0.6686
  179MOL   H11228948   2.916   0.366   3.503  0.7605  0.9572 -1.6216
  179MOL   H11328949   3.036   0.233   3.518 -0.1530 -0.3691 -0.8266
  179MOL   C11428950   2.871   0.172   3.710  0.1864  0.8435  0.3099
  179MOL   C11528951   2.743   0.176   3.794 -0.3326 -0.0036  0.7950
  179MOL   C11628952   2.745   0.102   3.925  0.1177 -0.1797 -0.0376
  179MOL   O11728953   2.844   0.040   3.966  0.0928 -0.6445  0.4790
  179MOL   H11828954   2.954   0.239   3.726  0.9727 -0.5655  2.4283
  179MOL   H11928955   2.921   0.078   3.735  1.3840  1.6475  0.9466
  179MOL   H12028956   2.656   0.138   3.740 -0.8676  0.3404  1.4092
  179MOL   H12128957   2.722   0.281   3.814 -2.7600 -0.7063  2.1800
  179MOL   C12228958   2.617   0.109   4.002 -0.4247  0.8692 -0.1429
  179MOL   C12328959   2.632   0.116   4.151 -0.1947  0.2597 -0.8726
  179MOL   C12428960   2.637   7.840   4.226  0.6719  0.3244  0.4754
  179MOL   O12528961   2.582   7.736   4.183 -0.2821 -0.2020  0.8186
  179MOL   H12628962   2.542   0.036   3.968  0.6926 -0.6002  0.4727
  179MOL   H12728963   2.581   0.209   3.978 -0.4892  1.3374  1.8178
  179MOL   H12828964   2.550   0.168   4.199  0.6210  1.3498 -0.6411
  179MOL   H12928965   2.724   0.168   4.178  0.2526 -1.1675  0.4097
  179MOL   C13028966   2.687   7.837   4.371  0.4232 -0.9584 -0.4317
  179MOL   C13128967   2.574   0.021   4.467 -0.1668  0.4369 -0.1433
  179MOL   C13228968   2.610   0.153   4.551 -0.1733 -0.0523 -0.4522
  179MOL   O13328969   2.697   0.234   4.507 -0.8974 -0.2761 -0.2308
  179MOL   H13428970   2.772   0.044   4.386 -0.5687 -0.2455  2.3986
  179MOL   H13528971   2.713   7.734   4.393 -2.3688 -1.3768  1.1608
  179MOL   H13628972   2.558   7.798   4.536 -0.4180  0.9041  0.3585
  179MOL   H13728973   2.481   0.026   4.411 -0.0362 -0.2697 -0.4279
  179MOL   C13828974   2.539   0.172   4.681 -0.2512  0.3312  0.4292
  179MOL   C13928975   2.595   0.275   4.775  0.0049 -0.2983 -0.2585
  179MOL   C14028976   2.573   0.255   4.928  0.6921  0.4564  0.4670
  179MOL   O14128977   2.464   0.217   4.968 -0.2871 -0.1946  0.6184
  179MOL   H14228978   2.532   0.071   4.723 -1.2057  0.8639  1.5979
  179MOL   H14328979   2.434   0.191   4.660 -0.8072 -0.5207  2.2666
  179MOL   H14428980   2.562   0.377   4.756  0.1111 -0.1063  0.5663
  179MOL   H14528981   2.704   0.273   4.768  0.0307 -0.4450  0.1685
  179MOL   C14628982   2.691   0.264   5.020  0.1872 -0.6336  0.1443
  179MOL   C14728983   2.665   0.203   5.161  0.9465 -0.0371 -0.4789
  179MOL   C14828984   2.654   0.049   5.152  0.3488  0.4448 -0.4754
  179MOL   O14928985   2.745   7.843   5.097 -0.6008  0.1300  0.6279
  179MOL   H15028986   2.720   0.369   5.025 -1.5910 -0.0808 -0.4794
  179MOL   H15128987   2.778   0.217   4.975 -0.0369  0.9571 -2.0013
  179MOL   H15228988   2.577   0.245   5.210  0.0626 -1.0682 -1.1624
  179MOL   H15328989   2.763   0.203   5.209  0.1100 -0.5963  1.2690
  179MOL   C15428990   2.531   7.847   5.215 -0.2829 -0.4479 -0.1927
  179MOL   C15528991   2.568   7.743   5.325 -0.0561 -0.0271  1.1062
  179MOL   C15628992   2.447   7.650   5.364 -0.1002 -0.4098 -0.4215
  179MOL   O15728993   2.332   7.698   5.368 -0.4509  0.4511  0.5238
  179MOL   H15828994   2.467   7.806   5.137  0.0612 -1.6338  0.1330
  179MOL   H15928995   2.478   0.067   5.267 -0.6368 -1.0533  0.3756
  179MOL   H16028996   2.621   7.777   5.414  2.7557 -1.2758 -0.0281
  179MOL   H16128997   2.637   7.678   5.270 -0.1395 -0.7140  1.8039
  179MOL   H16228998   2.467   7.550   5.402 -0.8074 -0.8324 -1.1451
  180MOL     C128999   1.557   6.309   5.703 -0.1150  0.1603 -0.2377
  180MOL     C229000   1.603   6.295   5.845 -0.4929 -0.4709 -0.3032
  180MOL     C329001   1.541   6.182   5.922 -0.3233  0.0313 -0.5491
  180MOL     O429002   1.429   6.140   5.899  0.4059  0.2951 -0.1106
  180MOL     H529003   1.580   6.218   5.648  1.2801  1.5415 -2.0084
  180MOL     H629004   1.449   6.323   5.702  0.1134  2.1643  0.9653
  180MOL     H729005   1.570   6.385   5.896  2.2777 -0.9735  2.5922
  180MOL     H829006   1.711   6.304   5.863 -0.8086  1.2577  0.8287
  180MOL     H929007   1.609   6.389   5.650  2.8279  0.1357  2.4412
  180MOL    C1029008   1.615   6.123   6.037 -0.2589 -1.0589  0.0121
  180MOL    C1129009   1.720   6.024   5.992  0.5342 -0.3489 -0.0649
  180MOL    C1229010   1.858   6.079   5.968 -0.8799  0.1827  0.3819
  180MOL    O1329011   1.886   6.193   5.993 -0.2696 -0.1290  0.1453
  180MOL    H1429012   1.543   6.075   6.103  1.0059 -1.1392  1.3593
  180MOL    H1529013   1.655   6.209   6.091 -0.9056  0.9116 -2.5459
  180MOL    H1629014   1.682   5.959   5.913  1.0758 -2.0407  1.0543
  180MOL    H1729015   1.730   5.962   6.080 -0.1386 -1.4495 -0.7574
  180MOL    C1829016   1.964   5.982   5.915  0.4118 -0.1300 -0.0161
  180MOL    C1929017   2.084   6.060   5.868 -0.7673 -0.2167 -0.2209
  180MOL    C2029018   2.183   5.973   5.792 -0.6110  0.6181  0.6171
  180MOL    O2129019   2.155   5.858   5.757  0.2645  0.0797  0.7386
  180MOL    H2229020   1.925   5.929   5.828  1.2712 -2.3010  0.8924
  180MOL    H2329021   1.987   5.901   5.984 -0.7035 -0.8657 -0.4999
  180MOL    H2429022   2.129   6.106   5.956 -0.5309 -1.8446  0.5312
  180MOL    H2529023   2.041   6.141   5.809 -2.4556  0.2121  1.5392
  180MOL    C2629024   2.311   6.042   5.761 -0.1497 -0.2044  0.0973
  180MOL    C2729025   2.414   5.942   5.702 -0.4201  1.0182 -0.2871
  180MOL    C2829026   2.496   5.855   5.806 -0.1642 -0.0283 -0.2531
  180MOL    O2929027   2.463   5.850   5.924  0.0616 -0.1221 -0.0779
  180MOL    H3029028   2.330   6.065   5.866 -1.6037  0.4280  0.2377
  180MOL    H3129029   2.287   6.128   5.699  0.5259 -0.4177 -0.4580
  180MOL    H3229030   2.485   5.991   5.636 -0.4014 -1.6879 -2.3983
  180MOL    H3329031   2.366   5.876   5.629 -2.1254  1.3494  0.4929
  180MOL    C3429032   2.613   5.777   5.749  0.1545  0.0114 -0.0646
  180MOL    C3529033   2.732   5.766   5.843  0.3095  1.0331 -0.5612
  180MOL    C3629034   2.842   5.876   5.836  1.0699 -0.5220 -0.3016
  180MOL    O3729035   2.833   5.961   5.742 -0.0451  0.3083 -0.0176
  180MOL    H3829036   2.642   5.819   5.653 -1.1076  0.9662 -0.0335
  180MOL    H3929037   2.586   5.672   5.734 -2.4241  0.5522  0.5722
  180MOL    H4029038   2.779   5.669   5.828  1.5867  1.3528  1.1791
  180MOL    H4129039   2.698   5.757   5.947 -1.2886 -1.4926 -1.2541
  180MOL    C4229040   2.963   5.877   5.934 -0.1036 -1.1884 -0.6870
  180MOL    C4329041   3.090   5.845   5.854  0.1600 -0.0589 -0.6299
  180MOL    C4429042   3.219   5.845   5.937 -0.4175  0.3581 -0.8219
  180MOL    O4529043   3.231   5.784   6.041 -0.1265  0.1766  0.6402
  180MOL    H4629044   2.949   5.803   6.013  0.0386 -1.7371 -1.1728
  180MOL    H4729045   2.965   5.981   5.966 -1.6284 -0.7416 -1.9912
  180MOL    H4829046   3.115   5.919   5.777 -0.4249  0.2302 -0.5470
  180MOL    H4929047   3.080   5.748   5.804  0.8663  0.2923 -1.4791
  180MOL    C5029048   3.339   5.913   5.880 -0.4485 -0.1865  0.1282
  180MOL    C5129049   3.465   5.829   5.888  0.4410 -0.1765 -0.6443
  180MOL    C5229050   3.563   5.864   5.772  0.4462 -0.6249 -0.6015
  180MOL    O5329051   3.520   5.900   5.661  0.1964  0.4784  0.0562
  180MOL    H5429052   3.353   6.014   5.918  3.7420 -0.5056 -0.4006
  180MOL    H5529053   3.319   5.935   5.775  0.1911  0.0043  0.0492
  180MOL    H5629054   3.437   5.724   5.883 -1.9212  0.2931  1.8467
  180MOL    H5729055   3.498   5.849   5.990  0.6284  0.6207 -0.8612
  180MOL    C5829056   3.708   5.846   5.807  0.0435 -0.4176  0.4428
  180MOL    C5929057   3.803   5.864   5.682  0.1449 -0.2198 -0.2522
  180MOL    C6029058   3.902   5.979   5.698  0.3292  0.5533 -0.5983
  180MOL    O6129059   3.887   6.069   5.781 -0.4653  0.3258  0.2456
  180MOL    H6229060   3.717   5.744   5.844  2.2268  0.2075  1.7299
  180MOL    H6329061   3.742   5.900   5.895  0.3679 -3.5786  2.3256
  180MOL    H6429062   3.743   5.882   5.593  0.1149  2.2564  0.2418
  180MOL    H6529063   3.858   5.770   5.673  1.0843  0.4705 -1.9772
  180MOL    C6629064   4.017   5.980   5.595 -0.1686 -0.6908  0.8114
  180MOL    C6729065   4.143   6.070   5.619 -0.1128 -0.0417  0.0087
  180MOL    C6829066   4.278   6.007   5.577  0.3467  0.4873 -0.5222
  180MOL    O6929067   4.335   5.942   5.659  0.2948 -0.0932 -0.0672
  180MOL    H7029068   3.977   6.016   5.500  1.6830 -1.2547 -0.2142
  180MOL    H7129069   4.037   5.875   5.573  1.7579 -0.5222  1.6876
  180MOL    H7229070   4.159   6.096   5.723  1.1524  1.2079 -0.4718
  180MOL    H7329071   4.128   6.162   5.562  0.4984  0.9444  1.4363
  180MOL    C7429072   4.308   5.993   5.431 -0.5896  0.1842  0.4935
  180MOL    C7529073   4.377   6.116   5.360 -0.4282  0.4238  0.1066
  180MOL    C7629074   4.279   6.226   5.315 -0.1079  0.4999  0.4071
  180MOL    O7729075   4.162   6.211   5.309  0.1535  0.5907  0.0735
  180MOL    H7829076   4.216   5.962   5.383 -0.5237  0.2268  0.3400
  180MOL    H7929077   4.367   5.905   5.405  1.6489  1.9647 -0.6493
  180MOL    H8029078   4.452   6.087   5.287  1.4412  0.0756  2.0831
  180MOL    H8129079   4.450   6.156   5.431 -0.9495  1.7458 -0.0857
  180MOL    C8229080   4.340   6.346   5.258  0.2623 -1.0972  0.0390
  180MOL    C8329081   4.434   6.426   5.345  0.0305 -0.1874 -0.2230
  180MOL    C8429082   4.582   6.395   5.326  0.4484  0.4031  0.1417
  180MOL    O8529083   4.632   6.298   5.378  0.3800 -0.4132  0.2926
  180MOL    H8629084   4.263   6.407   5.211 -0.5820  0.0242  2.7973
  180MOL    H8729085   4.404   6.305   5.179 -0.2102  2.0255 -2.0782
  180MOL    H8829086   4.402   6.431   5.449 -1.4878  0.3956 -0.7025
  180MOL    H8929087   4.417   6.531   5.324  0.8750  0.0867  0.4454
  180MOL    C9029088   4.663   6.490   5.241  0.1380  0.4193  0.6826
  180MOL    C9129089   4.797   6.437   5.193 -0.1669  0.5808  0.1039
  180MOL    C9229090   4.785   6.351   5.066 -0.0670 -0.3372 -1.0108
  180MOL    O9329091   4.690   6.273   5.064  0.1536 -0.6548 -0.5495
  180MOL    H9429092   4.670   6.580   5.302  0.6235  1.3742 -0.7624
  180MOL    H9529093   4.597   6.501   5.154  1.0550 -0.2118 -0.0918
  180MOL    H9629094   4.842   6.388   5.279 -0.9026 -2.3505 -1.1060
  180MOL    H9729095   4.860   6.515   5.150 -0.5821  0.3618 -0.9340
  180MOL    C9829096   4.893   6.350   4.961 -0.2850  0.7586 -0.2670
  180MOL    C9929097   4.944   6.213   4.908 -0.4089 -0.8303  0.1571
  180MOL   C10029098   4.948   6.210   4.752  0.5026  0.2526 -0.2218
  180MOL   O10129099   4.853   6.244   4.684  0.4766  0.2245  0.0235
  180MOL   H10229100   4.978   6.405   5.000  1.4943 -0.4217 -2.3675
  180MOL   H10329101   4.852   6.413   4.882 -0.2562  0.8009 -0.2482
  180MOL   H10429102   4.872   6.135   4.935 -1.2637 -0.3030 -0.5753
  180MOL   H10529103   5.042   6.201   4.954 -0.8165 -1.9804  0.7352
  180MOL   C10629104   5.075   6.144   4.700  0.7287 -0.9331 -0.1419
  180MOL   C10729105   5.082   6.134   4.545  0.0272 -0.0370  0.3007
  180MOL   C10829106   5.120   5.989   4.502  0.9771 -0.0864 -0.1691
  180MOL   O10929107   5.051   5.886   4.529 -0.0379 -0.0238  0.7870
  180MOL   H11029108   5.082   6.048   4.751 -0.7532 -0.9513  0.0659
  180MOL   H11129109   5.151   6.201   4.753  1.9833 -1.3320 -1.5064
  180MOL   H11229110   5.148   6.209   4.502 -0.2456 -0.0946 -0.2334
  180MOL   H11329111   4.989   6.167   4.498  1.3063  1.4450 -1.2053
  180MOL   C11429112   5.249   5.985   4.423 -0.5485 -0.5643 -0.1806
  180MOL   C11529113   5.336   5.859   4.431  0.2845 -0.9785 -0.0712
  180MOL   C11629114   5.463   5.870   4.352 -0.1123  0.0891  0.1951
  180MOL   O11729115   5.501   5.974   4.299  0.0807 -0.2632 -0.1327
  180MOL   H11829116   5.307   6.073   4.450  0.1370 -0.6230 -1.4071
  180MOL   H11929117   5.219   5.996   4.319  0.4170  2.8256 -0.1342
  180MOL   H12029118   5.277   5.778   4.387  0.1462 -1.1268  0.3882
  180MOL   H12129119   5.351   5.829   4.534  3.4705  0.0391 -0.2127
  180MOL   C12229120   5.541   5.744   4.343 -0.1608  0.2527 -0.3106
  180MOL   C12329121   5.697   5.755   4.363  0.2799  0.7507  0.2362
  180MOL   C12429122   5.754   5.618   4.404  0.5005  0.0482 -0.6795
  180MOL   O12529123   5.680   5.529   4.446  0.4011 -0.1637 -0.0974
  180MOL   H12629124   5.512   5.697   4.248  0.3594 -1.3520  0.3114
  180MOL   H12729125   5.497   5.693   4.428 -0.9930  2.0539  0.3842
  180MOL   H12829126   5.704   5.828   4.444 -0.9625  0.1630  0.9005
  180MOL   H12929127   5.743   5.803   4.277 -0.6237 -0.3714 -0.8964
  180MOL   C13029128   5.899   5.594   4.374 -0.5142 -0.7877 -0.1875
  180MOL   C13129129   5.993   5.689   4.462  0.6727  0.0384 -0.3066
  180MOL   C13229130   6.119   5.736   4.390  0.6994 -0.0487 -0.2581
  180MOL   O13329131   6.168   5.674   4.299  0.2520 -0.1470 -0.0760
  180MOL   H13429132   5.913   5.618   4.269 -1.8652  0.9296  0.0037
  180MOL   H13529133   5.936   5.493   4.393 -0.1927 -0.4176  1.2046
  180MOL   H13629134   6.025   5.640   4.554 -1.1300  0.9393  0.8258
  180MOL   H13729135   5.939   5.779   4.493 -0.8370 -0.7966 -0.4901
  180MOL   C13829136   6.187   5.856   4.443 -0.7482  0.6377 -0.4634
  180MOL   C13929137   6.339   5.867   4.422  0.4298 -0.0369  0.3336
  180MOL   C14029138   6.401   6.002   4.416  0.0733 -0.9767  0.4312
  180MOL   O14129139   6.332   6.102   4.426 -0.7385  0.4060 -0.5968
  180MOL   H14229140   6.158   5.869   4.547 -0.2677  1.1662 -0.3915
  180MOL   H14329141   6.143   5.947   4.402  0.6393  1.5385  0.0006
  180MOL   H14429142   6.354   5.823   4.324  0.3726  1.1475 -0.2136
  180MOL   H14529143   6.387   5.801   4.494 -1.1108  0.3407  1.7491
  180MOL   C14629144   6.556   6.015   4.401 -0.3911  0.7904  0.2365
  180MOL   C14729145   6.608   6.135   4.483  0.2356 -0.4733  0.7203
  180MOL   C14829146   6.683   6.102   4.608  0.0972 -0.4232 -1.0660
  180MOL   O14929147   6.719   5.984   4.631  0.8141 -0.5453  0.0012
  180MOL   H15029148   6.574   6.020   4.293 -0.8801  0.1611  0.1184
  180MOL   H15129149   6.601   5.922   4.436 -2.1360 -0.7874 -1.5618
  180MOL   H15229150   6.519   6.189   4.515 -0.5980 -1.0301 -0.6070
  180MOL   H15329151   6.668   6.205   4.425 -3.2116  1.7738 -0.2388
  180MOL   C15429152   6.711   6.211   4.712 -0.2573  0.1035 -0.4519
  180MOL   C15529153   6.859   6.258   4.694  0.2390 -0.0976  0.0944
  180MOL   C15629154   6.938   6.236   4.820  0.4972 -0.8976 -0.1868
  180MOL   O15729155   6.929   6.313   4.916  0.1437  0.1137 -0.8183
  180MOL   H15829156   6.690   6.168   4.810 -1.3720 -0.5923 -0.9832
  180MOL   H15929157   6.648   6.298   4.697 -0.8382 -0.0240  1.1118
  180MOL   H16029158   6.856   6.365   4.673  1.4410  0.1517  1.0990
  180MOL   H16129159   6.903   6.215   4.604 -1.7790  0.8967 -1.4174
  180MOL   H16229160   6.999   6.146   4.811  1.8017 -0.0176 -0.2574
  181MOL     C129161   5.667   5.814   3.973 -0.5631 -0.3274 -0.6693
  181MOL     C229162   5.679   5.783   3.817  0.5224  0.0268  0.1288
  181MOL     C329163   5.541   5.815   3.746 -0.1041  0.4204  0.2980
  181MOL     O429164   5.433   5.813   3.804 -0.4714  0.2000 -0.5300
  181MOL     H529165   5.633   5.915   3.994  0.9370  0.5789 -2.4123
  181MOL     H629166   5.593   5.754   4.027 -0.3244 -0.2089 -0.2031
  181MOL     H729167   5.699   5.678   3.796  0.3536 -0.2109  1.0833
  181MOL     H829168   5.754   5.848   3.772 -0.8027  0.3345 -1.6758
  181MOL     H929169   5.760   5.801   4.030 -1.1368 -0.8986  0.1429
  181MOL    C1029170   5.543   5.859   3.598  0.4424 -0.8523 -0.0424
  181MOL    C1129171   5.416   5.834   3.513  0.4284  1.0102 -0.4433
  181MOL    C1229172   5.451   5.745   3.388  0.0023 -0.5374 -0.2650
  181MOL    O1329173   5.555   5.758   3.320  0.3651 -0.0174 -0.8857
  181MOL    H1429174   5.623   5.823   3.532 -0.3047 -0.0534 -1.4193
  181MOL    H1529175   5.561   5.963   3.624 -1.0869 -0.3420 -0.9774
  181MOL    H1629176   5.388   5.930   3.468  0.5763  2.4179  2.4082
  181MOL    H1729177   5.333   5.796   3.572  0.4974  1.5943  0.0299
  181MOL    C1829178   5.366   5.622   3.372 -0.1008  0.0824 -0.4001
  181MOL    C1929179   5.351   5.566   3.231  0.3615 -0.3459  0.6056
  181MOL    C2029180   5.372   5.414   3.207  0.3427  0.7793 -0.0453
  181MOL    O2129181   5.396   5.336   3.304 -0.3831 -0.1898 -0.2590
  181MOL    H2229182   5.267   5.642   3.415 -0.9724 -2.8006 -0.9616
  181MOL    H2329183   5.418   5.556   3.442  0.5760  0.4142 -0.5852
  181MOL    H2429184   5.402   5.626   3.156  0.2837 -1.8625 -0.6863
  181MOL    H2529185   5.246   5.582   3.210  0.7825 -0.2529 -1.4722
  181MOL    C2629186   5.354   5.357   3.062 -0.4470  0.9253 -0.6452
  181MOL    C2729187   5.376   5.210   3.051 -0.6192 -0.6698  0.0619
  181MOL    C2829188   5.332   5.165   2.914  0.1954 -0.1057  0.0877
  181MOL    O2929189   5.297   5.236   2.821 -0.1071  0.5885  0.0048
  181MOL    H3029190   5.426   5.406   2.996  0.3879  1.2425  0.4700
  181MOL    H3129191   5.254   5.384   3.029 -0.1409  0.0341 -2.3686
  181MOL    H3229192   5.304   5.156   3.113  0.3982 -0.9404  1.0087
  181MOL    H3329193   5.480   5.190   3.076 -0.7573 -0.8018  0.5334
  181MOL    C3429194   5.357   5.012   2.891  0.1759 -0.0709  0.6231
  181MOL    C3529195   5.247   4.946   2.804  0.4318  0.2179 -0.6897
  181MOL    C3629196   5.250   4.790   2.822  0.2368  0.0014  0.3448
  181MOL    O3729197   5.327   4.725   2.899  0.3379  0.6859  0.0145
  181MOL    H3829198   5.366   4.974   2.992  0.5676 -0.7083  0.3514
  181MOL    H3929199   5.455   5.001   2.844  0.4668 -0.1255  1.2466
  181MOL    H4029200   5.254   4.980   2.701  0.3753  1.6578 -0.2290
  181MOL    H4129201   5.151   4.976   2.845  1.4530 -0.6902  2.5400
  181MOL    C4229202   5.163   4.706   2.732 -0.3190 -0.6314 -0.6924
  181MOL    C4329203   5.117   4.569   2.794  0.1587  0.3015  0.1568
  181MOL    C4429204   4.965   4.554   2.819 -0.1226 -0.4912 -0.0068
  181MOL    O4529205   4.914   4.624   2.906  0.2313  0.2887 -0.2877
  181MOL    H4629206   5.207   4.686   2.634  0.5082 -0.0707 -0.4415
  181MOL    H4729207   5.071   4.761   2.713 -1.4624 -2.4079 -0.4434
  181MOL    H4829208   5.141   4.559   2.900  0.5137 -0.6033 -0.0083
  181MOL    H4929209   5.158   4.478   2.752  1.7145  1.1625 -0.2389
  181MOL    C5029210   4.881   4.465   2.729  0.1165  0.2709 -0.5136
  181MOL    C5129211   4.741   4.429   2.781 -0.0368  0.5217 -0.5141
  181MOL    C5229212   4.749   4.302   2.865  0.0132 -0.0527  0.1218
  181MOL    O5329213   4.731   4.310   2.987 -0.6206 -0.0920 -0.5380
  181MOL    H5429214   4.939   4.374   2.714  0.5666  0.8042 -2.1915
  181MOL    H5529215   4.875   4.504   2.627 -0.1965  0.0354 -0.5874
  181MOL    H5629216   4.678   4.404   2.696 -0.1017 -0.7590 -0.1071
  181MOL    H5729217   4.691   4.505   2.840  2.0502  0.2336  1.7251
  181MOL    C5829218   4.804   4.176   2.798 -0.5589  0.9533  0.0512
  181MOL    C5929219   4.692   4.059   2.812 -0.1004  0.7254  0.0672
  181MOL    C6029220   4.746   3.926   2.861 -0.0442 -0.3367  0.8069
  181MOL    O6129221   4.867   3.900   2.854 -0.1030 -0.5295  0.1834
  181MOL    H6229222   4.892   4.154   2.858 -0.5287 -1.0802 -0.7019
  181MOL    H6329223   4.845   4.193   2.698  1.4600  0.4245  0.7788
  181MOL    H6429224   4.617   4.056   2.733  0.0639  0.9265 -0.0993
  181MOL    H6529225   4.624   4.104   2.884 -0.3479  1.2808 -0.5120
  181MOL    C6629226   4.646   3.817   2.894 -0.3449 -0.3139  0.2617
  181MOL    C6729227   4.648   3.769   3.047 -0.2530 -0.8112 -0.4627
  181MOL    C6829228   4.692   3.627   3.043  0.0691  0.3902  0.0744
  181MOL    O6929229   4.812   3.594   3.048  0.1281 -0.1446  0.0799
  181MOL    H7029230   4.658   3.735   2.824 -1.7786 -0.5525  0.2918
  181MOL    H7129231   4.546   3.857   2.878 -0.0946 -0.0488 -0.6872
  181MOL    H7229232   4.543   3.766   3.076 -0.2988 -1.1107 -0.6533
  181MOL    H7329233   4.710   3.828   3.115  0.3926 -2.1605  0.1396
  181MOL    C7429234   4.579   3.518   3.024 -0.1160  0.2082  0.2286
  181MOL    C7529235   4.635   3.391   2.964 -0.1057 -0.1534 -0.1224
  181MOL    C7629236   4.613   3.386   2.821 -0.7521  0.3711 -0.1780
  181MOL    O7729237   4.597   3.490   2.758  0.5421 -0.0981 -0.4743
  181MOL    H7829238   4.499   3.558   2.962  1.2121  1.7469 -0.5425
  181MOL    H7929239   4.549   3.501   3.128  1.4186 -3.1282  0.1831
  181MOL    H8029240   4.583   3.307   3.011 -0.4074  0.4162  0.5700
  181MOL    H8129241   4.742   3.378   2.978  0.0688  1.3888  0.0700
  181MOL    C8229242   4.618   3.241   2.759  0.1474 -0.0054 -0.0730
  181MOL    C8329243   4.589   3.249   2.601 -0.3141 -0.3380 -0.2045
  181MOL    C8429244   4.462   3.172   2.567  0.0674  0.4642 -1.0173
  181MOL    O8529245   4.355   3.227   2.571 -0.3181 -0.3934  0.6517
  181MOL    H8629246   4.546   3.183   2.817  1.1054 -0.9607  0.1777
  181MOL    H8729247   4.714   3.202   2.792 -0.4215 -1.1827  0.2069
  181MOL    H8829248   4.674   3.192   2.562  0.6384  1.0451 -0.1540
  181MOL    H8929249   4.612   3.339   2.545 -0.1336 -0.7927 -0.8706
  181MOL    C9029250   4.474   3.024   2.528  0.0116 -0.5179 -0.7625
  181MOL    C9129251   4.390   2.994   2.404 -0.2470  0.8701  0.5130
  181MOL    C9229252   4.242   2.984   2.434  0.3328 -0.8456 -0.2334
  181MOL    O9329253   4.200   2.932   2.534  0.1468  0.0267 -1.0712
  181MOL    H9429254   4.444   2.964   2.614 -3.2623 -0.8889 -2.0794
  181MOL    H9529255   4.578   3.001   2.505  1.1906 -0.4168  4.0302
  181MOL    H9629256   4.441   2.910   2.358  1.0315  1.9893 -0.1786
  181MOL    H9729257   4.392   3.075   2.331  0.3966 -1.3261 -1.9582
  181MOL    C9829258   4.136   3.040   2.334 -0.0777 -0.3759 -0.4546
  181MOL    C9929259   4.027   3.118   2.404 -0.0555 -0.0727  0.0524
  181MOL   C10029260   4.047   3.272   2.395  0.4946  0.1808 -0.2383
  181MOL   O10129261   4.120   3.327   2.312  0.4798 -0.0469  0.1325
  181MOL   H10229262   4.102   2.945   2.294  1.1244 -0.4986 -1.2254
  181MOL   H10329263   4.183   3.089   2.249  0.0941  0.8249  0.3258
  181MOL   H10429264   4.042   3.091   2.509  0.4330 -1.5060 -0.3745
  181MOL   H10529265   3.925   3.101   2.370  0.1227 -0.6179 -0.2106
  181MOL   C10629266   3.960   3.341   2.497  0.0944  0.0343 -0.3147
  181MOL   C10729267   4.044   3.374   2.615 -0.7379  0.1111 -1.0476
  181MOL   C10829268   4.096   3.518   2.628  0.0260  0.2195 -0.3153
  181MOL   O10929269   4.049   3.610   2.564 -0.2035  0.1971  0.0483
  181MOL   H11029270   3.866   3.288   2.514  0.7541 -0.1091  3.0968
  181MOL   H11129271   3.936   3.434   2.445 -1.7609  0.2328  0.8652
  181MOL   H11229272   4.130   3.307   2.618 -0.7191  0.1536 -0.6059
  181MOL   H11329273   3.974   3.362   2.698  0.1727  1.2410 -0.1008
  181MOL   C11429274   4.207   3.542   2.728  0.5659 -0.1414 -0.3770
  181MOL   C11529275   4.151   3.605   2.861  0.4747  0.2531 -0.3954
  181MOL   C11629276   4.185   3.749   2.888 -0.4098 -0.1602 -0.3860
  181MOL   O11729277   4.194   3.823   2.793 -0.1374 -0.0085  0.0901
  181MOL   H11829278   4.273   3.614   2.679  0.3031 -0.0463 -0.5949
  181MOL   H11929279   4.270   3.455   2.745 -1.5404 -1.4388  0.9173
  181MOL   H12029280   4.177   3.550   2.951 -2.5637  0.7630  0.8555
  181MOL   H12129281   4.043   3.595   2.851  0.3472  1.3838 -0.2113
  181MOL   C12229282   4.223   3.785   3.029 -0.5511  0.6763  0.3515
  181MOL   C12329283   4.194   3.938   3.054 -0.0135  0.3967  0.0557
  181MOL   C12429284   4.314   4.028   3.077  0.1603 -0.7698  0.2628
  181MOL   O12529285   4.424   3.977   3.101 -0.0244  0.0191 -0.3009
  181MOL   H12629286   4.327   3.763   3.055 -0.4650  1.0784  0.3495
  181MOL   H12729287   4.169   3.718   3.096  0.0740 -0.5820 -0.3779
  181MOL   H12829288   4.129   3.956   3.140  0.7070 -1.4736  1.0074
  181MOL   H12929289   4.149   3.982   2.965 -3.8874 -3.6032 -0.1128
  181MOL   C13029290   4.287   4.180   3.070 -0.4331 -0.4284 -0.0651
  181MOL   C13129291   4.422   4.255   3.075  0.3515  0.0519 -0.6499
  181MOL   C13229292   4.436   4.362   3.188 -0.2961  0.2757  0.1197
  181MOL   O13329293   4.414   4.332   3.307 -0.1525  0.1084 -0.1494
  181MOL   H13429294   4.223   4.205   3.154 -0.8367 -0.1450 -0.4583
  181MOL   H13529295   4.239   4.213   2.978 -0.5814 -1.3575 -0.3285
  181MOL   H13629296   4.423   4.310   2.981  1.8086  0.4692 -0.4040
  181MOL   H13729297   4.516   4.201   3.067  0.5108  0.5278 -2.1306
  181MOL   C13829298   4.481   4.504   3.147 -0.0139  0.2691 -0.2957
  181MOL   C13929299   4.535   4.591   3.263  0.1089 -0.2854 -0.2814
  181MOL   C14029300   4.443   4.706   3.300 -0.1877 -0.1951  0.0535
  181MOL   O14129301   4.358   4.748   3.220  0.0458  0.2553 -0.5884
  181MOL   H14229302   4.404   4.559   3.094 -0.7575 -1.1750 -0.7273
  181MOL   H14329303   4.561   4.491   3.075  0.2874 -1.3297  0.3111
  181MOL   H14429304   4.638   4.620   3.242  0.5126 -1.1715  0.4153
  181MOL   H14529305   4.558   4.536   3.355  1.0260  0.7328  0.1102
  181MOL   C14629306   4.464   4.776   3.436 -0.3024 -0.4110  0.5378
  181MOL   C14729307   4.560   4.896   3.424  0.1864  0.2450  0.4801
  181MOL   C14829308   4.693   4.857   3.485 -0.2683  0.3006 -0.0939
  181MOL   O14929309   4.754   4.765   3.434  0.0685  0.3165 -0.0903
  181MOL   H15029310   4.500   4.699   3.503  3.0387 -0.7308 -1.5187
  181MOL   H15129311   4.374   4.813   3.485 -0.6704  0.2094 -0.5916
  181MOL   H15229312   4.529   4.992   3.463  0.1969  0.0637  0.9385
  181MOL   H15329313   4.585   4.925   3.322 -1.8752 -2.3376 -0.8387
  181MOL   C15429314   4.744   4.947   3.597  0.1507 -0.2210 -0.8710
  181MOL   C15529315   4.840   4.882   3.689 -0.3319 -0.6199  0.0147
  181MOL   C15629316   4.881   4.967   3.807  0.3142 -0.2599  0.3171
  181MOL   O15729317   4.787   5.007   3.885 -0.3904  0.4278  0.4412
  181MOL   H15829318   4.651   4.973   3.647  1.0952  0.3260  0.6211
  181MOL   H15929319   4.781   5.043   3.562  0.8992  0.4252  1.6515
  181MOL   H16029320   4.928   4.849   3.634  0.8859 -0.1099  1.6186
  181MOL   H16129321   4.785   4.800   3.735  1.2898 -2.6201 -1.5671
  181MOL   H16229322   4.987   4.986   3.822  0.9018 -3.3722  0.5967
  182MOL     C129323   6.105   3.627   6.430 -0.8701  0.1806  0.2859
  182MOL     C229324   6.262   3.638   6.429 -0.1402  0.4112  0.1558
  182MOL     C329325   6.317   3.699   6.565  0.5320  0.3381  0.0029
  182MOL     O429326   6.254   3.741   6.666 -0.5352  0.0510  0.5814
  182MOL     H529327   6.083   3.720   6.379  0.8282  0.7867  0.5950
  182MOL     H629328   6.070   3.541   6.374  2.6409 -1.1604 -0.0003
  182MOL     H729329   6.296   3.699   6.346  0.3723 -0.9175 -0.6221
  182MOL     H829330   6.296   3.536   6.414 -2.0644  0.0848 -2.3036
  182MOL     H929331   6.053   3.635   6.526  0.6613 -1.1003  1.2503
  182MOL    C1029332   6.471   3.702   6.561 -0.2406 -0.0326  0.3586
  182MOL    C1129333   6.525   3.843   6.597 -0.1540  0.8408 -0.4981
  182MOL    C1229334   6.533   3.929   6.468 -0.4952  0.4011 -0.2284
  182MOL    O1329335   6.533   3.884   6.354  0.3929 -0.3483  0.0589
  182MOL    H1429336   6.509   3.662   6.467  1.0976  0.5079  0.6584
  182MOL    H1529337   6.504   3.640   6.644 -1.9270 -0.3670  0.7877
  182MOL    H1629338   6.627   3.824   6.632 -0.9629 -0.3137  1.3092
  182MOL    H1729339   6.466   3.899   6.669  1.0363  3.0989 -1.2469
  182MOL    C1829340   6.539   4.071   6.492 -0.0686 -0.5459  0.1568
  182MOL    C1929341   6.602   4.147   6.370 -0.0433 -0.2861 -0.6291
  182MOL    C2029342   6.752   4.141   6.379 -0.2956 -0.7182 -0.1706
  182MOL    O2129343   6.815   4.121   6.482  0.3320  0.7539 -0.2961
  182MOL    H2229344   6.597   4.079   6.584  0.3776  0.2154 -0.1855
  182MOL    H2329345   6.440   4.109   6.518 -0.2134 -1.0503  0.3482
  182MOL    H2429346   6.572   4.251   6.380 -0.8688 -0.7101  1.5262
  182MOL    H2529347   6.569   4.099   6.277  2.5869 -1.7479 -0.8705
  182MOL    C2629348   6.818   4.156   6.249 -0.1761  0.2564 -0.2383
  182MOL    C2729349   6.970   4.150   6.256  0.1690 -0.0208  0.6854
  182MOL    C2829350   7.030   4.268   6.182 -0.1306  0.1749 -0.1462
  182MOL    O2929351   6.987   4.295   6.071 -0.4434 -0.0691 -0.0080
  182MOL    H3029352   6.781   4.233   6.181  0.9673  1.3199  0.3319
  182MOL    H3129353   6.787   4.066   6.197  0.8507 -1.0078  1.2969
  182MOL    H3229354   7.003   4.057   6.209 -2.1573  0.0883 -1.2208
  182MOL    H3329355   7.014   4.142   6.356  1.5208  1.5370  0.2301
  182MOL    C3429356   7.128   4.355   6.251 -0.2267  0.0923  0.6437
  182MOL    C3529357   7.210   4.446   6.155  0.4839  0.2324 -0.1668
  182MOL    C3629358   7.216   4.588   6.200 -0.1266 -0.3502 -0.1246
  182MOL    O3729359   7.127   4.639   6.266  0.0065 -0.2642 -0.1489
  182MOL    H3829360   7.188   4.300   6.324 -1.5483 -1.1950  0.7939
  182MOL    H3929361   7.068   4.413   6.321 -0.0341 -0.3606  1.1903
  182MOL    H4029362   7.172   4.438   6.053 -1.0811  0.5101  0.3856
  182MOL    H4129363   7.312   4.407   6.155  1.1515  1.8763  2.9641
  182MOL    C4229364   7.342   4.660   6.161  1.4747  0.4294  0.3702
  182MOL    C4329365   7.348   4.803   6.214  0.1474 -0.0262 -0.0294
  182MOL    C4429366   7.482   4.845   6.262  0.0187  0.9263 -0.9355
  182MOL    O4529367   7.577   4.765   6.289  0.3501 -0.2778  0.4809
  182MOL    H4629368   7.350   4.665   6.053 -2.4473 -1.2262 -0.0846
  182MOL    H4729369   7.424   4.596   6.195  1.8216  1.2118  1.0345
  182MOL    H4829370   7.282   4.810   6.301 -0.9920 -2.9257 -0.6077
  182MOL    H4929371   7.321   4.885   6.147  0.4368  1.4096  1.5901
  182MOL    C5029372   7.493   4.997   6.282  0.4293  0.2938  0.0427
  182MOL    C5129373   7.632   5.033   6.330  0.1027  0.5855  0.9305
  182MOL    C5229374   7.639   5.096   6.469  0.0609 -0.2490 -0.1162
  182MOL    O5329375   7.534   5.110   6.535  0.2387  0.2437 -0.0115
  182MOL    H5429376   7.417   5.017   6.357  1.3482 -1.1680  1.3913
  182MOL    H5529377   7.478   5.054   6.190 -1.2958  1.0558  0.7708
  182MOL    H5629378   7.685   5.088   6.252 -0.4566  0.0828  0.1892
  182MOL    H5729379   7.701   4.949   6.330 -0.0100  0.4896 -0.1802
  182MOL    C5829380   7.783   5.124   6.513  1.0766 -0.0207 -0.2072
  182MOL    C5929381   7.814   5.268   6.541 -0.3640  0.7230 -0.1899
  182MOL    C6029382   7.818   5.357   6.420 -0.9378  0.0950 -0.2889
  182MOL    O6129383   7.766   5.325   6.318 -0.0679  0.1047 -0.8261
  182MOL    H6229384   7.845   5.089   6.431  0.0803 -2.2406 -0.0635
  182MOL    H6329385   7.805   5.068   6.604  0.1373  0.4422  0.3124
  182MOL    H6429386   0.044   5.262   6.603  1.2607 -0.4812 -2.5519
  182MOL    H6529387   7.738   5.305   6.610 -0.6181  0.6727 -0.4387
  182MOL    C6629388   7.853   5.506   6.433 -0.3556  0.3152  0.0037
  182MOL    C6729389   7.827   5.591   6.310 -0.7128  0.0264 -0.4702
  182MOL    C6829390   0.063   5.714   6.292 -0.2590  0.6930  0.3381
  182MOL    O6929391   0.046   5.817   6.348  0.5040 -0.2129  0.7347
  182MOL    H7029392   0.097   5.523   6.464 -0.7943  1.7542  0.7276
  182MOL    H7129393   7.796   5.556   6.511 -0.6456  1.3799 -0.8708
  182MOL    H7229394   7.720   5.610   6.297 -1.2555 -0.9437  2.2698
  182MOL    H7329395   7.850   5.526   6.226 -0.8479 -1.0805  0.3382
  182MOL    C7429396   0.155   5.713   6.167 -0.0471  0.6193  0.1128
  182MOL    C7529397   0.078   5.751   6.034  0.7478  0.6762  0.0763
  182MOL    C7629398   0.154   5.851   5.941  0.4082 -0.4061 -0.1428
  182MOL    O7729399   0.255   5.906   5.988  0.3321  0.7089  0.4519
  182MOL    H7829400   0.197   5.613   6.159 -4.4728 -1.4043  0.8358
  182MOL    H7929401   0.247   5.769   6.188 -0.3883  0.2368  2.7723
  182MOL    H8029402   7.841   5.797   6.055  1.3213  2.0103 -0.0981
  182MOL    H8129403   0.064   5.660   5.976 -1.5251  0.2099  1.3051
  182MOL    C8229404   0.099   5.869   5.800 -0.4111 -0.3112  0.4231
  182MOL    C8329405   0.107   6.011   5.745  0.2429  0.1430  0.4430
  182MOL    C8429406   0.225   6.018   5.657 -0.0878 -0.7258 -0.0464
  182MOL    O8529407   0.262   5.931   5.575 -0.0194 -0.3170  0.4157
  182MOL    H8629408   7.852   5.851   5.817 -0.8314 -1.3664 -2.9437
  182MOL    H8729409   0.141   5.789   5.738  4.3423  1.5753  0.9996
  182MOL    H8829410   0.115   6.086   5.824  1.7486 -2.1628  2.5434
  182MOL    H8929411   0.013   6.034   5.694 -0.5845 -0.6155  1.6115
  182MOL    C9029412   0.304   6.152   5.670 -0.4619  0.4157  0.2904
  182MOL    C9129413   0.416   6.172   5.570 -0.0855  0.1080  0.1770
  182MOL    C9229414   0.359   6.199   5.429  0.0583  0.4268  0.4398
  182MOL    O9329415   0.286   6.297   5.413 -0.2808 -0.3009 -0.6254
  182MOL    H9429416   0.350   6.143   5.769 -0.1354 -4.1557 -0.1528
  182MOL    H9529417   0.241   6.240   5.662  2.0372  2.0957 -1.2140
  182MOL    H9629418   0.489   6.092   5.572  1.0460  1.0742 -1.5575
  182MOL    H9729419   0.479   6.256   5.600 -1.1637  1.0249 -0.0893
  182MOL    C9829420   0.398   6.102   5.319 -0.5677  0.3498  0.5098
  182MOL    C9929421   0.395   6.182   5.187  0.3604 -0.2486  0.3975
  182MOL   C10029422   0.470   6.103   5.080 -0.0644 -0.3730 -0.1595
  182MOL   O10129423   0.491   5.982   5.098 -0.0457  0.0282 -0.0745
  182MOL   H10229424   0.327   6.020   5.330 -1.9549  1.6653  1.5858
  182MOL   H10329425   0.493   6.055   5.345 -2.8765 -3.3371  2.6569
  182MOL   H10429426   0.442   6.280   5.199  1.4047 -0.6464 -0.3380
  182MOL   H10529427   0.295   6.213   5.155  0.4555  0.5951  0.8846
  182MOL   C10629428   0.505   6.169   4.946 -0.0410  0.5415 -0.3552
  182MOL   C10729429   0.608   6.093   4.860 -0.4772  0.5868  0.7293
  182MOL   C10829430   0.688   6.178   4.762 -0.4698  0.1052  0.2883
  182MOL   O10929431   0.663   6.299   4.752 -0.7304 -0.6267  0.6999
  182MOL   H11029432   0.552   6.262   4.978  0.5114 -0.1858  0.9612
  182MOL   H11129433   0.417   6.191   4.885  2.1465  2.9803 -2.8013
  182MOL   H11229434   0.543   6.018   4.813 -0.6868  0.3097  1.4497
  182MOL   H11329435   0.680   6.042   4.923  0.1985 -1.8575 -1.8877
  182MOL   C11429436   0.804   6.117   4.684  0.0311  0.4165 -0.0853
  182MOL   C11529437   0.871   6.218   4.593  0.1469  0.2492 -0.1996
  182MOL   C11629438   0.953   6.147   4.482 -0.1350 -0.3405 -0.0818
  182MOL   O11729439   0.963   6.028   4.473 -0.0382  0.3095  0.9052
  182MOL   H11829440   0.751   6.044   4.624 -0.6697 -0.6959  1.8375
  182MOL   H11929441   0.872   6.065   4.751 -0.2820  2.0371  1.5414
  182MOL   H12029442   0.934   6.288   4.647 -2.1252  2.6784 -0.5522
  182MOL   H12129443   0.802   6.276   4.532 -0.4561  0.4985  0.7057
  182MOL   C12229444   1.014   6.240   4.376  0.1748 -0.5800  0.5905
  182MOL   C12329445   1.122   6.168   4.298 -0.1623 -0.1070  0.0863
  182MOL   C12429446   1.074   6.086   4.184 -0.7002  0.8287  0.7702
  182MOL   O12529447   1.034   6.147   4.083 -0.1704  0.3797 -0.3957
  182MOL   H12629448   1.056   6.323   4.433 -0.3258 -0.4522  0.7690
  182MOL   H12729449   0.934   6.281   4.316 -0.3276 -0.6169  1.2282
  182MOL   H12829450   1.172   6.094   4.360 -2.0982 -0.9431  0.6918
  182MOL   H12929451   1.198   6.238   4.262 -0.2281 -0.6719 -1.1801
  182MOL   C13029452   1.099   5.936   4.189  1.0093  0.7102 -0.0385
  182MOL   C13129453   1.088   5.871   4.051 -0.1850  0.1803 -0.0274
  182MOL   C13229454   1.183   5.750   4.036 -0.6032 -0.3227  0.8129
  182MOL   O13329455   1.272   5.728   4.124  0.6813  0.3418  0.2539
  182MOL   H13429456   1.026   5.892   4.256 -0.0730  1.0423 -0.9859
  182MOL   H13529457   1.199   5.925   4.231 -0.4482  0.8448  3.6926
  182MOL   H13629458   1.114   5.943   3.973  1.4214 -0.2550  0.0891
  182MOL   H13729459   0.988   5.834   4.026  0.0529 -0.8238  0.4832
  182MOL   C13829460   1.190   5.694   3.890  0.6345 -0.0994  0.1581
  182MOL   C13929461   1.327   5.644   3.842  0.0842  0.1363 -0.1270
  182MOL   C14029462   1.416   5.752   3.766 -0.2539  0.7676 -0.8976
  182MOL   O14129463   1.385   5.871   3.754 -0.3659  0.4690 -0.0119
  182MOL   H14229464   1.150   5.773   3.827 -0.6048  0.0666  1.1394
  182MOL   H14329465   1.123   5.611   3.868 -1.6718  1.7379  0.0234
  182MOL   H14429466   1.320   5.560   3.772 -1.7131  0.0583  0.1147
  182MOL   H14529467   1.388   5.596   3.918 -0.4363  0.3631  0.4360
  182MOL   C14629468   1.536   5.699   3.685  0.1912 -0.0101  1.1348
  182MOL   C14729469   1.526   5.745   3.536 -0.3393  0.4963  0.1795
  182MOL   C14829470   1.425   5.662   3.455  0.3765  0.5917  0.6591
  182MOL   O14929471   1.371   5.560   3.496  0.3170 -0.7400 -0.2009
  182MOL   H15029472   1.537   5.590   3.682 -1.2720  0.0089 -1.1274
  182MOL   H15129473   1.632   5.727   3.728  0.9482  2.2462 -1.8491
  182MOL   H15229474   1.626   5.754   3.494  0.6031 -1.7242  1.9032
  182MOL   H15329475   1.493   5.849   3.536  0.9070  0.9122 -1.3514
  182MOL   C15429476   1.409   5.697   3.311  0.8862  0.1336  0.3157
  182MOL   C15529477   1.267   5.750   3.273  0.6809 -0.1700  0.0942
  182MOL   C15629478   1.254   5.900   3.236 -0.3839 -0.0682  0.1683
  182MOL   O15729479   1.293   5.991   3.316  0.5300 -0.3331 -0.0043
  182MOL   H15829480   1.432   5.606   3.255  0.0985  0.7575 -1.0561
  182MOL   H15929481   1.489   5.768   3.286 -1.3748  2.3453 -0.9054
  182MOL   H16029482   1.185   5.733   3.343 -0.7884  1.4727 -1.1744
  182MOL   H16129483   1.235   5.700   3.182  0.7464 -1.3189  0.6851
  182MOL   H16229484   1.206   5.912   3.139 -2.9483 -0.7267  1.3093
  183MOL     C129485   0.988   2.252   4.142  0.3226  0.3752  0.2411
  183MOL     C229486   1.048   2.164   4.041  0.2872 -0.3752 -0.0611
  183MOL     C329487   1.014   2.021   4.044 -0.2780  0.5952 -0.0663
  183MOL     O429488   0.930   1.984   4.120  0.5764 -0.2273 -0.7157
  183MOL     H529489   0.882   2.226   4.147  0.4099 -0.1549 -0.5047
  183MOL     H629490   1.029   2.244   4.242  1.4782 -2.2200 -0.4059
  183MOL     H729491   1.157   2.166   4.042  0.2632  2.7436  1.4328
  183MOL     H829492   1.026   2.211   3.945 -0.3411  0.3768  0.4487
  183MOL     H929493   0.991   2.357   4.114  0.8139  0.1384 -0.6235
  183MOL    C1029494   1.083   1.933   3.942 -0.0303  0.3619 -0.6202
  183MOL    C1129495   1.004   1.790   3.935 -0.2811 -0.7453  0.1622
  183MOL    C1229496   0.938   1.777   3.800 -0.6208  0.3458 -0.4617
  183MOL    O1329497   0.961   1.863   3.716  0.0613 -0.8756 -0.8622
  183MOL    H1429498   1.185   1.910   3.972 -0.0372 -0.1281 -0.9628
  183MOL    H1529499   1.089   1.984   3.846  1.8609 -0.6584 -1.0750
  183MOL    H1629500   0.927   1.781   4.011  0.1449 -4.3415  0.2442
  183MOL    H1729501   1.081   1.713   3.933  1.5500  0.9930  1.5904
  183MOL    C1829502   0.847   1.660   3.774  0.0050  0.3868  0.0312
  183MOL    C1929503   0.765   1.665   3.647  0.0456 -0.1236 -0.1352
  183MOL    C2029504   0.642   1.579   3.645  0.2203  0.1781  0.5794
  183MOL    O2129505   0.612   1.501   3.731  0.1306 -0.1401  0.1957
  183MOL    H2229506   0.782   1.656   3.862  0.4744  0.9408  0.4084
  183MOL    H2329507   0.899   1.569   3.805  1.1136  0.3511 -1.8652
  183MOL    H2429508   0.829   1.643   3.562 -1.3357 -0.6566 -1.0718
  183MOL    H2529509   0.748   1.768   3.616 -0.3915 -0.5570 -1.3930
  183MOL    C2629510   0.547   1.608   3.529  0.7626  0.2584  0.2026
  183MOL    C2729511   0.430   1.692   3.578  0.0368  0.1645  0.7527
  183MOL    C2829512   0.306   1.612   3.627 -0.2010 -0.6771  1.2944
  183MOL    O2929513   0.279   1.502   3.582 -0.2042 -0.1283 -0.0684
  183MOL    H3029514   0.519   1.515   3.480  0.1776  0.5916 -0.0954
  183MOL    H3129515   0.602   1.660   3.450  2.7039  1.1718  2.0640
  183MOL    H3229516   0.392   1.768   3.510  0.6324 -0.7265 -0.6007
  183MOL    H3329517   0.464   1.757   3.658  0.3498  0.9289 -0.0004
  183MOL    C3429518   0.226   1.672   3.746  0.4031  0.4205  0.1796
  183MOL    C3529519   0.078   1.631   3.751 -0.0576  0.0843 -0.8807
  183MOL    C3629520   0.015   1.652   3.886  0.3181  0.4908  0.6069
  183MOL    O3729521   7.844   1.765   3.914 -0.3246  0.4782  0.1636
  183MOL    H3829522   0.232   1.781   3.747  1.1824  0.3953 -0.7991
  183MOL    H3929523   0.282   1.631   3.829 -2.8891 -1.8823  1.3636
  183MOL    H4029524   0.060   1.526   3.725 -0.7112  0.0593 -0.3480
  183MOL    H4129525   0.029   1.700   3.683  0.6421  0.5161 -0.9490
  183MOL    C4229526   7.829   1.530   3.967  0.0384  0.3809 -0.4397
  183MOL    C4329527   7.770   1.561   4.106 -0.0584 -0.2332 -0.1862
  183MOL    C4429528   7.796   1.454   4.215  1.0682  0.1872  0.4560
  183MOL    O4529529   0.018   1.371   4.184  0.3356  0.4968  0.3279
  183MOL    H4629530   0.043   1.449   3.970 -0.4030  0.0224  1.0878
  183MOL    H4729531   7.757   1.470   3.911  0.5885  0.7229 -1.5236
  183MOL    H4829532   7.665   1.588   4.098 -0.2319 -1.5798 -2.7173
  183MOL    H4929533   7.814   1.656   4.138  0.0806 -0.0996 -0.7750
  183MOL    C5029534   7.721   1.471   4.345  0.0602  0.2211  0.2594
  183MOL    C5129535   7.755   1.357   4.439  0.2408 -0.2197  0.4227
  183MOL    C5229536   7.858   1.377   4.544 -0.6989  0.4102  0.1251
  183MOL    O5329537   0.008   1.482   4.599  0.4150 -0.4951  0.0888
  183MOL    H5429538   7.616   1.488   4.323  0.2002 -1.1319 -1.6418
  183MOL    H5529539   7.768   1.558   4.390  3.7499 -1.4495 -0.1935
  183MOL    H5629540   7.780   1.261   4.394 -3.7174 -0.7979 -0.7723
  183MOL    H5729541   7.664   1.337   4.497 -0.8881 -1.4147 -1.6985
  183MOL    C5829542   0.071   1.254   4.590 -0.0068 -0.4624  0.2106
  183MOL    C5929543   0.181   1.264   4.701 -0.0794  0.1937  0.5213
  183MOL    C6029544   0.136   1.194   4.825  0.3174  0.3310 -0.4433
  183MOL    O6129545   0.179   1.086   4.853  0.6685  0.1615  0.1995
  183MOL    H6229546   0.128   1.226   4.502 -0.0698 -0.3145  0.1226
  183MOL    H6329547   0.002   1.170   4.590 -0.0069 -0.4782 -1.3647
  183MOL    H6429548   0.201   1.368   4.726  0.7519  0.7233 -2.2003
  183MOL    H6529549   0.271   1.220   4.658 -1.1546  0.8581 -2.5750
  183MOL    C6629550   0.056   1.273   4.925 -0.2437  0.3811  0.8514
  183MOL    C6729551   7.837   1.188   5.028  0.3124 -0.3664 -0.2599
  183MOL    C6829552   7.686   1.187   5.003 -0.1297 -0.2186  0.2604
  183MOL    O6929553   7.644   1.204   4.887  0.3655 -0.4762  0.0295
  183MOL    H7029554   7.858   1.342   4.862  0.5573  0.7491  0.5333
  183MOL    H7129555   0.118   1.345   4.978 -0.4515  0.6387  0.7460
  183MOL    H7229556   7.852   1.215   5.132  1.0160  0.6002 -0.6004
  183MOL    H7329557   0.004   1.083   5.020  2.9202  0.2249 -0.0528
  183MOL    C7429558   7.597   1.155   5.117  0.4828  0.1216 -0.7135
  183MOL    C7529559   7.448   1.176   5.092  0.2000 -0.0069 -0.3912
  183MOL    C7629560   7.381   1.283   5.182  0.6857 -0.3330 -0.0743
  183MOL    O7729561   7.339   1.387   5.130 -0.3581 -0.0225  0.6129
  183MOL    H7829562   7.626   1.217   5.202 -1.9287 -0.5902  0.6674
  183MOL    H7929563   7.621   1.052   5.145 -0.7895 -0.3956 -1.5077
  183MOL    H8029564   7.386   1.088   5.111 -1.3752  1.1513 -0.0518
  183MOL    H8129565   7.425   1.206   4.990  0.1447 -0.9252 -0.6498
  183MOL    C8229566   7.389   1.272   5.335 -0.5728  0.1297 -0.3186
  183MOL    C8329567   7.411   1.414   5.400  0.1446  0.0551 -0.4890
  183MOL    C8429568   7.563   1.443   5.409 -0.2810  0.1321 -1.0129
  183MOL    O8529569   7.651   1.359   5.405 -0.4878 -0.1197  0.1792
  183MOL    H8629570   7.471   1.206   5.364 -0.6881  1.1123  2.4523
  183MOL    H8729571   7.291   1.236   5.367  0.2976 -1.7371  0.3030
  183MOL    H8829572   7.375   1.406   5.502  2.3297  0.7546  0.3534
  183MOL    H8929573   7.347   1.494   5.360 -0.7036 -0.8102 -0.8919
  183MOL    C9029574   7.602   1.591   5.418 -1.0410  0.4515  0.2131
  183MOL    C9129575   7.719   1.621   5.328  0.8537  0.0873 -0.1068
  183MOL    C9229576   7.845   1.606   5.414 -0.3063  0.2656 -0.6156
  183MOL    O9329577   0.004   1.666   5.523 -0.3428 -0.4216  0.3031
  183MOL    H9429578   7.614   1.627   5.521 -0.9454 -1.9601  1.0809
  183MOL    H9529579   7.518   1.654   5.389 -2.0771 -0.7709  0.5193
  183MOL    H9629580   7.723   1.720   5.282  3.1174 -0.1399 -0.4116
  183MOL    H9729581   7.725   1.552   5.244 -2.1697 -0.0913 -0.2484
  183MOL    C9829582   0.086   1.496   5.381 -0.2052  0.4041 -0.4355
  183MOL    C9929583   0.194   1.533   5.280 -0.1818 -0.5643  0.0286
  183MOL   C10029584   0.285   1.412   5.259  0.2004 -0.4835  0.0765
  183MOL   O10129585   0.241   1.296   5.243 -0.0743  0.3034 -0.1108
  183MOL   H10229586   0.024   1.418   5.336 -0.5217  1.5334 -2.0093
  183MOL   H10329587   0.133   1.456   5.471 -1.8063 -0.2177  0.1320
  183MOL   H10429588   0.251   1.622   5.305 -1.7642  0.4240  0.1914
  183MOL   H10529589   0.152   1.565   5.185  2.0852  0.3697 -0.6924
  183MOL   C10629590   0.431   1.442   5.262 -0.3131 -0.2042  0.6477
  183MOL   C10729591   0.520   1.320   5.219  0.2188  0.1672  0.3300
  183MOL   C10829592   0.628   1.368   5.122 -0.5780  0.0144  0.0080
  183MOL   O10929593   0.602   1.411   5.013  0.5456 -0.6636  0.0134
  183MOL   H11029594   0.453   1.478   5.363 -0.2815  0.4014  0.4271
  183MOL   H11129595   0.450   1.531   5.201 -1.4236  1.3105  2.4541
  183MOL   H11229596   0.465   1.242   5.166 -1.2111 -0.4333  2.6291
  183MOL   H11329597   0.582   1.284   5.302  1.2559  3.6429  1.1462
  183MOL   C11429598   0.772   1.330   5.148  0.1029  0.7075 -0.8595
  183MOL   C11529599   0.866   1.447   5.104  0.2937  0.7699  0.2970
  183MOL   C11629600   0.878   1.544   5.220  0.0808  0.6304  0.1386
  183MOL   O11729601   0.908   1.508   5.336 -0.2376  0.4562 -0.0416
  183MOL   H11829602   0.810   1.246   5.089 -0.4904 -0.3233  0.1939
  183MOL   H11929603   0.779   1.302   5.253 -1.2605 -1.5335 -1.3319
  183MOL   H12029604   0.832   1.498   5.014  0.2833 -1.1457 -0.8085
  183MOL   H12129605   0.968   1.409   5.096 -0.1364 -0.6482  1.3202
  183MOL   C12229606   0.853   1.686   5.177 -0.3905  0.2593  0.9806
  183MOL   C12329607   0.819   1.778   5.301  0.1040  0.3509  0.4373
  183MOL   C12429608   0.950   1.819   5.373  0.5779 -0.6676 -0.2302
  183MOL   O12529609   0.952   1.812   5.494  0.2733 -0.0948 -0.3191
  183MOL   H12629610   0.768   1.708   5.113 -0.4336  0.2634  1.0377
  183MOL   H12729611   0.944   1.718   5.127 -0.6485 -3.0853 -1.7926
  183MOL   H12829612   0.759   1.730   5.378 -0.7685  1.3789  0.3952
  183MOL   H12929613   0.764   1.866   5.269  0.7659  0.3609 -0.7475
  183MOL   C13029614   1.067   1.873   5.289 -0.7176  0.5434 -0.0383
  183MOL   C13129615   1.169   1.967   5.365  1.2274 -0.1566 -0.0724
  183MOL   C13229616   1.293   2.007   5.282 -0.0880 -0.0286  0.0395
  183MOL   O13329617   1.298   1.971   5.163  0.0015  0.8374 -0.8362
  183MOL   H13429618   1.032   1.927   5.201 -0.9468 -0.4671 -0.5793
  183MOL   H13529619   1.113   1.784   5.245 -1.9061  0.7218 -1.6706
  183MOL   H13629620   1.203   1.917   5.456 -0.3541 -1.6705 -0.2875
  183MOL   H13729621   1.111   2.054   5.392  1.8666  0.1351  0.3782
  183MOL   C13829622   1.407   2.061   5.357 -0.7093  0.5149 -0.7609
  183MOL   C13929623   1.493   2.161   5.275  0.1397 -0.4118  0.0419
  183MOL   C14029624   1.635   2.117   5.238 -0.2546 -0.1594 -0.0945
  183MOL   O14129625   1.700   2.050   5.315 -0.5227 -0.0502  0.4398
  183MOL   H14229626   1.477   1.980   5.378 -0.5222  0.9812  0.4488
  183MOL   H14329627   1.374   2.089   5.457 -0.2984  2.0971 -1.0495
  183MOL   H14429628   1.497   2.253   5.335 -0.1314 -2.6897  3.7335
  183MOL   H14529629   1.444   2.163   5.178 -0.4084 -1.6806  0.2799
  183MOL   C14629630   1.685   2.155   5.097 -0.4029  0.0256 -0.5367
  183MOL   C14729631   1.818   2.076   5.067 -0.3471  0.8269 -0.3368
  183MOL   C14829632   1.893   2.121   4.944 -0.1475 -0.0726 -0.2421
  183MOL   O14929633   1.837   2.149   4.842 -0.7166 -0.3722  0.5379
  183MOL   H15029634   1.708   2.261   5.102  0.4124 -0.1817  0.4518
  183MOL   H15129635   1.608   2.128   5.025 -1.2457 -1.1603  0.7811
  183MOL   H15229636   1.797   1.971   5.047 -3.6788  1.2772  0.5212
  183MOL   H15329637   1.884   2.092   5.153 -1.0367  0.8449  0.1949
  183MOL   C15429638   2.041   2.131   4.961  0.1882  0.3830  0.1836
  183MOL   C15529639   2.114   2.202   4.844  0.4453  0.4331 -0.1900
  183MOL   C15629640   2.196   2.126   4.744  0.4013  1.7492  0.5469
  183MOL   O15729641   2.180   2.004   4.732 -0.3119 -0.2408  0.0621
  183MOL   H15829642   2.079   2.029   4.972 -0.6855  0.1515  1.1865
  183MOL   H15929643   2.071   2.180   5.053 -1.9502 -0.1628  1.2156
  183MOL   H16029644   2.172   2.283   4.888  0.5858  0.3448 -0.2121
  183MOL   H16129645   2.038   2.263   4.794  0.5919  1.3103  0.6397
  183MOL   H16229646   2.263   2.184   4.679  2.1884 -0.4484  0.3600
  184MOL     C129647   3.763   0.653   7.326 -0.5176 -0.4528  0.5477
  184MOL     C229648   3.874   0.563   7.374  0.3326 -0.1675 -0.1514
  184MOL     C329649   3.973   0.640   7.460  0.6679 -0.2101  0.4486
  184MOL     O429650   4.006   0.749   7.424  0.1781 -0.6472 -0.9933
  184MOL     H529651   3.700   0.686   7.409 -0.5676 -0.0238  0.3399
  184MOL     H629652   3.798   0.744   7.277 -0.9810  0.1245  1.2820
  184MOL     H729653   3.916   0.491   7.303  0.0511  1.4352 -1.9910
  184MOL     H829654   3.832   0.499   7.451 -0.3311 -0.5036 -0.7851
  184MOL     H929655   3.695   0.595   7.263 -0.7533  1.2394 -0.8000
  184MOL    C1029656   4.032   0.578   7.591  0.0739 -0.5837 -0.4086
  184MOL    C1129657   4.142   0.476   7.555 -0.1453 -0.8906  0.3828
  184MOL    C1229658   4.113   0.331   7.598 -0.1793  0.0788 -0.1615
  184MOL    O1329659   3.996   0.296   7.606 -0.1956  0.2557  0.3028
  184MOL    H1429660   3.953   0.537   7.653 -1.4732  0.6197 -1.5581
  184MOL    H1529661   4.067   0.657   7.657  2.3793 -0.4293 -1.7696
  184MOL    H1629662   4.225   0.501   7.620 -0.5142  3.8638 -0.7882
  184MOL    H1729663   4.166   0.479   7.449 -1.9253 -0.7189 -0.0406
  184MOL    C1829664   4.221   0.242   7.647 -0.0941  0.9914  0.4260
  184MOL    C1929665   4.177   0.150   7.758  0.2871  0.3634 -0.5735
  184MOL    C2029666   4.166   0.000   7.722  0.4040 -0.4332  0.2400
  184MOL    O2129667   4.230   7.807   7.631 -0.1157 -0.7145  0.3014
  184MOL    H2229668   4.299   0.304   7.692  0.3100  1.7863 -1.3314
  184MOL    H2329669   4.238   0.183   7.557  1.8281  0.1456  1.3027
  184MOL    H2429670   4.077   0.186   7.783 -0.2554 -0.1871 -1.8918
  184MOL    H2529671   4.251   0.153   7.839  0.0979  0.4435 -0.4034
  184MOL    C2629672   4.064   7.775   7.806 -0.4054 -0.0515 -0.4194
  184MOL    C2729673   4.056   7.625   7.769 -0.3169 -0.9405 -0.3164
  184MOL    C2829674   4.052   7.534   0.032 -0.4104  0.0894 -0.2401
  184MOL    O2929675   4.036   7.577   0.146 -0.0742  0.7456  0.9970
  184MOL    H3029676   3.964   7.817   7.802 -1.8772 -3.4794 -1.1135
  184MOL    H3129677   4.083   7.795   0.053 -0.6844  0.5266 -0.4750
  184MOL    H3229678   4.147   7.592   7.718  2.9106  3.3487  2.3758
  184MOL    H3329679   3.983   7.601   7.692 -0.8246  0.5885 -0.3111
  184MOL    C3429680   4.075   7.387   0.001 -0.4685 -0.4252  0.4483
  184MOL    C3529681   4.041   7.305   0.125  0.1566 -0.8254 -0.3373
  184MOL    C3629682   3.996   7.162   0.115  0.0061  0.6460  0.4129
  184MOL    O3729683   4.008   7.095   0.012  0.4450 -0.0456 -0.3112
  184MOL    H3829684   4.177   7.379   7.822 -0.4785  0.1598  0.3000
  184MOL    H3929685   4.005   7.359   7.781  0.9761 -0.9727 -0.6595
  184MOL    H4029686   3.956   7.348   0.178 -0.8628 -2.0990 -0.9480
  184MOL    H4129687   4.128   7.305   0.191  0.6960 -3.6283 -0.9716
  184MOL    C4229688   3.935   7.105   0.243 -0.6236  0.6643 -0.3074
  184MOL    C4329689   3.904   6.953   0.228  0.4156 -0.0084  0.1672
  184MOL    C4429690   4.012   6.870   0.289 -0.2922 -0.5659  0.0667
  184MOL    O4529691   4.090   6.911   0.373 -0.3173 -0.1421  0.4414
  184MOL    H4629692   3.843   7.159   0.264 -0.3004  1.8224 -1.7835
  184MOL    H4729693   4.011   7.129   0.316 -1.0905  3.1715 -0.6068
  184MOL    H4829694   3.870   6.917   0.130 -2.1198  0.9590  0.6551
  184MOL    H4929695   3.824   6.921   0.294  1.0690 -1.4674  0.2840
  184MOL    C5029696   4.009   6.719   0.253  0.3966 -0.5325  0.0913
  184MOL    C5129697   4.139   6.639   0.280  0.2251 -0.6538  0.1803
  184MOL    C5229698   4.134   6.496   0.231  0.1084  0.4707 -0.2146
  184MOL    O5329699   4.067   6.467   0.132  0.1311  0.3728  0.1149
  184MOL    H5429700   3.976   6.707   0.150  0.1193  1.7599 -0.1242
  184MOL    H5529701   3.934   6.662   0.308  0.0250 -0.7787 -0.6624
  184MOL    H5629702   4.146   6.650   0.388 -1.8530 -0.4490  0.3022
  184MOL    H5729703   4.231   6.682   0.239  1.8464 -1.7995  2.4719
  184MOL    C5829704   4.206   6.392   0.314 -0.6301  0.8466 -0.2758
  184MOL    C5929705   4.269   6.288   0.227  0.7359  0.5603 -0.4448
  184MOL    C6029706   4.389   6.325   0.150  0.3030  0.5689  0.0187
  184MOL    O6129707   4.446   6.432   0.163 -0.1104 -1.1103 -0.1393
  184MOL    H6229708   4.142   6.348   0.390 -1.1054 -0.3603 -1.3527
  184MOL    H6329709   4.285   6.446   0.367  2.2308 -0.3633 -3.1478
  184MOL    H6429710   4.204   6.248   0.149  1.7290 -0.6453 -0.6834
  184MOL    H6529711   4.307   6.206   0.289 -1.9090 -0.2210  0.1804
  184MOL    C6629712   4.425   6.221   0.040  0.3801 -0.1346 -1.0018
  184MOL    C6729713   4.547   6.268   7.802  0.5047 -0.2036  0.4322
  184MOL    C6829714   4.682   6.214   7.844 -0.1965  0.3558  0.7669
  184MOL    O6929715   4.692   6.187   0.103  0.1146  0.2034 -0.3202
  184MOL    H7029716   4.339   6.191   7.839 -0.1656 -2.3920  0.8284
  184MOL    H7129717   4.459   6.124   0.077 -1.7783 -0.6562 -0.3101
  184MOL    H7229718   4.543   6.376   7.795  2.5401 -0.1605 -0.5378
  184MOL    H7329719   4.508   6.228   7.708  1.0985  0.2618 -0.0160
  184MOL    C7429720   4.796   6.215   7.744 -0.1324 -0.3057 -0.4278
  184MOL    C7529721   4.930   6.174   7.814 -0.5080  0.1143 -0.2263
  184MOL    C7629722   5.014   6.073   7.730 -0.4787 -0.6202  0.0411
  184MOL    O7729723   4.978   6.037   7.616 -0.0928  0.7423  0.0501
  184MOL    H7829724   4.809   6.314   7.701  0.8542  1.1373  3.0139
  184MOL    H7929725   4.773   6.144   7.664  0.8259 -1.0817 -0.0183
  184MOL    H8029726   4.904   6.124   0.048 -2.2320 -0.7438 -1.1510
  184MOL    H8129727   4.984   6.262   7.849  0.7925 -0.7516 -0.0063
  184MOL    C8229728   5.135   6.027   7.803  0.1750 -0.2872 -0.1810
  184MOL    C8329729   5.208   5.908   7.733  0.4935  1.0300  0.1683
  184MOL    C8429730   5.338   5.949   7.666 -0.2451 -0.0140  0.4260
  184MOL    O8529731   5.350   5.999   7.557  1.1594  0.6922 -0.6433
  184MOL    H8629732   5.110   6.005   0.047 -0.0415  2.2961  0.3527
  184MOL    H8729733   5.209   6.107   7.794  1.0277 -0.9688  0.6981
  184MOL    H8829734   5.146   5.859   7.659  0.5580  0.4955  0.4696
  184MOL    H8929735   5.243   5.839   7.809 -0.5568  1.3658  0.9594
  184MOL    C9029736   5.464   5.904   7.742  0.1718 -0.5019 -0.0079
  184MOL    C9129737   5.596   5.974   7.697 -0.1129 -0.1181 -0.5294
  184MOL    C9229738   5.672   6.062   7.800  0.7054 -0.0768 -0.4195
  184MOL    O9329739   5.643   6.060   0.062  0.0064  0.2723 -0.1419
  184MOL    H9429740   5.481   5.798   7.723 -1.2128 -1.0079  1.5068
  184MOL    H9529741   5.456   5.912   7.851 -0.9877  1.0106 -0.2004
  184MOL    H9629742   5.590   6.049   7.618 -0.0814  1.8365  1.2634
  184MOL    H9729743   5.667   5.900   7.660 -0.5068 -0.9454  0.3608
  184MOL    C9829744   5.799   6.143   7.751 -0.1989 -0.7892 -0.0734
  184MOL    C9929745   5.900   6.160   0.004  0.2671 -0.2040 -0.4922
  184MOL   C10029746   6.029   6.094   7.835 -0.2368 -0.6995  0.0916
  184MOL   O10129747   6.032   5.975   7.807 -0.1050 -0.3231 -0.1493
  184MOL   H10229748   5.765   6.246   7.735  1.6037 -0.3953 -1.4785
  184MOL   H10329749   5.834   6.107   7.655  1.8307 -1.1792  0.7858
  184MOL   H10429750   5.875   6.126   0.105 -0.7084 -0.1158 -0.7007
  184MOL   H10529751   5.921   6.267   0.014  0.1924 -0.2350  0.0218
  184MOL   C10629752   6.160   6.168   0.005  0.5721 -0.1056 -0.0291
  184MOL   C10729753   6.283   6.088   7.833  0.4593  0.5616  0.4927
  184MOL   C10829754   6.334   6.008   0.097 -0.0539  0.1892 -0.3433
  184MOL   O10929755   6.258   5.988   0.194 -0.0655 -0.6329 -0.4195
  184MOL   H11029756   6.157   6.217   0.102  0.3695  1.2197 -0.7015
  184MOL   H11129757   6.148   6.249   7.792  2.5350 -0.3515 -0.6762
  184MOL   H11229758   6.359   6.160   7.803  1.8650 -1.7768 -1.6766
  184MOL   H11329759   6.275   6.019   7.749 -0.1045  0.1589  0.8739
  184MOL   C11429760   6.474   5.946   0.084 -0.3276  0.2854 -0.0205
  184MOL   C11529761   6.466   5.794   0.117 -0.4635 -0.9310  0.0226
  184MOL   C11629762   6.425   5.710   0.000  0.0371 -0.3302  0.0779
  184MOL   O11729763   6.418   5.749   7.741 -0.2061 -0.5272  0.2087
  184MOL   H11829764   6.524   6.002   0.164 -1.8255 -0.0807  1.2094
  184MOL   H11929765   6.519   5.975   7.848 -0.7288 -2.5896 -1.1271
  184MOL   H12029766   6.397   5.785   0.201 -1.3809 -0.7646 -0.7003
  184MOL   H12129767   6.559   5.741   0.134 -0.1220 -0.5510 -0.6258
  184MOL   C12229768   6.387   5.566   0.030 -0.4222 -0.2089 -0.6779
  184MOL   C12329769   6.334   5.489   7.762  0.1031  0.0373  0.3302
  184MOL   C12429770   6.186   5.536   7.730  0.2825  0.5976  0.1528
  184MOL   O12529771   6.097   5.542   7.814  0.6465  0.1995  0.2114
  184MOL   H12629772   6.315   5.579   0.111  0.7643 -0.3565  0.4168
  184MOL   H12729773   6.474   5.514   0.072 -2.4271 -1.2384  2.3785
  184MOL   H12829774   6.368   5.386   7.773  2.2663  0.4005 -2.2846
  184MOL   H12929775   6.384   5.507   7.666 -0.6811  1.7037  0.2292
  184MOL   C13029776   6.154   5.593   7.592 -0.1467 -0.2897  0.5905
  184MOL   C13129777   6.055   5.706   7.600 -0.1566  0.0140 -0.5466
  184MOL   C13229778   6.042   5.785   7.469  0.1289 -0.1498  0.0578
  184MOL   O13329779   6.110   5.752   7.370  0.0379 -0.5047  0.3378
  184MOL   H13429780   6.122   5.504   7.538  2.0027  0.2946 -1.7143
  184MOL   H13529781   6.249   5.618   7.546 -1.1687  1.0089 -0.8375
  184MOL   H13629782   6.080   5.776   7.680  0.5377 -0.7762 -0.0686
  184MOL   H13729783   5.956   5.670   7.628 -0.1105 -0.1128 -0.5493
  184MOL   C13829784   5.941   5.903   7.466 -0.4557  0.9125  0.0495
  184MOL   C13929785   5.923   5.958   7.317  0.6556  0.9159  0.6470
  184MOL   C14029786   5.926   6.110   7.312  0.4062 -0.4215 -0.3171
  184MOL   O14129787   5.942   6.182   7.418  0.1141  0.4702  0.0450
  184MOL   H14229788   5.980   5.983   7.530 -2.0240  1.0339  0.8811
  184MOL   H14329789   5.846   5.887   7.517 -0.5805 -0.1586 -0.5204
  184MOL   H14429790   5.830   5.916   7.281  0.3293 -0.1708  2.6877
  184MOL   H14529791   6.005   5.914   7.259  0.1110 -1.5979  1.7234
  184MOL   C14629792   5.932   6.169   7.170 -0.4369 -0.8017  0.1292
  184MOL   C14729793   5.906   6.325   7.155  0.0493  0.8366 -0.0017
  184MOL   C14829794   6.000   6.385   7.055  0.1783 -0.1700  0.0346
  184MOL   O14929795   6.070   6.322   6.979 -0.2063 -0.6311 -0.5008
  184MOL   H15029796   5.848   6.124   7.118 -0.2313 -0.6313 -0.3565
  184MOL   H15129797   6.022   6.132   7.121 -0.9718  0.1794 -1.6359
  184MOL   H15229798   5.917   6.388   7.243  0.2957  1.6102 -0.5846
  184MOL   H15329799   5.800   6.342   7.136 -0.3425 -0.7252  0.6739
  184MOL   C15429800   5.975   6.538   7.038 -0.0332  1.4570 -0.6324
  184MOL   C15529801   5.914   6.579   6.901 -0.4955  0.3744  0.5601
  184MOL   C15629802   5.760   6.576   6.905  0.4575  0.2245  0.0349
  184MOL   O15729803   5.702   6.511   6.991  0.0556 -0.4413 -0.4741
  184MOL   H15829804   6.078   6.570   7.051 -0.2328  1.8793 -0.0731
  184MOL   H15929805   5.916   6.586   7.117  0.0781 -0.8027  0.8819
  184MOL   H16029806   5.950   6.519   6.817  0.2964  0.3372  0.9205
  184MOL   H16129807   5.931   6.685   6.882 -0.8111  0.5882  1.4637
  184MOL   H16229808   5.709   6.618   6.818 -0.8286  0.9567  1.1368
  185MOL     C129809   2.565   6.786   4.295  0.2561 -0.3925 -0.4566
  185MOL     C229810   2.668   6.884   4.247 -0.9016  0.3681 -0.1396
  185MOL     C329811   2.626   7.024   4.258  0.7270  0.1130  0.3921
  185MOL     O429812   2.521   7.057   4.318  0.2732 -0.2853  0.5718
  185MOL     H529813   2.565   6.797   4.404 -1.0627 -0.4618 -0.4360
  185MOL     H629814   2.465   6.811   4.258 -0.5862 -3.0019 -0.0489
  185MOL     H729815   2.690   6.856   4.144  1.1538 -0.5204  0.5096
  185MOL     H829816   2.761   6.867   4.302 -1.4543 -1.6467  0.2204
  185MOL     H929817   2.588   6.684   4.267 -2.2479 -0.7507 -1.3647
  185MOL    C1029818   2.728   7.133   4.212 -0.6981 -0.6241 -0.2319
  185MOL    C1129819   2.657   7.263   4.172 -0.1925 -0.2345  0.0332
  185MOL    C1229820   2.732   7.338   4.066  0.1387 -0.4237 -0.1917
  185MOL    O1329821   2.804   7.278   3.984 -0.3873  0.2696 -0.3670
  185MOL    H1429822   2.791   7.097   4.130  0.9902 -1.2415  1.3140
  185MOL    H1529823   2.801   7.143   4.292 -1.5360 -1.5463  0.6576
  185MOL    H1629824   2.636   7.334   4.252  0.2272  1.1752 -1.0849
  185MOL    H1729825   2.561   7.236   4.129  1.0357 -0.7078 -2.5517
  185MOL    C1829826   2.697   7.488   4.059 -0.7944 -0.8609 -0.3532
  185MOL    C1929827   2.730   7.549   3.921 -0.8255  0.0201  0.3160
  185MOL    C2029828   2.601   7.587   3.846  0.2264  0.3191  0.1539
  185MOL    O2129829   2.511   7.640   3.908  0.2289  0.1547 -0.1359
  185MOL    H2229830   2.764   7.530   4.134 -0.1148 -2.8173  0.1411
  185MOL    H2329831   2.593   7.490   4.091 -0.5898 -0.8718  0.3239
  185MOL    H2429832   2.786   7.483   3.855  1.8854  2.7152 -0.1759
  185MOL    H2529833   2.784   7.642   3.939  0.9301 -0.4398 -2.3314
  185MOL    C2629834   2.602   7.574   3.691  0.7045  0.9645  0.2903
  185MOL    C2729835   2.491   7.660   3.614 -0.0029 -0.0434 -0.1592
  185MOL    C2829836   2.502   7.633   3.468 -0.1841  0.1008  0.5372
  185MOL    O2929837   2.422   7.558   3.417  0.0065 -0.2236  0.4444
  185MOL    H3029838   2.573   7.473   3.663 -0.9771  1.1367  1.3403
  185MOL    H3129839   2.697   7.600   3.644  0.2645 -0.2089 -1.2934
  185MOL    H3229840   2.519   7.763   3.637  1.4565 -0.3607 -0.4479
  185MOL    H3329841   2.395   7.631   3.655  0.4456 -0.4216  0.6483
  185MOL    C3429842   2.621   7.691   3.388  0.1493  0.0227 -0.5882
  185MOL    C3529843   2.607   7.685   3.232 -0.1212 -0.8729  0.7153
  185MOL    C3629844   2.681   7.567   3.171 -0.1677 -0.1484 -0.2345
  185MOL    O3729845   2.737   7.483   3.238  0.2899 -0.0402 -0.1730
  185MOL    H3829846   2.705   7.634   3.427 -0.9793 -1.5696 -0.4284
  185MOL    H3929847   2.630   7.794   3.422  2.3822 -0.3497  0.0269
  185MOL    H4029848   2.640   7.774   3.179 -1.7325 -0.0388  1.0810
  185MOL    H4129849   2.504   7.672   3.201  0.4209 -1.5728 -0.8100
  185MOL    C4229850   2.690   7.562   3.021  0.4574  0.4595 -0.7549
  185MOL    C4329851   2.571   7.485   2.952  0.6825 -0.8040 -1.1552
  185MOL    C4429852   2.534   7.559   2.827  0.2858  0.1553 -0.3594
  185MOL    O4529853   2.480   7.664   2.830  0.2038  0.5001 -0.5594
  185MOL    H4629854   2.772   7.506   2.977  0.0612  1.4843 -2.8888
  185MOL    H4729855   2.696   7.669   3.000 -1.2893  1.0386  1.4823
  185MOL    H4829856   2.487   7.478   3.021  1.2650  2.0363 -0.0703
  185MOL    H4929857   2.594   7.383   2.924  0.8145 -1.1179  0.0658
  185MOL    C5029858   2.589   7.502   2.702  0.5095  0.4976  0.2383
  185MOL    C5129859   2.743   7.512   2.680  0.7144 -0.4102  0.2469
  185MOL    C5229860   2.784   7.476   2.542 -0.4006 -0.0475  0.6466
  185MOL    O5329861   2.704   7.462   2.449  0.6450 -0.2103 -0.4074
  185MOL    H5429862   2.550   7.537   2.606 -3.5560 -1.8611  0.8900
  185MOL    H5529863   2.558   7.398   2.703  3.2839 -0.3647  1.0793
  185MOL    H5629864   2.798   7.441   2.742  0.2661  0.3391  1.5095
  185MOL    H5729865   2.782   7.613   2.689 -0.2421 -0.0447  0.3635
  185MOL    C5829866   2.935   7.473   2.511  0.1108 -0.4334 -0.9558
  185MOL    C5929867   2.963   7.397   2.378  0.0091  0.4403  0.2574
  185MOL    C6029868   2.947   7.466   2.247  0.4328 -0.6292 -0.1817
  185MOL    O6129869   2.997   7.578   2.229  0.0845  0.0202  0.2234
  185MOL    H6229870   2.985   7.438   2.602 -0.9945  1.6535  0.4864
  185MOL    H6329871   2.965   7.575   2.489  2.0038 -0.8726 -0.5497
  185MOL    H6429872   2.913   7.300   2.380 -0.0427  0.4825  3.0654
  185MOL    H6529873   3.066   7.364   2.368  0.6807  2.6500 -0.3762
  185MOL    C6629874   2.868   7.397   2.135  0.1934 -0.2578  0.3702
  185MOL    C6729875   2.783   7.498   2.060  0.1360 -0.2130  0.2922
  185MOL    C6829876   2.786   7.478   1.910  0.4719 -0.2113 -1.1785
  185MOL    O6929877   2.890   7.449   1.854 -0.4420  0.3511  0.2063
  185MOL    H7029878   2.804   7.325   2.186 -0.9908  0.9504  0.5969
  185MOL    H7129879   2.935   7.352   2.062  1.0770  2.2073 -0.3699
  185MOL    H7229880   2.804   7.602   2.084 -0.6100 -0.1692  0.7892
  185MOL    H7329881   2.676   7.493   2.084 -0.2481 -3.0432 -1.7186
  185MOL    C7429882   2.653   7.481   1.833  0.0118  0.4313  0.6362
  185MOL    C7529883   2.653   7.590   1.719  0.0636 -0.5039  0.4461
  185MOL    C7629884   2.607   7.526   1.583 -0.2759 -0.2515 -0.2091
  185MOL    O7729885   2.688   7.489   1.496  0.0436  0.2286  0.1475
  185MOL    H7829886   2.582   7.505   1.911 -2.0568 -2.7023 -0.2103
  185MOL    H7929887   2.625   7.385   1.791 -1.1691  1.0110  0.0860
  185MOL    H8029888   2.745   7.647   1.715  0.1694 -0.7435 -1.3012
  185MOL    H8129889   2.587   7.674   1.741  0.4725 -0.1464  0.3077
  185MOL    C8229890   2.462   7.485   1.586  0.1072 -0.2660  0.4326
  185MOL    C8329891   2.410   7.434   1.451  0.5910 -0.3572 -0.0542
  185MOL    C8429892   2.275   7.480   1.405 -0.0883  0.8105  0.2131
  185MOL    O8529893   2.186   7.502   1.479  0.8078  0.1693  0.4002
  185MOL    H8629894   2.400   7.568   1.621 -0.0380  0.1174 -0.6892
  185MOL    H8729895   2.451   7.409   1.663 -2.8483  0.7495  1.0650
  185MOL    H8829896   2.419   7.326   1.451  0.5892 -0.3576  0.0610
  185MOL    H8929897   2.478   7.463   1.371  0.2607 -1.0089 -0.5734
  185MOL    C9029898   2.261   7.515   1.256  0.3473  0.0876  0.3112
  185MOL    C9129899   2.324   7.646   1.231  0.9984  0.5177  0.5994
  185MOL    C9229900   2.225   7.763   1.203  0.4888  0.6069  0.2598
  185MOL    O9329901   2.131   7.754   1.125  0.6634  0.2843 -0.5831
  185MOL    H9429902   2.156   7.519   1.228  0.8778 -0.0811 -1.8205
  185MOL    H9529903   2.294   7.434   1.192 -0.5806 -0.7708  0.9037
  185MOL    H9629904   2.374   7.646   1.134 -0.4511 -3.0902 -0.2270
  185MOL    H9729905   2.406   7.671   1.297  2.2994 -2.3212  0.1146
  185MOL    C9829906   2.264   0.039   1.265  0.8481  0.1343 -0.3210
  185MOL    C9929907   2.194   0.057   1.398  0.0017  0.2732  0.5789
  185MOL   C10029908   2.289   0.026   1.514 -0.3726  0.2165  0.1120
  185MOL   O10129909   2.394   7.823   1.502 -0.3005 -0.0279  0.3112
  185MOL   H10229910   2.247   0.121   1.195 -0.4596 -1.4319 -1.8815
  185MOL   H10329911   2.372   0.035   1.279  0.8534 -1.3865 -0.7099
  185MOL   H10429912   2.100   0.002   1.399  1.5932 -2.5202 -0.2492
  185MOL   H10529913   2.158   0.160   1.406 -0.2313  0.2627 -0.3429
  185MOL   C10629914   2.252   0.094   1.639 -0.2275 -0.2104  0.3597
  185MOL   C10729915   2.345   0.062   1.755  0.5350  0.1423 -1.0015
  185MOL   C10829916   2.265   0.016   1.882  0.1136 -0.8066 -0.0611
  185MOL   O10929917   2.140   0.043   1.895 -0.0464 -0.4014  0.1121
  185MOL   H11029918   2.150   0.060   1.656 -0.1053  0.1937  2.0253
  185MOL   H11129919   2.243   0.201   1.619 -3.3605 -0.5811 -0.4836
  185MOL   H11229920   2.394   0.155   1.782  0.1286  1.4921 -4.5259
  185MOL   H11329921   2.421   7.849   1.727  0.4945 -0.1066 -0.4672
  185MOL   C11429922   2.346   7.775   1.968  0.8458 -0.6007  0.6250
  185MOL   C11529923   2.271   7.691   2.069  0.4101  0.3922  0.3688
  185MOL   C11629924   2.362   7.607   2.156  0.0069 -0.1380 -0.4632
  185MOL   O11729925   2.477   7.646   2.176 -0.3450  0.0545 -0.4611
  185MOL   H11829926   2.428   7.834   2.009 -0.1997  0.8531  0.6764
  185MOL   H11929927   2.390   7.708   1.894 -1.9267 -1.0246 -0.7136
  185MOL   H12029928   2.199   7.616   2.035 -0.9933  1.2942  1.3265
  185MOL   H12129929   2.215   7.756   2.135 -1.6952  0.8991 -1.8332
  185MOL   C12229930   2.322   7.462   2.201  0.0177 -0.7328  0.0585
  185MOL   C12329931   2.411   7.409   2.317 -0.6718 -0.0948 -0.4795
  185MOL   C12429932   2.341   7.298   2.398 -0.3632 -0.7053 -0.1568
  185MOL   O12529933   2.346   7.183   2.364  0.3737  0.1606 -0.6252
  185MOL   H12629934   2.331   7.399   2.112 -0.3758 -0.7655  0.0403
  185MOL   H12729935   2.216   7.450   2.221  0.2695 -1.4181  0.9932
  185MOL   H12829936   2.432   7.493   2.383  0.7437 -1.3552  0.7190
  185MOL   H12929937   2.508   7.372   2.285  0.4578  1.5536  0.9559
  185MOL   C13029938   2.289   7.343   2.536 -0.2380 -0.5744 -0.0753
  185MOL   C13129939   2.240   7.234   2.620  0.5858  0.3934  0.4415
  185MOL   C13229940   2.216   7.283   2.761  0.3666  0.9421  0.5265
  185MOL   O13329941   2.250   7.395   2.792 -0.7892 -0.7239 -0.0378
  185MOL   H13429942   2.204   7.410   2.525  1.4557  1.9650  1.9842
  185MOL   H13529943   2.375   7.398   2.573  0.1541 -2.4421  1.9074
  185MOL   H13629944   2.324   7.166   2.633 -0.5861 -1.1187  0.2389
  185MOL   H13729945   2.151   7.187   2.578 -0.0059  1.8952 -0.0117
  185MOL   C13829946   2.140   7.183   2.851 -0.1831 -0.7859 -0.4898
  185MOL   C13929947   2.009   7.248   2.897  0.0346 -0.2057 -0.0348
  185MOL   C14029948   1.892   7.215   2.803 -0.5298 -0.5674  0.3611
  185MOL   O14129949   1.905   7.185   2.683  0.3070  0.2354 -0.1748
  185MOL   H14229950   2.205   7.170   2.938 -1.7131 -1.5393  0.5564
  185MOL   H14329951   2.134   7.083   2.807 -1.3743 -0.4881 -1.0266
  185MOL   H14429952   2.029   7.355   2.898  1.3907 -0.4507  0.1776
  185MOL   H14529953   1.974   7.234   3.000 -3.1700 -0.9148 -1.1618
  185MOL   C14629954   1.751   7.206   2.873 -0.5445 -0.6908 -0.3477
  185MOL   C14729955   1.665   7.112   2.786 -0.3375 -0.7061 -0.5683
  185MOL   C14829956   1.550   7.180   2.722  0.4643  0.4432 -0.3462
  185MOL   O14929957   1.542   7.301   2.718  0.7926 -0.2155 -0.0975
  185MOL   H15029958   1.715   7.305   2.897  0.1711 -0.4109 -0.4286
  185MOL   H15129959   1.773   7.159   2.969 -0.8119 -3.1054 -1.4056
  185MOL   H15229960   1.622   7.030   2.844 -2.0805  1.0989  0.7827
  185MOL   H15329961   1.724   7.064   2.708  1.1154 -1.4313  0.9284
  185MOL   C15429962   1.444   7.098   2.650  0.1107 -0.1103 -0.6429
  185MOL   C15529963   1.296   7.155   2.661 -0.0622  0.7539 -0.1799
  185MOL   C15629964   1.221   7.158   2.531  0.9083  0.3836 -0.3070
  185MOL   O15729965   1.234   7.081   2.439  0.0017  0.1645  0.1195
  185MOL   H15829966   1.434   7.004   2.703 -1.2522 -0.2371 -1.1023
  185MOL   H15929967   1.475   7.072   2.549 -0.7234  1.1055 -1.2289
  185MOL   H16029968   1.304   7.263   2.678 -1.4401  0.5645  1.7939
  185MOL   H16129969   1.240   7.108   2.742  1.3586 -1.8698 -0.6542
  185MOL   H16229970   1.147   7.238   2.532 -1.3713 -1.6653 -0.1456
  186MOL     C129971   4.949   2.295   6.002 -0.0438  0.6804 -0.3096
  186MOL     C229972   5.033   2.311   6.130 -0.2779  0.0482  0.4461
  186MOL     C329973   5.081   2.175   6.179 -0.4667  0.0734  0.8828
  186MOL     O429974   5.136   2.090   6.106 -0.2992 -0.2871  0.2301
  186MOL     H529975   4.925   2.395   5.966 -2.5855  0.0006 -0.5828
  186MOL     H629976   5.015   2.256   5.924  0.4466  0.3058  0.2883
  186MOL     H729977   4.963   2.358   6.199 -0.4035 -0.0856  0.4095
  186MOL     H829978   5.115   2.377   6.100  0.8282 -2.0282 -1.2648
  186MOL     H929979   4.857   2.238   5.995 -0.2895  1.0878 -0.4242
  186MOL    C1029980   5.048   2.149   6.326  0.2831 -0.1302  0.1887
  186MOL    C1129981   5.068   1.996   6.365 -0.0150  0.5154  0.2590
  186MOL    C1229982   4.940   1.919   6.335  0.3658  0.4094  0.0666
  186MOL    O1329983   4.873   1.953   6.240 -0.0853 -1.5237  0.1519
  186MOL    H1429984   4.949   2.183   6.356  0.3980 -1.1101  1.6877
  186MOL    H1529985   5.123   2.210   6.376 -0.5780  0.2101  1.0736
  186MOL    H1629986   5.087   1.980   6.472  0.5330 -0.5447  0.0167
  186MOL    H1729987   5.139   1.941   6.304 -1.6829 -0.7961 -0.5350
  186MOL    C1829988   4.906   1.797   6.420 -0.3718 -0.3129  0.2344
  186MOL    C1929989   4.791   1.710   6.379  0.1424  0.3561  0.1083
  186MOL    C2029990   4.661   1.741   6.452 -0.5065  0.2026 -0.5629
  186MOL    O2129991   4.668   1.757   6.577 -0.3240 -0.1842 -0.1332
  186MOL    H2229992   4.890   1.840   6.519  1.1442 -1.3075  0.9340
  186MOL    H2329993   5.001   1.744   6.432 -0.1425  0.0620  0.0909
  186MOL    H2429994   4.812   1.608   6.413 -1.8693 -0.7254 -1.7567
  186MOL    H2529995   4.783   1.712   6.270  1.1225  1.8826  0.0556
  186MOL    C2629996   4.538   1.751   6.374 -0.0439 -0.4741  0.5084
  186MOL    C2729997   4.448   1.882   6.387 -0.4301 -0.1337  1.1401
  186MOL    C2829998   4.322   1.868   6.472  1.0226  1.0562  0.2188
  186MOL    O2929999   4.303   1.768   6.540  0.4260  0.0601  0.0175
  186MOL    H3030000   4.483   1.660   6.397  0.1930 -0.3658  1.5250
  186MOL    H3130001   4.558   1.732   6.269 -1.3965 -3.0933  0.6713
  186MOL    H3230002   4.401   1.911   6.293 -0.5232 -1.1203  0.8774
  186MOL    H3330003   4.507   1.959   6.436 -1.2523  1.3523 -0.1733
  186MOL    C3430004   4.224   1.990   6.474 -0.2707 -0.8809 -1.0607
  186MOL    C3530005   4.080   1.946   6.495  0.4075 -0.2168  0.1639
  186MOL    C3630006   4.012   1.899   6.366 -0.1694 -0.0239 -0.7664
  186MOL    O3730007   4.070   1.824   6.297  0.1396  0.5334 -0.2818
  186MOL    H3830008   4.246   2.053   6.388  0.1930 -1.7443 -1.5849
  186MOL    H3930009   4.245   2.050   6.562 -2.2237  1.5725 -2.1766
  186MOL    H4030010   4.027   2.029   6.539 -0.5997  0.3687 -2.0783
  186MOL    H4130011   4.082   1.866   6.569 -0.5006 -0.4468 -0.0534
  186MOL    C4230012   3.869   1.940   6.329  0.1796 -0.3876  0.0816
  186MOL    C4330013   3.817   1.903   6.193  0.5212  0.4643 -0.1513
  186MOL    C4430014   3.704   1.983   6.138 -0.5858  0.0685 -0.3304
  186MOL    O4530015   3.640   2.058   6.209  0.0968  0.2966  0.1203
  186MOL    H4630016   3.854   2.047   6.343 -1.0759 -1.0115  4.3280
  186MOL    H4730017   3.802   1.890   6.400  0.1303 -1.2602 -0.5693
  186MOL    H4830018   3.804   1.794   6.195  1.3396  0.3774  1.3553
  186MOL    H4930019   3.899   1.924   6.124  1.4912  0.0065  0.8449
  186MOL    C5030020   3.673   1.967   5.993  0.2804 -0.0044 -0.2632
  186MOL    C5130021   3.658   2.102   5.918 -0.0574 -0.3197 -0.2832
  186MOL    C5230022   3.736   2.094   5.789 -0.3942 -0.1633  0.2188
  186MOL    O5330023   3.859   2.057   5.783  0.4038  0.0123 -0.0947
  186MOL    H5430024   3.573   1.926   5.993 -0.0729  0.7457  1.9915
  186MOL    H5530025   3.751   1.902   5.954 -2.1113 -2.2077 -1.4561
  186MOL    H5630026   3.695   2.184   5.981  0.7836 -1.3625  0.6083
  186MOL    H5730027   3.553   2.124   5.896 -0.8146 -0.5351  2.8689
  186MOL    C5830028   3.663   2.142   5.663 -0.3115 -0.5492  0.2644
  186MOL    C5930029   3.750   2.155   5.533  0.5309  0.3174  0.2007
  186MOL    C6030030   3.733   2.287   5.458 -0.2232  0.0085 -0.0152
  186MOL    O6130031   3.631   2.354   5.464  0.3731  0.2343 -0.3505
  186MOL    H6230032   3.638   2.244   5.693 -2.3374 -1.8641  3.2019
  186MOL    H6330033   3.568   2.094   5.643 -0.4344 -0.6011  0.9730
  186MOL    H6430034   3.731   2.069   5.469  2.4183 -0.7653  1.0263
  186MOL    H6530035   3.855   2.140   5.561  1.4626 -1.2059 -3.7016
  186MOL    C6630036   3.839   2.310   5.347 -0.1280 -0.2860  0.4148
  186MOL    C6730037   3.867   2.459   5.325 -0.5406  0.4464  0.3749
  186MOL    C6830038   3.793   2.512   5.207 -0.0802  0.1896 -0.0932
  186MOL    O6930039   3.726   2.443   5.130 -1.2669  0.2609  0.4216
  186MOL    H7030040   3.800   2.276   5.251 -2.1831  1.3283  0.6300
  186MOL    H7130041   3.928   2.250   5.361  0.3500 -0.1467 -1.7497
  186MOL    H7230042   3.974   2.467   5.304 -0.3893 -2.7701 -0.4260
  186MOL    H7330043   3.843   2.506   5.420 -1.0520 -1.6837  1.3265
  186MOL    C7430044   3.808   2.659   5.176  0.1810  0.2906  0.0938
  186MOL    C7530045   3.678   2.729   5.131 -0.6730  0.1119 -0.7695
  186MOL    C7630046   3.607   2.787   5.253 -0.0410 -0.7916 -0.6235
  186MOL    O7730047   3.669   2.817   5.357  0.2838 -0.0390 -0.5077
  186MOL    H7830048   3.883   2.671   5.097 -0.1500 -2.2256 -0.6454
  186MOL    H7930049   3.851   2.704   5.265 -0.1069 -0.2917  0.5327
  186MOL    H8030050   3.596   2.666   5.096  0.2780 -1.3001 -0.4807
  186MOL    H8130051   3.700   2.813   5.064 -1.5258  1.0248  0.0680
  186MOL    C8230052   3.459   2.812   5.238 -0.2693  0.2206 -0.4417
  186MOL    C8330053   3.393   2.881   5.364 -0.2868 -0.4693  0.8622
  186MOL    C8430054   3.278   2.807   5.425  0.3296  0.0062 -0.2773
  186MOL    O8530055   3.277   2.684   5.432  0.5348 -0.3121  0.6433
  186MOL    H8630056   3.417   2.711   5.231  0.3550 -0.1959  1.6268
  186MOL    H8730057   3.456   2.871   5.146 -2.1079  1.5661  0.4517
  186MOL    H8830058   3.361   2.981   5.335  3.0166  0.1045 -1.0826
  186MOL    H8930059   3.467   2.895   5.443  0.2645  1.9545 -0.0355
  186MOL    C9030060   3.161   2.879   5.476 -0.1900  0.5979  0.0364
  186MOL    C9130061   3.066   2.919   5.374 -0.1257  0.3128  0.2645
  186MOL    C9230062   2.930   2.957   5.436 -0.5028 -0.3337  0.4979
  186MOL    O9330063   2.889   2.883   5.523  0.3208  0.1677 -0.2580
  186MOL    H9430064   3.214   2.967   5.512  2.1161 -0.2764 -1.1151
  186MOL    H9530065   3.124   2.820   5.560 -2.4488 -0.4030 -1.6029
  186MOL    H9630066   3.050   2.834   5.307  1.5611 -0.4109  0.7593
  186MOL    H9730067   3.106   3.004   5.319  0.0992  0.3602  0.4997
  186MOL    C9830068   2.842   3.064   5.372 -0.4064  0.2075  0.4244
  186MOL    C9930069   2.802   3.166   5.474  0.6662  0.1970  0.0688
  186MOL   C10030070   2.654   3.185   5.477 -0.6358 -0.4512 -0.1124
  186MOL   O10130071   2.588   3.179   5.371 -0.7972  0.5945  0.3506
  186MOL   H10230072   2.774   3.008   5.308 -2.7661  2.5159  0.8307
  186MOL   H10330073   2.889   3.124   5.293 -3.7253  1.5813 -0.5931
  186MOL   H10430074   2.854   3.258   5.447  2.2968 -0.8453 -0.4332
  186MOL   H10530075   2.828   3.132   5.574 -0.5526  0.6575  0.5595
  186MOL   C10630076   2.578   3.195   5.615  0.4282  0.3790  0.5313
  186MOL   C10730077   2.566   3.060   5.679  0.1534  0.1154 -0.0540
  186MOL   C10830078   2.669   3.037   5.793  0.4893 -0.3529 -1.1250
  186MOL   O10930079   2.712   3.132   5.853  0.0550  0.7804 -0.4296
  186MOL   H11030080   2.478   3.232   5.591  0.5919 -0.4583 -1.5321
  186MOL   H11130081   2.629   3.267   5.679  1.0288 -0.0742  0.5681
  186MOL   H11230082   2.567   2.970   5.618 -2.2687 -0.6759  1.0245
  186MOL   H11330083   2.472   3.047   5.733 -0.7322  1.8469 -1.1279
  186MOL   C11430084   2.698   2.895   5.843  0.0187  0.5802 -0.5687
  186MOL   C11530085   2.799   2.879   5.968  0.8073 -0.3969  0.4246
  186MOL   C11630086   2.936   2.845   5.909  0.6599 -0.0490  0.2455
  186MOL   O11730087   2.982   2.912   5.816 -0.0961 -0.6050  0.3108
  186MOL   H11830088   2.736   2.841   5.756 -0.7959 -1.7278  0.4623
  186MOL   H11930089   2.603   2.849   5.870  0.5017  1.5227  2.8775
  186MOL   H12030090   2.759   2.817   6.048 -3.0920  0.8705 -0.4304
  186MOL   H12130091   2.797   2.980   6.009 -0.5856 -0.5934  0.8716
  186MOL   C12230092   3.012   2.731   5.979 -0.3377 -0.0628  0.3994
  186MOL   C12330093   3.155   2.714   5.934 -0.3185 -0.1081 -0.1624
  186MOL   C12430094   3.172   2.571   5.876  0.3303  0.1285  0.3551
  186MOL   O12530095   3.146   2.476   5.951  0.0059  0.8361  0.2365
  186MOL   H12630096   2.955   2.638   5.972 -1.0859  0.4033  0.2553
  186MOL   H12730097   3.007   2.768   6.082  0.7466 -1.3722  0.9461
  186MOL   H12830098   3.229   2.726   6.013 -0.8272  1.0892  0.1332
  186MOL   H12930099   3.179   2.792   5.862  0.7127 -1.6232 -1.5034
  186MOL   C13030100   3.227   2.557   5.736  0.7932  0.0073  0.6350
  186MOL   C13130101   3.371   2.517   5.740  0.1977 -0.2721  0.6387
  186MOL   C13230102   3.468   2.635   5.695  0.0490 -0.0356 -0.0728
  186MOL   O13330103   3.439   2.753   5.709 -0.4838 -0.3481 -0.3813
  186MOL   H13430104   3.214   2.653   5.685 -0.7531 -0.7998 -0.5360
  186MOL   H13530105   3.163   2.487   5.682  0.0592  0.2437  1.1857
  186MOL   H13630106   3.382   2.439   5.665  1.7816 -0.4493  1.0407
  186MOL   H13730107   3.399   2.474   5.836 -0.1970  0.2135  0.9760
  186MOL   C13830108   3.614   2.606   5.653 -0.1540  0.3382 -1.0629
  186MOL   C13930109   3.726   2.679   5.731 -0.6030  0.1882 -0.2034
  186MOL   C14030110   3.845   2.590   5.767 -0.2499  0.2879 -0.0497
  186MOL   O14130111   3.847   2.469   5.751 -0.2272  0.2635 -0.0634
  186MOL   H14230112   3.635   2.626   5.548  1.2117 -0.7916 -1.0255
  186MOL   H14330113   3.624   2.497   5.660  2.4650  0.4829 -2.0977
  186MOL   H14430114   3.695   2.719   5.827  0.1662 -1.5658  0.8113
  186MOL   H14530115   3.771   2.756   5.667  2.4931 -1.9063 -0.6789
  186MOL   C14630116   3.960   2.661   5.839  0.5927  0.0800  0.3552
  186MOL   C14730117   3.974   2.613   5.988  0.1191 -0.8732 -0.0955
  186MOL   C14830118   4.031   2.477   6.001 -0.7099 -0.2052  0.2098
  186MOL   O14930119   4.146   2.459   5.964 -0.4127  0.1654 -0.3307
  186MOL   H15030120   3.939   2.768   5.834 -0.1548 -0.0518  0.6344
  186MOL   H15130121   4.051   2.643   5.782 -0.3091 -0.0134 -1.0842
  186MOL   H15230122   3.876   2.618   6.035  0.1146 -1.7542 -0.0037
  186MOL   H15330123   4.037   2.681   6.047 -0.0397 -0.0709 -0.8530
  186MOL   C15430124   3.936   2.357   6.051  0.5430 -1.0777  0.5081
  186MOL   C15530125   3.998   2.213   6.041  0.2253 -0.2575  0.0708
  186MOL   C15630126   4.114   2.187   6.137 -0.1728 -0.0112 -0.2959
  186MOL   O15730127   4.127   2.256   6.238  0.0714 -0.6804 -0.2645
  186MOL   H15830128   3.847   2.357   5.988 -1.2301  1.4696  2.8604
  186MOL   H15930129   3.902   2.383   6.152 -3.1262  0.6512 -1.0715
  186MOL   H16030130   4.046   2.204   5.943 -2.0108  3.8039 -1.5593
  186MOL   H16130131   3.932   2.129   6.059  0.8142 -0.6403  0.4625
  186MOL   H16230132   4.185   2.106   6.119 -1.5360 -1.0524 -1.0118
  187MOL     C130133   0.284   3.143   1.862 -0.0671  0.0266  0.5618
  187MOL     C230134   0.348   3.041   1.764 -0.5540  0.0049 -0.0299
  187MOL     C330135   0.475   2.967   1.823  0.0316 -0.4448 -0.0776
  187MOL     O430136   0.447   2.869   1.888  0.2526  0.0057  0.1983
  187MOL     H530137   0.310   3.097   1.958 -0.1654 -1.4457 -0.0989
  187MOL     H630138   0.330   3.241   1.853 -0.6952  0.2886  0.1972
  187MOL     H730139   0.380   3.089   1.672 -1.1229 -0.8296 -0.6761
  187MOL     H830140   0.280   2.959   1.739  0.1841 -0.1449 -1.5738
  187MOL     H930141   0.175   3.144   1.857 -0.0253 -0.4462 -0.4728
  187MOL    C1030142   0.619   3.003   1.796 -0.3183 -0.4358  0.0040
  187MOL    C1130143   0.713   2.951   1.914  0.0368  0.0858  0.2017
  187MOL    C1230144   0.850   2.924   1.874 -0.0984  0.2694  0.2259
  187MOL    O1330145   0.897   2.982   1.776  0.1527 -0.5691  0.2099
  187MOL    H1430146   0.626   3.112   1.792 -2.5447 -0.2721  0.0654
  187MOL    H1530147   0.655   2.967   1.699  0.0454  0.4230 -0.1811
  187MOL    H1630148   0.670   2.858   1.952 -1.5295  0.4964 -0.5113
  187MOL    H1730149   0.723   3.030   1.988  2.2189  1.1750 -1.2084
  187MOL    C1830150   0.927   2.809   1.947 -0.0454 -0.0862  0.3209
  187MOL    C1930151   1.055   2.752   1.876 -0.5678  0.0124 -0.1009
  187MOL    C2030152   1.189   2.822   1.903 -0.2207 -0.3520  0.1765
  187MOL    O2130153   1.200   2.923   1.976  0.2876 -0.2651  0.2793
  187MOL    H2230154   0.861   2.723   1.946  1.2129 -1.0598 -0.7366
  187MOL    H2330155   0.946   2.820   2.053  1.9192  1.7558 -0.1827
  187MOL    H2430156   1.036   2.748   1.769  0.9732  2.5841 -0.4923
  187MOL    H2530157   1.070   2.653   1.921  0.9672 -0.2056 -1.0374
  187MOL    C2630158   1.298   2.776   1.803  0.1968  0.9171 -0.4295
  187MOL    C2730159   1.431   2.814   1.852  0.0698  0.6700  0.6926
  187MOL    C2830160   1.491   2.701   1.931 -0.3147  0.0178  0.4164
  187MOL    O2930161   1.433   2.594   1.957 -0.2294 -0.3903  0.5075
  187MOL    H3030162   1.286   2.827   1.707  0.2537 -1.1585 -1.5692
  187MOL    H3130163   1.279   2.670   1.787 -1.4665  0.7441  2.3102
  187MOL    H3230164   1.425   2.898   1.921 -1.0334 -0.4808  2.0430
  187MOL    H3330165   1.496   2.852   1.773 -0.4051  0.5991  0.2663
  187MOL    C3430166   1.635   2.726   1.978 -0.0875  0.3433 -0.3968
  187MOL    C3530167   1.700   2.590   2.039 -0.0525  0.0970 -0.3120
  187MOL    C3630168   1.816   2.521   1.972 -0.3129  0.6692 -0.0412
  187MOL    O3730169   1.823   2.526   1.849 -0.0650  0.0214 -0.1026
  187MOL    H3830170   1.636   2.805   2.054 -1.0468 -0.2635  0.2610
  187MOL    H3930171   1.700   2.763   1.899  0.6081 -2.0380 -0.9868
  187MOL    H4030172   1.619   2.522   2.067 -0.1685 -0.5022 -2.0042
  187MOL    H4130173   1.746   2.628   2.130 -1.8291  1.8668 -0.0955
  187MOL    C4230174   1.895   2.415   2.058 -0.9713 -0.2520  0.2667
  187MOL    C4330175   2.020   2.375   1.983 -0.2845 -0.1876 -0.0019
  187MOL    C4430176   2.132   2.477   1.973 -0.0032  0.2906 -0.8545
  187MOL    O4530177   2.132   2.585   2.026  0.4611 -0.4671 -0.0575
  187MOL    H4630178   1.828   2.332   2.080 -0.6883  0.1634  2.8890
  187MOL    H4730179   1.921   2.460   2.154 -2.1814  1.3245 -0.1183
  187MOL    H4830180   1.987   2.327   1.891 -0.7581  2.0038 -1.0127
  187MOL    H4930181   2.061   2.286   2.031  0.7595 -0.4240 -1.2674
  187MOL    C5030182   2.239   2.445   1.876  0.8047  0.1842 -1.0242
  187MOL    C5130183   2.337   2.553   1.831  0.3859 -0.0220 -0.6103
  187MOL    C5230184   2.433   2.585   1.947 -0.1699 -0.1655  0.2148
  187MOL    O5330185   2.513   2.503   1.978  0.4031  0.4689  0.4270
  187MOL    H5430186   2.188   2.404   1.789  3.6442  0.2298 -2.7694
  187MOL    H5530187   2.299   2.370   1.926  0.0752 -0.1389 -0.6129
  187MOL    H5630188   2.288   2.644   1.796  0.4771 -0.1208 -0.9896
  187MOL    H5730189   2.402   2.498   1.764 -0.5502  1.2487 -2.6049
  187MOL    C5830190   2.431   2.730   2.004  0.2384 -0.2148 -0.2523
  187MOL    C5930191   2.440   2.740   2.157  0.1830  0.0658  0.0797
  187MOL    C6030192   2.332   2.829   2.218 -0.0552  0.2060 -0.1643
  187MOL    O6130193   2.317   2.941   2.165 -0.1317 -0.0589 -0.3392
  187MOL    H6230194   2.345   2.790   1.975  1.2912  1.0864 -0.7360
  187MOL    H6330195   2.524   2.775   1.968 -0.7378  2.9577  1.0580
  187MOL    H6430196   2.534   2.774   2.201  0.0699  0.3682  0.0920
  187MOL    H6530197   2.418   2.642   2.201  0.3279  0.5992  1.3764
  187MOL    C6630198   2.264   2.777   2.351  0.0433 -0.9091  0.2945
  187MOL    C6730199   2.124   2.837   2.367  0.8841  0.2139  0.6018
  187MOL    C6830200   2.050   2.801   2.496  0.2381 -1.2214  0.1209
  187MOL    O6930201   2.115   2.760   2.592  0.1973  0.2596 -0.2948
  187MOL    H7030202   2.327   2.800   2.437  1.8175  2.0231 -1.6831
  187MOL    H7130203   2.247   2.669   2.353  0.5718 -0.9942  0.3227
  187MOL    H7230204   2.066   2.808   2.279  0.9289  1.0958  0.2703
  187MOL    H7330205   2.130   2.946   2.377 -1.3833  0.3885  0.3047
  187MOL    C7430206   1.901   2.825   2.494 -0.2084  0.3720 -0.0547
  187MOL    C7530207   1.812   2.714   2.420  0.2969 -0.4807 -0.4157
  187MOL    C7630208   1.687   2.775   2.365  0.6161  0.9349 -0.0767
  187MOL    O7730209   1.678   2.879   2.298 -0.1214 -0.0844 -0.0611
  187MOL    H7830210   1.882   2.923   2.450 -0.6277 -0.5401 -1.9701
  187MOL    H7930211   1.863   2.832   2.596 -1.9117  1.9747 -0.7604
  187MOL    H8030212   1.792   2.626   2.481 -0.3620 -0.1510 -0.1514
  187MOL    H8130213   1.873   2.661   2.346  0.5116  0.7628 -1.1355
  187MOL    C8230214   1.563   2.695   2.393  0.2772 -0.5578 -0.0527
  187MOL    C8330215   1.446   2.737   2.313  0.0910  0.3809  0.6130
  187MOL    C8430216   1.318   2.653   2.350 -0.2699  0.7220 -0.9552
  187MOL    O8530217   1.326   2.561   2.430 -0.4124 -0.2405  0.5108
  187MOL    H8630218   1.547   2.682   2.500 -2.8922 -1.3898 -0.5919
  187MOL    H8730219   1.587   2.592   2.363 -1.0486 -1.6113  2.3603
  187MOL    H8830220   1.466   2.719   2.207 -0.8520  0.8812  0.3415
  187MOL    H8930221   1.420   2.843   2.317 -0.9347  0.1093  1.3617
  187MOL    C9030222   1.185   2.708   2.303 -0.3168 -0.1728 -0.0075
  187MOL    C9130223   1.075   2.613   2.346 -0.5831 -0.0960  0.7190
  187MOL    C9230224   1.029   2.516   2.243  0.1151  0.2432 -0.0044
  187MOL    O9330225   1.022   2.541   2.120  0.5766 -0.0358  0.5532
  187MOL    H9430226   1.190   2.731   2.197 -0.1982  0.3852  0.1162
  187MOL    H9530227   1.184   2.796   2.368  1.0983 -0.5776  0.5742
  187MOL    H9630228   0.987   2.674   2.368  1.1499  3.0014 -0.7144
  187MOL    H9730229   1.094   2.567   2.444 -0.1044  1.2383  1.2631
  187MOL    C9830230   1.007   2.370   2.283 -0.7749 -0.5085  0.1304
  187MOL    C9930231   0.892   2.301   2.209 -0.0480  0.7081  0.2060
  187MOL   C10030232   0.940   2.173   2.145 -0.6535 -0.5133  0.0981
  187MOL   O10130233   1.028   2.108   2.192  0.4643  0.0734 -0.4861
  187MOL   H10230234   1.018   2.364   2.392 -0.1854 -1.0292  0.0463
  187MOL   H10330235   1.095   2.317   2.246  1.2818  1.2191  2.3355
  187MOL   H10430236   0.853   2.368   2.132 -0.7376  1.0125  0.8205
  187MOL   H10530237   0.806   2.303   2.275 -0.1659 -0.1817  0.0919
  187MOL   C10630238   0.874   2.142   2.012  0.1833  0.3384  0.1137
  187MOL   C10730239   0.974   2.170   1.898 -1.1587  0.2186  0.0265
  187MOL   C10830240   0.918   2.233   1.767  0.5424  0.0095 -0.3854
  187MOL   O10930241   0.793   2.231   1.745 -0.0250  0.1756  0.6325
  187MOL   H11030242   0.780   2.196   2.006  0.6429  1.0488 -0.8075
  187MOL   H11130243   0.845   2.037   2.012  0.3437  0.2928 -0.6229
  187MOL   H11230244   1.027   2.080   1.868 -1.6664 -0.5962  1.5354
  187MOL   H11330245   1.056   2.238   1.922 -1.2339  0.1829  0.3834
  187MOL   C11430246   1.015   2.288   1.672 -0.3386 -0.5403  0.6213
  187MOL   C11530247   0.956   2.400   1.576 -0.1001  0.2299  0.2498
  187MOL   C11630248   1.047   2.519   1.550  0.6864  0.1661  0.1903
  187MOL   O11730249   1.167   2.508   1.572 -0.8404  0.3640 -0.0387
  187MOL   H11830250   1.036   2.199   1.613 -1.1779 -0.6402  0.4593
  187MOL   H11930251   1.105   2.315   1.726  0.1122 -0.1472 -0.3212
  187MOL   H12030252   0.863   2.435   1.621 -0.2772  0.3533 -0.2124
  187MOL   H12130253   0.933   2.355   1.479  0.1990  1.2343 -0.2917
  187MOL   C12230254   0.979   2.651   1.513 -0.3129  0.3312 -0.1411
  187MOL   C12330255   1.071   2.763   1.488 -0.7688 -0.1000  0.5778
  187MOL   C12430256   1.112   2.779   1.342  0.1356  0.2111 -0.3472
  187MOL   O12530257   1.048   2.731   1.248  0.2752 -0.5252 -0.2241
  187MOL   H12630258   0.921   2.683   1.600  0.3883  2.2742 -0.3534
  187MOL   H12730259   0.911   2.638   1.429 -1.0289 -0.2362  0.5221
  187MOL   H12830260   1.160   2.748   1.548 -1.1129  0.4500  1.2375
  187MOL   H12930261   1.020   2.854   1.523 -3.0489 -0.0714 -2.6004
  187MOL   C13030262   1.242   2.855   1.331 -0.9090 -0.8661  0.4094
  187MOL   C13130263   1.261   2.908   1.191  0.1921  0.4089 -0.3108
  187MOL   C13230264   1.412   2.919   1.159 -0.7273  0.0874 -0.2689
  187MOL   O13330265   1.494   2.953   1.244 -0.0071 -0.2413  0.5436
  187MOL   H13430266   1.321   2.789   1.367  0.6683  0.7388 -0.0426
  187MOL   H13530267   1.234   2.938   1.400  0.0289 -0.2523 -0.2085
  187MOL   H13630268   1.230   3.012   1.190  0.1283  0.4251  1.4704
  187MOL   H13730269   1.214   2.849   1.113  1.7234  0.1203 -1.0242
  187MOL   C13830270   1.456   2.876   1.022 -0.3614 -0.0663 -0.5354
  187MOL   C13930271   1.502   2.728   1.024  0.0055 -0.5422  0.5365
  187MOL   C14030272   1.394   2.628   0.990 -0.9819 -0.3379  1.0565
  187MOL   O14130273   1.275   2.651   0.994 -0.1273 -0.4219  0.1536
  187MOL   H14230274   1.534   2.942   0.983  1.6504 -1.9323  0.2046
  187MOL   H14330275   1.376   2.886   0.950 -0.6046 -1.2014 -0.4296
  187MOL   H14430276   1.552   2.689   1.113  1.4969  0.3655  0.1134
  187MOL   H14530277   1.570   2.719   0.940  2.9563  2.2913  2.5053
  187MOL   C14630278   1.455   2.498   0.940 -0.6018  0.8549  0.4477
  187MOL   C14730279   1.364   2.409   0.870  0.6238  0.4227  0.4812
  187MOL   C14830280   1.340   2.421   0.714  0.1950  0.0107  0.0364
  187MOL   O14930281   1.422   2.474   0.640 -0.5372 -0.0499 -0.0140
  187MOL   H15030282   1.506   2.453   1.025  2.2520  2.2871 -0.4580
  187MOL   H15130283   1.537   2.527   0.875  1.5932 -1.5675  2.0307
  187MOL   H15230284   1.264   2.391   0.911  1.0761  0.1162  1.4650
  187MOL   H15330285   1.405   2.309   0.886  0.8615  0.6071  1.0415
  187MOL   C15430286   1.214   2.353   0.653 -0.7443  0.3150 -0.9193
  187MOL   C15530287   1.246   2.200   0.649  0.6510 -0.0015  0.6561
  187MOL   C15630288   1.233   2.147   0.504 -0.4138 -0.5112  0.2458
  187MOL   O15730289   1.137   2.174   0.441 -0.6107 -0.1597  0.4241
  187MOL   H15830290   1.184   2.395   0.557 -4.4708 -0.1825 -0.0386
  187MOL   H15930291   1.135   2.381   0.721  0.1012  0.5576 -0.0286
  187MOL   H16030292   1.180   2.139   0.711  0.4453 -0.6909 -0.2346
  187MOL   H16130293   1.348   2.175   0.680  1.1599 -1.2294 -1.8737
  187MOL   H16230294   1.310   2.079   0.468 -1.1561 -1.5485  0.5894
  188MOL     C130295   2.482   6.015   6.851  0.5415 -0.9413 -0.8133
  188MOL     C230296   2.373   6.115   6.790  0.5487  0.0120 -0.0596
  188MOL     C330297   2.255   6.146   6.880 -0.1842 -1.1568  0.0916
  188MOL     O430298   2.221   6.070   6.969  0.2313  0.3571 -0.2898
  188MOL     H530299   2.448   5.950   6.932  2.3554  1.6854  2.1277
  188MOL     H630300   2.537   5.957   6.777  2.0053 -1.1487  0.4188
  188MOL     H730301   2.320   6.060   6.712 -1.3051  1.5272  0.1046
  188MOL     H830302   2.417   6.203   6.744 -1.0848  0.2997 -1.0905
  188MOL     H930303   2.545   6.087   6.902  0.7972 -0.5721 -1.6491
  188MOL    C1030304   2.174   6.270   6.847  0.6394 -0.4162  0.0426
  188MOL    C1130305   2.078   6.317   6.959 -0.0345  0.0604  0.5241
  188MOL    C1230306   1.942   6.255   6.934 -0.2158  0.5910 -0.0799
  188MOL    O1330307   1.917   6.194   6.829  0.8159 -0.3347 -0.1651
  188MOL    H1430308   2.135   6.283   6.746  0.0868 -1.0612  0.1646
  188MOL    H1530309   2.260   6.337   6.839  0.2414  0.1422  0.3800
  188MOL    H1630310   2.068   6.424   6.973  1.1665  0.2669 -0.0767
  188MOL    H1730311   2.104   6.272   7.055  1.3818 -0.5328 -0.1172
  188MOL    C1830312   1.840   6.269   7.045  0.4875  0.3327  0.2229
  188MOL    C1930313   1.694   6.224   7.020  0.2376 -0.0959 -0.5459
  188MOL    C2030314   1.617   6.336   6.947  0.2933  0.1199 -0.6236
  188MOL    O2130315   1.666   6.419   6.875  0.2214  0.8568  0.3085
  188MOL    H2230316   1.844   6.376   7.063  1.2918  0.2522  0.5356
  188MOL    H2330317   1.882   6.213   7.129  1.5385  0.6760 -0.0669
  188MOL    H2430318   1.649   6.193   7.115 -0.0979 -3.0634 -1.6108
  188MOL    H2530319   1.680   6.134   6.960  0.0973 -0.2371 -0.3021
  188MOL    C2630320   1.466   6.323   6.941 -0.5296  0.0073  1.1389
  188MOL    C2730321   1.406   6.243   6.822 -0.2200 -0.0927 -0.1371
  188MOL    C2830322   1.316   6.122   6.863  0.4404 -0.6574  0.0002
  188MOL    O2930323   1.283   6.101   6.980  0.2756 -0.4255 -0.2660
  188MOL    H3030324   1.416   6.420   6.934  1.8775  1.2557  0.9514
  188MOL    H3130325   1.431   6.276   7.033 -0.7572 -1.9609  0.0699
  188MOL    H3230326   1.490   6.208   6.762 -0.8247  1.3860 -1.9067
  188MOL    H3330327   1.353   6.312   6.756  1.7883  0.3057 -1.3748
  188MOL    C3430328   1.246   6.045   6.755  0.2767 -0.7159 -0.2229
  188MOL    C3530329   1.177   5.908   6.795 -0.1016  0.0261  0.1792
  188MOL    C3630330   1.269   5.790   6.827  0.0249 -0.0877 -0.5024
  188MOL    O3730331   1.384   5.802   6.865  0.3470 -0.0639 -0.3467
  188MOL    H3830332   1.312   6.034   6.669  0.4573 -0.9749 -0.0540
  188MOL    H3930333   1.170   6.117   6.723  1.0374  0.9154  1.5409
  188MOL    H4030334   1.098   5.885   6.723 -1.3463  1.1460  1.1584
  188MOL    H4130335   1.124   5.928   6.888  1.5657  2.8704  0.5862
  188MOL    C4230336   1.204   5.655   6.843  0.1781 -0.2071 -0.4241
  188MOL    C4330337   1.290   5.534   6.804 -0.1258 -0.0334 -0.3770
  188MOL    C4430338   1.304   5.433   6.916  0.2650 -0.1637  0.1631
  188MOL    O4530339   1.212   5.419   7.000 -0.3120 -0.3574 -0.2838
  188MOL    H4630340   1.116   5.658   6.779 -0.0986  1.4168  0.0212
  188MOL    H4730341   1.161   5.640   6.942  2.7680 -1.1716  0.6021
  188MOL    H4830342   1.393   5.564   6.783  0.1166 -0.4457  0.1963
  188MOL    H4930343   1.258   5.492   6.709 -0.8730  0.5415 -0.3879
  188MOL    C5030344   1.441   5.373   6.929  0.1070 -0.2780 -0.1077
  188MOL    C5130345   1.513   5.452   7.040  0.1864  0.4255  0.2773
  188MOL    C5230346   1.661   5.483   7.001 -0.1969 -0.0314 -0.2410
  188MOL    O5330347   1.741   5.386   6.990  0.8916  0.6374 -0.6919
  188MOL    H5430348   1.503   5.390   6.841  1.1911 -0.2546  0.6510
  188MOL    H5530349   1.445   5.268   6.958  0.0272 -0.8272 -2.0198
  188MOL    H5630350   1.503   5.404   7.137 -1.5730 -0.7435 -0.4461
  188MOL    H5730351   1.467   5.550   7.044 -0.7535 -0.0097  0.3505
  188MOL    C5830352   1.704   5.632   6.981 -0.0434  0.3677 -0.4965
  188MOL    C5930353   1.675   5.717   7.109 -0.0745  0.5925 -0.0968
  188MOL    C6030354   1.802   5.756   7.187  0.0427  0.3652 -1.0131
  188MOL    O6130355   1.861   5.856   7.156  0.0442 -0.1852 -0.2686
  188MOL    H6230356   1.638   5.670   6.903 -1.8586 -0.7880  0.4299
  188MOL    H6330357   1.811   5.628   6.963 -0.0436 -0.7598 -0.2506
  188MOL    H6430358   1.600   5.670   7.173  1.3869 -2.0362 -0.2671
  188MOL    H6530359   1.627   5.808   7.073 -1.6739  0.1772  0.9324
  188MOL    C6630360   1.859   5.646   7.279 -0.5304 -0.0978 -0.5722
  188MOL    C6730361   1.779   5.614   7.401 -0.2255 -0.6748  0.0446
  188MOL    C6830362   1.864   5.557   7.510 -0.0014 -0.2589  0.2007
  188MOL    O6930363   1.932   5.459   7.486 -0.0204  0.0234 -0.7312
  188MOL    H7030364   1.956   5.688   7.302 -0.2895 -1.4622  0.9606
  188MOL    H7130365   1.875   5.552   7.225  1.3116  0.5399 -1.1593
  188MOL    H7230366   1.699   5.542   7.385 -1.2598  0.6224 -0.6638
  188MOL    H7330367   1.730   5.706   7.434  1.2558  0.8961 -2.0001
  188MOL    C7430368   1.865   5.639   7.640 -0.7319 -0.4257 -0.3980
  188MOL    C7530369   1.914   5.548   7.756 -0.6980  0.4524  0.0697
  188MOL    C7630370   1.803   5.475   7.837  0.4255 -0.4824  0.5610
  188MOL    O7730371   1.700   5.441   7.779  0.0745  0.2065 -0.1392
  188MOL    H7830372   1.763   5.669   7.664 -0.2375  0.9783  0.0099
  188MOL    H7930373   1.920   5.732   7.627 -1.7554  0.4212  1.1850
  188MOL    H8030374   1.981   5.593   7.830 -1.6138  0.2122  1.0455
  188MOL    H8130375   1.982   5.470   7.722 -0.8583  0.4813 -0.3206
  188MOL    C8230376   1.820   5.454   0.128  0.0491  0.1577 -0.1152
  188MOL    C8330377   1.694   5.414   0.192 -0.0924 -0.2989 -0.0426
  188MOL    C8430378   1.726   5.358   0.330 -0.4368 -0.4678 -0.2096
  188MOL    O8530379   1.817   5.410   0.397  0.5567 -0.1156 -0.1275
  188MOL    H8630380   1.853   5.551   0.165 -1.0471  0.0036  1.3506
  188MOL    H8730381   1.907   5.389   0.131 -1.0745 -1.3465  0.9039
  188MOL    H8830382   1.637   5.341   0.134 -1.0935  0.1612  0.3492
  188MOL    H8930383   1.628   5.501   0.191 -0.2215 -0.3989 -0.5964
  188MOL    C9030384   1.649   5.237   0.386  0.2432 -0.4684  0.4880
  188MOL    C9130385   1.496   5.267   0.406  0.2723  0.8923  0.0796
  188MOL    C9230386   1.404   5.195   0.300  0.2185 -0.0006  0.8332
  188MOL    O9330387   1.375   5.080   0.315 -0.2779  0.2368  0.3035
  188MOL    H9430388   1.694   5.210   0.481 -0.7564  1.4182  1.5283
  188MOL    H9530389   1.664   5.156   0.314 -2.7612 -1.0221  0.3876
  188MOL    H9630390   1.469   5.372   0.418 -0.1084  0.6638  1.3212
  188MOL    H9730391   1.463   5.222   0.500 -0.8540  1.3730 -0.0780
  188MOL    C9830392   1.353   5.280   0.182 -1.1871 -0.2393  0.5336
  188MOL    C9930393   1.222   5.231   0.134 -0.6432 -0.2628  0.0389
  188MOL   C10030394   1.108   5.278   0.224 -0.0339  0.2438  0.3061
  188MOL   O10130395   1.130   5.352   0.322  0.2063  0.1181  0.0500
  188MOL   H10230396   1.421   5.281   0.097 -1.4624  1.6167  0.3260
  188MOL   H10330397   1.346   5.383   0.216  3.2774 -0.0971  1.3091
  188MOL   H10430398   1.224   5.122   0.129  0.5266 -0.2495  0.0806
  188MOL   H10530399   1.198   5.265   0.033 -3.1098 -0.0101  0.6632
  188MOL   C10630400   0.969   5.225   0.192 -0.2158 -0.2327 -0.5428
  188MOL   C10730401   0.867   5.285   0.286  0.1181 -0.2770  0.1187
  188MOL   C10830402   0.806   5.412   0.245 -0.1011  0.4600 -0.0460
  188MOL   O10930403   0.814   5.451   0.128 -0.3123  0.1506  0.2983
  188MOL   H11030404   0.962   5.118   0.212 -2.3659 -0.2587 -1.4080
  188MOL   H11130405   0.943   5.235   0.087 -0.0037 -2.9835 -0.8926
  188MOL   H11230406   0.903   5.299   0.388 -0.7863  2.4190  0.1101
  188MOL   H11330407   0.790   5.213   0.315  1.3137 -1.7972 -0.4450
  188MOL   C11430408   0.704   5.465   0.336 -0.3913 -1.0698 -0.3425
  188MOL   C11530409   0.700   5.620   0.337 -0.3424  0.6846 -0.3792
  188MOL   C11630410   0.784   5.690   0.440  0.0614  0.4309 -0.0947
  188MOL   O11730411   0.890   5.646   0.470 -0.3137 -0.5421 -0.2495
  188MOL   H11830412   0.716   5.414   0.432 -2.5431  0.9091  1.0334
  188MOL   H11930413   0.607   5.435   0.295 -1.4536  2.4992 -0.5652
  188MOL   H12030414   0.596   5.641   0.363  0.5972  3.1539  1.7207
  188MOL   H12130415   0.711   5.673   0.242 -0.7261  0.1825 -0.7078
  188MOL   C12230416   0.727   5.819   0.507  0.5781  0.0511 -0.4132
  188MOL   C12330417   0.838   5.902   0.576  0.4258 -0.0938 -0.2672
  188MOL   C12430418   0.879   5.874   0.726 -0.1149  0.5344  0.3526
  188MOL   O12530419   0.805   5.797   0.790 -0.4937  0.3277  0.4334
  188MOL   H12630420   0.660   5.782   0.584  0.3979 -1.0613 -1.0826
  188MOL   H12730421   0.675   5.860   0.420  0.7625 -0.9255 -0.9943
  188MOL   H12830422   0.791   6.000   0.562 -0.4286 -0.7258 -2.0005
  188MOL   H12930423   0.929   5.901   0.517  1.4203 -1.7130  1.2573
  188MOL   C13030424   1.008   5.933   0.790 -0.2158  0.0945 -0.7191
  188MOL   C13130425   1.018   5.915   0.946 -0.1295  0.4125 -0.1789
  188MOL   C13230426   1.095   6.023   1.014 -0.1890  1.1925 -0.8961
  188MOL   O13330427   1.154   6.114   0.954  0.1416 -0.3186  0.4322
  188MOL   H13430428   1.010   6.036   0.754  0.5509  1.0758  2.0052
  188MOL   H13530429   1.100   5.882   0.760  1.3725  3.1415 -1.2965
  188MOL   H13630430   1.075   5.829   0.981  2.4383  0.9492 -2.8740
  188MOL   H13730431   0.922   5.908   0.998 -0.1209 -3.0813 -0.4865
  188MOL   C13830432   1.103   6.012   1.170  0.5299  0.4705  0.2843
  188MOL   C13930433   1.160   6.146   1.232  0.1591  0.5764  0.4174
  188MOL   C14030434   1.110   6.159   1.374 -0.2954  0.2851  0.5775
  188MOL   O14130435   1.048   6.067   1.429  0.3950  0.6306 -0.3743
  188MOL   H14230436   1.177   5.937   1.198  1.2121  1.2328  0.5502
  188MOL   H14330437   1.003   5.983   1.202  0.2383 -0.1467 -1.1544
  188MOL   H14430438   1.117   6.235   1.187 -0.7846  1.2066  2.5016
  188MOL   H14530439   1.268   6.154   1.223  0.3524  0.5367  2.3381
  188MOL   C14630440   1.161   6.272   1.457 -0.5400 -0.0463 -0.3743
  188MOL   C14730441   1.121   6.259   1.604  0.0815  0.0564  0.2129
  188MOL   C14830442   1.215   6.169   1.686 -0.2666 -0.0939  0.1000
  188MOL   O14930443   1.335   6.149   1.658 -0.8230 -0.3673 -0.1365
  188MOL   H15030444   1.120   6.364   1.416 -0.9856  0.0293  0.2289
  188MOL   H15130445   1.269   6.271   1.441 -0.1508 -0.6463  2.0359
  188MOL   H15230446   1.019   6.223   1.613  0.6444 -2.3799 -2.4420
  188MOL   H15330447   1.110   6.356   1.652  1.5553  1.0947 -1.5185
  188MOL   C15430448   1.159   6.096   1.808 -0.3537  0.2618  0.1711
  188MOL   C15530449   1.127   5.952   1.773 -0.2942  1.2093  0.1307
  188MOL   C15630450   1.186   5.843   1.865  0.1388 -0.0506 -0.0064
  188MOL   O15730451   1.303   5.861   1.912  0.0207 -0.2118 -0.5768
  188MOL   H15830452   1.071   6.151   1.843 -0.8452 -1.0963  1.0942
  188MOL   H15930453   1.232   6.102   1.888 -0.6681  0.0082  0.4819
  188MOL   H16030454   1.175   5.930   1.678  0.9178  1.1237  0.7407
  188MOL   H16130455   1.021   5.929   1.760  0.2431 -0.0917 -2.1642
  188MOL   H16230456   1.125   5.755   1.885 -0.8937  0.7350  0.3380
  189MOL     C130457   4.813   0.515   0.094  0.2400 -1.0605  0.2784
  189MOL     C230458   4.699   0.489   0.189 -0.1141  0.4074  0.4687
  189MOL     C330459   4.611   0.375   0.149  0.5064 -0.1308 -0.3780
  189MOL     O430460   4.590   0.340   0.039 -0.0480 -0.2178  0.1486
  189MOL     H530461   4.783   0.578   0.010  0.5586  0.4493  1.2838
  189MOL     H630462   4.890   0.577   0.140  0.6583 -0.8531 -0.6753
  189MOL     H730463   4.639   0.579   0.204 -1.6085 -0.5417  0.3161
  189MOL     H830464   4.755   0.464   0.278  1.0925 -1.2133 -0.7149
  189MOL     H930465   4.865   0.425   0.062  0.7804 -0.6314 -0.0833
  189MOL    C1030466   4.554   0.291   0.267 -0.5339 -0.2883 -0.3774
  189MOL    C1130467   4.438   0.200   0.232 -0.4675 -0.2088  0.0056
  189MOL    C1230468   4.316   0.200   0.332 -0.2456 -0.6496 -0.6976
  189MOL    O1330469   4.310   0.284   0.422  0.6107 -0.0433 -0.1447
  189MOL    H1430470   4.552   0.359   0.352  2.6735 -0.2606 -0.2653
  189MOL    H1530471   4.626   0.219   0.303  0.4330  0.5134 -0.6741
  189MOL    H1630472   4.474   0.098   0.221  0.7786  0.3852 -1.6882
  189MOL    H1730473   4.393   0.227   0.136 -0.9323  1.9500  0.8058
  189MOL    C1830474   4.196   0.110   0.311 -0.9272 -0.3807 -0.3219
  189MOL    C1930475   4.214   7.825   0.349 -0.2155  0.2722 -0.4477
  189MOL    C2030476   4.303   7.749   0.253 -0.0740 -1.0229  0.5136
  189MOL    O2130477   4.317   7.790   0.137 -0.2234 -0.1414 -0.0414
  189MOL    H2230478   4.166   0.125   0.208 -0.2665  0.1471 -0.4411
  189MOL    H2330479   4.113   0.154   0.365 -1.0777 -0.9967 -0.0424
  189MOL    H2430480   4.114   7.785   0.364  0.5240 -0.8905  1.6556
  189MOL    H2530481   4.267   7.831   0.444  1.3155  1.2291 -1.3452
  189MOL    C2630482   4.334   7.602   0.292  1.4465 -0.5291  0.0381
  189MOL    C2730483   4.454   7.545   0.200  0.3784 -0.0363 -0.6192
  189MOL    C2830484   4.475   7.397   0.227 -0.1343  0.5169  0.8589
  189MOL    O2930485   4.491   7.354   0.342 -0.2409 -0.0668 -0.1936
  189MOL    H3030486   4.248   7.537   0.280 -0.6674  1.9635  1.0419
  189MOL    H3130487   4.364   7.585   0.396 -0.1627 -0.4970  0.5175
  189MOL    H3230488   4.547   7.600   0.207  0.6777 -0.4597 -1.2556
  189MOL    H3330489   4.426   7.546   0.094  1.2534 -1.1702 -0.8619
  189MOL    C3430490   4.486   7.298   0.107 -0.7705 -0.3750 -0.5604
  189MOL    C3530491   4.534   7.154   0.145  0.0331 -0.3869 -0.4054
  189MOL    C3630492   4.419   7.072   0.213  0.2167  0.3813 -0.2055
  189MOL    O3730493   4.308   7.046   0.164  0.0493  0.9570 -0.1173
  189MOL    H3830494   4.561   7.329   0.035 -1.3383 -2.1596 -1.9568
  189MOL    H3930495   4.393   7.286   0.051 -0.4684  1.2825 -1.4511
  189MOL    H4030496   4.611   7.152   0.223  2.3702  0.4818 -2.6114
  189MOL    H4130497   4.560   7.096   0.056  0.8239  0.6664 -0.8634
  189MOL    C4230498   4.443   7.023   0.361 -0.5143 -0.0816  0.5114
  189MOL    C4330499   4.413   6.876   0.376  0.4245 -0.0151  0.1450
  189MOL    C4430500   4.543   6.790   0.379 -0.4954  0.6385  0.0017
  189MOL    O4530501   4.651   6.836   0.343  0.2776 -0.0739 -0.6690
  189MOL    H4630502   4.385   7.081   0.434  3.1048  2.5549  1.4197
  189MOL    H4730503   4.549   7.039   0.381 -0.5771  0.6391  0.3037
  189MOL    H4830504   4.366   6.831   0.288  0.3698  1.0734 -0.3959
  189MOL    H4930505   4.367   6.853   0.472 -1.1214 -0.7374 -0.7507
  189MOL    C5030506   4.535   6.645   0.406 -0.2968  0.4167 -0.2067
  189MOL    C5130507   4.648   6.555   0.359  0.3604  0.0965 -0.0787
  189MOL    C5230508   4.785   6.572   0.425  0.0085 -0.0358  0.0388
  189MOL    O5330509   4.811   6.549   0.541 -0.3619 -0.0954 -0.1695
  189MOL    H5430510   4.451   6.605   0.349  0.5845  1.2666 -2.1242
  189MOL    H5530511   4.530   6.620   0.512 -0.0932 -2.8353 -0.8966
  189MOL    H5630512   4.660   6.560   0.251  0.6134  0.9837 -0.0147
  189MOL    H5730513   4.602   6.459   0.381 -0.7432  0.6007 -0.1330
  189MOL    C5830514   4.899   6.610   0.335  0.2995 -0.1134  0.1244
  189MOL    C5930515   4.960   6.491   0.261 -0.2910 -0.0485  0.6533
  189MOL    C6030516   4.983   6.532   0.113  0.2650  0.1901 -0.0068
  189MOL    O6130517   4.887   6.570   0.044  0.0899  0.1739  0.8467
  189MOL    H6230518   4.980   6.654   0.393 -0.9735  0.4750  1.5093
  189MOL    H6330519   4.862   6.691   0.272 -3.0534 -2.5280 -1.1713
  189MOL    H6430520   4.893   6.406   0.248  0.7215 -0.9211  1.0250
  189MOL    H6530521   5.047   6.449   0.312 -0.3353 -0.8857  0.0545
  189MOL    C6630522   5.129   6.538   0.069  0.4218  0.0351 -0.2892
  189MOL    C6730523   5.149   6.593   7.784  0.0288 -0.0414 -0.2660
  189MOL    C6830524   5.268   6.687   7.771 -0.0829 -0.1807  0.1101
  189MOL    O6930525   5.332   6.718   0.012 -0.3203  0.6878  0.3345
  189MOL    H7030526   5.170   6.437   0.067  1.9367  0.6592 -1.9330
  189MOL    H7130527   5.179   6.592   0.149  1.2827 -0.0441 -0.7630
  189MOL    H7230528   5.065   6.658   7.759 -0.4664 -0.2754  0.7656
  189MOL    H7330529   5.148   6.525   7.699 -1.8801 -1.0052  0.4906
  189MOL    C7430530   5.327   6.726   7.635 -0.2967  0.0347 -0.1189
  189MOL    C7530531   5.405   6.860   7.640 -0.4930  0.0804  0.4888
  189MOL    C7630532   5.341   6.979   7.573  0.4392 -0.1849 -0.1066
  189MOL    O7730533   5.358   6.997   7.449  0.0448 -0.7328 -0.4027
  189MOL    H7830534   5.251   6.726   7.557  0.6741 -0.6866 -1.0766
  189MOL    H7930535   5.403   6.650   7.621  0.2231  0.5553 -0.1233
  189MOL    H8030536   5.502   6.848   7.592 -0.2097 -0.2582  1.1307
  189MOL    H8130537   5.404   6.891   7.745  0.3251 -1.0464  0.8487
  189MOL    C8230538   5.258   7.076   7.667  0.3364  0.5680  0.5926
  189MOL    C8330539   5.299   7.226   7.653  0.0742 -0.0830  0.1045
  189MOL    C8430540   5.179   7.320   7.661  0.1890  0.3164  0.2538
  189MOL    O8530541   5.079   7.303   7.588  0.2672 -0.3010 -0.0477
  189MOL    H8630542   5.270   7.039   7.769  3.5398 -0.3357 -0.0264
  189MOL    H8730543   5.156   7.070   7.630  0.9691 -1.5284 -0.9025
  189MOL    H8830544   5.332   7.243   7.550 -2.7237  1.0799 -0.6451
  189MOL    H8930545   5.382   7.249   7.719  1.4491  1.7795 -2.1961
  189MOL    C9030546   5.181   7.424   7.778  0.9222 -0.0024  0.1552
  189MOL    C9130547   5.053   7.514   7.779 -0.3454 -0.1527 -0.5590
  189MOL    C9230548   4.965   7.470   0.036  0.3184  0.5396 -0.6629
  189MOL    O9330549   4.962   7.529   0.146 -0.4731  0.0492 -0.0923
  189MOL    H9430550   5.276   7.477   7.776  3.2482 -3.9911 -0.3634
  189MOL    H9530551   5.187   7.356   0.004  0.0976  0.8034  0.8766
  189MOL    H9630552   4.989   7.502   7.691  1.3523 -0.2020 -1.8027
  189MOL    H9730553   5.082   7.619   7.786 -0.6527 -0.1789  1.2236
  189MOL    C9830554   4.873   7.347   0.013 -0.0906  0.7343  0.1210
  189MOL    C9930555   4.875   7.236   0.119  0.3691 -0.7742 -0.4588
  189MOL   C10030556   4.980   7.124   0.097 -0.8482 -0.3197  0.0057
  189MOL   O10130557   5.074   7.141   0.017  0.0054  0.4933  0.0023
  189MOL   H10230558   4.880   7.296   7.776 -0.7800  1.2929 -0.2335
  189MOL   H10330559   4.773   7.391   0.013  0.7035  2.5974  1.0575
  189MOL   H10430560   4.779   7.184   0.131  0.2193  0.0309  2.3182
  189MOL   H10530561   4.891   7.287   0.215  0.0623 -2.0437  0.2841
  189MOL   C10630562   4.965   6.992   0.183  0.1071  0.3522  0.8751
  189MOL   C10730563   5.088   6.903   0.179 -0.3385  0.6696  0.3633
  189MOL   C10830564   5.145   6.866   0.314 -0.0284  0.0437 -1.0383
  189MOL   O10930565   5.071   6.858   0.412 -0.4894 -0.0073  0.1991
  189MOL   H11030566   4.880   6.947   0.130  0.2588  1.0303  0.0298
  189MOL   H11130567   4.920   7.018   0.279 -2.6129  1.1371 -0.5344
  189MOL   H11230568   5.169   6.940   0.118  1.2640 -0.9128  1.4792
  189MOL   H11330569   5.061   6.811   0.126 -0.1826 -0.5606  2.3469
  189MOL   C11430570   5.297   6.821   0.324  0.4316  0.5767  0.6311
  189MOL   C11530571   5.336   6.755   0.455 -0.0723  0.5434 -0.2815
  189MOL   C11630572   5.294   6.612   0.477 -0.4445  0.7421 -0.1291
  189MOL   O11730573   5.278   6.529   0.392  0.3227  0.2749  0.2617
  189MOL   H11830574   5.359   6.909   0.302 -0.9435  1.4135  0.0463
  189MOL   H11930575   5.318   6.757   0.238  0.3193 -0.3192  1.2760
  189MOL   H12030576   5.305   6.822   0.535 -0.4595 -1.4943  1.3166
  189MOL   H12130577   5.445   6.754   0.459 -0.1072 -1.1977  0.8610
  189MOL   C12230578   5.252   6.583   0.619 -0.6208 -0.0184  0.1543
  189MOL   C12330579   5.102   6.610   0.636 -0.0587 -1.0489  0.2946
  189MOL   C12430580   5.044   6.537   0.753  0.1815 -0.5490 -0.6478
  189MOL   O12530581   5.106   6.455   0.821  0.3708  0.8676 -0.6686
  189MOL   H12630582   5.317   6.643   0.683  1.7631  0.2584 -2.4184
  189MOL   H12730583   5.276   6.478   0.635 -0.7595  0.1678  1.6162
  189MOL   H12830584   5.043   6.573   0.552 -0.8199  1.9266 -0.5720
  189MOL   H12930585   5.074   6.716   0.644 -1.9198 -1.3575 -1.6653
  189MOL   C13030586   4.911   6.582   0.806 -0.1467 -0.5697  0.0312
  189MOL   C13130587   4.911   6.605   0.962  0.3499 -0.5284 -0.5246
  189MOL   C13230588   4.824   6.496   1.022 -0.2954 -0.5277 -0.2246
  189MOL   O13330589   4.836   6.377   0.980 -0.1549  0.1888 -0.2997
  189MOL   H13430590   4.832   6.515   0.774 -0.3198 -0.5068  0.3277
  189MOL   H13530591   4.880   6.675   0.758  1.3423 -1.4845 -2.8622
  189MOL   H13630592   4.866   6.702   0.985 -1.1887 -1.0852 -1.0611
  189MOL   H13730593   5.013   6.602   1.000 -0.4433  2.5632  2.0124
  189MOL   C13830594   4.717   6.527   1.127 -0.5104  0.2499  0.1106
  189MOL   C13930595   4.714   6.424   1.241  0.9573 -0.0250  0.1975
  189MOL   C14030596   4.613   6.460   1.352 -0.8687 -0.5327  1.2229
  189MOL   O14130597   4.508   6.518   1.318  0.2740  0.2459  0.4172
  189MOL   H14230598   4.627   6.515   1.067  0.8026 -2.0825 -1.4672
  189MOL   H14330599   4.727   6.629   1.163 -1.9671 -0.3077  2.2177
  189MOL   H14430600   4.813   6.426   1.288  0.9832 -0.8947  0.1787
  189MOL   H14530601   4.693   6.325   1.201  0.6735  0.8773 -1.9271
  189MOL   C14630602   4.634   6.414   1.493 -0.7661  0.7265  0.2842
  189MOL   C14730603   4.515   6.335   1.551  0.0592 -0.0052  0.4302
  189MOL   C14830604   4.438   6.421   1.650 -0.2225  0.0528  0.7639
  189MOL   O14930605   4.485   6.443   1.763 -0.1648 -0.0419  0.5505
  189MOL   H15030606   4.650   6.513   1.534  0.8061  0.1264  1.1606
  189MOL   H15130607   4.732   6.367   1.493 -1.0291  0.1693  0.1836
  189MOL   H15230608   4.558   6.251   1.606 -1.5749 -1.1765 -0.0682
  189MOL   H15330609   4.449   6.289   1.478  0.9842 -0.3786 -0.1803
  189MOL   C15430610   4.302   6.474   1.607 -0.1097  0.9387  0.1327
  189MOL   C15530611   4.232   6.540   1.732 -0.1219  0.5602 -0.1481
  189MOL   C15630612   4.114   6.455   1.777  0.0564  0.4765  0.0524
  189MOL   O15730613   4.022   6.439   1.697  0.2067 -0.5846  0.4406
  189MOL   H15830614   4.258   6.378   1.579 -1.0477  1.2554  0.5246
  189MOL   H15930615   4.312   6.538   1.520 -1.9496  0.0808 -0.7299
  189MOL   H16030616   4.172   6.629   1.714 -0.7149 -0.2842 -2.4859
  189MOL   H16130617   4.304   6.563   1.811  0.0946  0.1444 -0.2244
  189MOL   H16230618   4.125   6.418   1.879 -1.4586  1.9998  0.7872
  190MOL     C130619   3.955   6.309   2.910 -0.0803  0.1059  0.9842
  190MOL     C230620   3.954   6.279   3.065 -0.2289 -0.0485 -0.5919
  190MOL     C330621   3.914   6.134   3.100 -0.0202 -0.3498  0.6854
  190MOL     O430622   3.796   6.097   3.088  0.1367  0.0309  0.0875
  190MOL     H530623   3.865   6.365   2.884  1.9625  3.5894  1.2392
  190MOL     H630624   4.027   6.390   2.900  0.3688 -0.4019  0.0389
  190MOL     H730625   3.873   6.342   3.103 -0.5802 -0.9269  0.1185
  190MOL     H830626   4.050   6.308   3.109 -1.4071  0.4662  1.6875
  190MOL     H930627   3.969   6.226   2.841 -1.9313  0.6325 -0.0536
  190MOL    C1030628   4.017   6.038   3.152 -0.0752  0.5899 -0.4593
  190MOL    C1130629   3.985   6.001   3.304 -0.3891  0.5118 -0.5394
  190MOL    C1230630   4.023   6.107   3.404 -0.1210 -0.0949  0.3282
  190MOL    O1330631   4.103   6.195   3.368  0.4631 -0.3364  0.6960
  190MOL    H1430632   4.119   6.074   3.137  0.1751 -0.2912 -0.8992
  190MOL    H1530633   4.007   5.950   3.088  0.4548 -0.3310  0.7094
  190MOL    H1630634   4.055   5.917   3.306  0.4417  1.0304 -3.8274
  190MOL    H1730635   3.882   5.967   3.306 -0.5405  0.9346 -0.9879
  190MOL    C1830636   3.974   6.090   3.549 -0.7958 -0.3477 -1.0421
  190MOL    C1930637   3.982   6.208   3.644  0.3137 -0.4571  0.5663
  190MOL    C2030638   4.100   6.210   3.739  0.4109 -0.5721 -0.6029
  190MOL    O2130639   4.192   6.124   3.723  0.0525  0.4232  0.6644
  190MOL    H2230640   4.023   6.004   3.594  1.1258  1.1332 -0.2256
  190MOL    H2330641   3.870   6.061   3.535 -0.5267 -1.6206 -0.4493
  190MOL    H2430642   3.887   6.200   3.696 -0.3216  0.1628 -0.4817
  190MOL    H2530643   3.979   6.302   3.589  1.0014  0.7591  2.5985
  190MOL    C2630644   4.099   6.314   3.849  0.2512  0.3744  0.0172
  190MOL    C2730645   4.226   6.351   3.929  0.0041  0.0001  0.7787
  190MOL    C2830646   4.208   6.431   4.057 -0.0077 -0.8359  0.2445
  190MOL    O2930647   4.118   6.518   4.064  0.1068  0.1384  0.2727
  190MOL    H3030648   4.025   6.282   3.922  0.2416 -2.2069 -1.1140
  190MOL    H3130649   4.049   6.402   3.808 -1.3012 -0.8067 -0.6511
  190MOL    H3230650   4.293   6.400   3.859  1.6723 -2.2068  0.7672
  190MOL    H3330651   4.274   6.258   3.960 -1.8069 -0.5820  1.9172
  190MOL    C3430652   4.301   6.391   4.178  0.2839  0.1694  0.2296
  190MOL    C3530653   4.348   6.516   4.256  0.0531  0.0416 -0.0828
  190MOL    C3630654   4.490   6.555   4.222 -0.0544  0.3918 -0.2801
  190MOL    O3730655   4.568   6.478   4.174 -1.0431 -0.5267  0.2173
  190MOL    H3830656   4.382   6.338   4.127 -0.4309 -0.4294 -0.2753
  190MOL    H3930657   4.235   6.326   4.235 -0.6321 -0.0994 -1.1056
  190MOL    H4030658   4.340   6.491   4.362 -1.5047 -1.1532 -0.4703
  190MOL    H4130659   4.277   6.596   4.235 -2.0673 -1.3340  1.6698
  190MOL    C4230660   4.521   6.696   4.248 -0.2959 -0.3816 -0.4017
  190MOL    C4330661   4.672   6.736   4.219 -0.3654  0.2623 -0.0791
  190MOL    C4430662   4.674   6.878   4.265 -0.1391  0.3511 -0.1946
  190MOL    O4530663   4.627   6.963   4.189 -0.4088  0.2333  0.6541
  190MOL    H4630664   4.492   6.724   4.350  1.3090 -0.3812  0.0812
  190MOL    H4730665   4.471   6.770   4.186  0.8596  1.0241  0.2954
  190MOL    H4830666   4.687   6.722   4.112 -1.3501 -0.5551 -0.1105
  190MOL    H4930667   4.734   6.670   4.280  0.2810 -0.6394 -1.7056
  190MOL    C5030668   4.742   6.898   4.403  0.4848 -0.6558 -0.5932
  190MOL    C5130669   4.702   7.036   4.476 -0.6097  0.8602 -0.7930
  190MOL    C5230670   4.820   7.130   4.488  0.1016 -0.3891 -0.0781
  190MOL    O5330671   4.936   7.089   4.472  0.2774 -0.0324  0.3773
  190MOL    H5430672   4.849   6.880   4.391  0.7644  0.6461 -0.2021
  190MOL    H5530673   4.707   6.818   4.468 -1.9963  0.5815 -0.3711
  190MOL    H5630674   4.681   7.018   4.582  0.4162  1.0822 -0.5464
  190MOL    H5730675   4.615   7.084   4.431  0.5074 -0.3995 -4.4901
  190MOL    C5830676   4.787   7.276   4.515 -0.0501  0.6148 -0.4230
  190MOL    C5930677   4.908   7.358   4.571 -0.0680 -0.2548  0.3643
  190MOL    C6030678   4.888   7.428   4.700 -0.1444  0.1769 -0.2253
  190MOL    O6130679   4.863   7.545   4.712  0.2372 -0.8940  0.1444
  190MOL    H6230680   4.705   7.283   4.587  0.4962 -1.6987  0.4535
  190MOL    H6330681   4.753   7.313   4.418 -1.5477 -0.8535 -0.4708
  190MOL    H6430682   4.927   7.430   4.492 -0.2263  1.2339  1.6682
  190MOL    H6530683   4.994   7.293   4.588 -0.8341 -1.6625 -1.0415
  190MOL    C6630684   4.906   7.350   4.827  0.1702  0.0451  0.2882
  190MOL    C6730685   4.799   7.401   4.937 -1.1392 -0.2218  0.7232
  190MOL    C6830686   4.664   7.348   4.911 -0.2958 -0.2027 -0.0325
  190MOL    O6930687   4.649   7.261   4.825 -0.0439 -0.1746 -0.2864
  190MOL    H7030688   5.008   7.341   4.865 -0.2339 -1.0241  1.1560
  190MOL    H7130689   4.877   7.251   4.791 -0.4796  0.6013 -0.7553
  190MOL    H7230690   4.791   7.509   4.930 -0.5037 -0.2817 -1.5486
  190MOL    H7330691   4.826   7.372   5.038 -0.2910  1.1634  0.9001
  190MOL    C7430692   4.535   7.404   4.984 -0.5896  0.0951 -0.2463
  190MOL    C7530693   4.477   7.301   5.077  0.3433 -0.2117 -0.1544
  190MOL    C7630694   4.516   7.316   5.224 -0.6572 -0.4715  0.0602
  190MOL    O7730695   4.623   7.364   5.253 -0.6627  0.0375  0.1057
  190MOL    H7830696   4.471   7.444   4.906  1.1618 -0.4147 -1.9943
  190MOL    H7930697   4.562   7.495   5.038  1.4111 -0.6768  0.1264
  190MOL    H8030698   4.500   7.198   5.053 -2.3841 -0.6928 -0.8314
  190MOL    H8130699   4.370   7.283   5.065  0.0342  1.6471 -0.4262
  190MOL    C8230700   4.433   7.244   5.331 -0.4819  0.3102  0.7316
  190MOL    C8330701   4.490   7.111   5.386  0.7827  0.2558 -0.0783
  190MOL    C8430702   4.605   7.031   5.310  0.8522  0.3562 -0.2415
  190MOL    O8530703   4.708   7.081   5.276 -0.1415  0.0929 -0.0794
  190MOL    H8630704   4.337   7.220   5.286 -0.9255 -0.9300  2.3069
  190MOL    H8730705   4.414   7.314   5.413 -0.7251 -0.5831  1.4419
  190MOL    H8830706   4.418   7.037   5.420 -1.4980  1.4185 -2.2174
  190MOL    H8930707   4.532   7.153   5.478 -1.7147  1.8525  0.3761
  190MOL    C9030708   4.574   6.888   5.280  0.0258  0.5561  0.0682
  190MOL    C9130709   4.449   6.861   5.198 -0.4933 -0.4654 -0.0965
  190MOL    C9230710   4.491   6.802   5.068  0.4484 -0.6516  0.8440
  190MOL    O9330711   4.560   6.866   4.994  0.4763  0.5767 -0.8814
  190MOL    H9430712   4.557   6.843   5.378  2.6700  2.1275  1.3118
  190MOL    H9530713   4.656   6.831   5.236  0.0014  0.0396  0.6792
  190MOL    H9630714   4.389   6.950   5.181 -1.5926 -1.3751 -1.0277
  190MOL    H9730715   4.384   6.793   5.254 -0.1520  1.0201  2.1994
  190MOL    C9830716   4.438   6.667   5.021 -0.5324 -0.5903  0.4292
  190MOL    C9930717   4.537   6.595   4.929  0.1033  0.4828 -0.3614
  190MOL   C10030718   4.477   6.463   4.876 -0.9835  0.3133  0.0941
  190MOL   O10130719   4.383   6.402   4.936 -0.3379  0.1920  0.1325
  190MOL   H10230720   4.345   6.690   4.970  2.0016  0.8950 -3.8598
  190MOL   H10330721   4.414   6.614   5.113 -0.8486 -0.7758  0.2376
  190MOL   H10430722   4.635   6.578   4.973 -0.6004 -0.0507  1.0010
  190MOL   H10530723   4.558   6.653   4.839 -0.0479 -0.1605 -0.8102
  190MOL   C10630724   4.561   6.389   4.769 -0.6321  0.2455  0.2377
  190MOL   C10730725   4.527   6.244   4.741 -0.5631 -0.0086 -0.3370
  190MOL   C10830726   4.439   6.215   4.625  0.0046  0.0014 -0.3780
  190MOL   O10930727   4.467   6.236   4.504  0.2265  0.2008 -0.1515
  190MOL   H11030728   4.665   6.401   4.801 -1.3216 -1.3077  3.3051
  190MOL   H11130729   4.555   6.435   4.671 -1.7493 -1.6077 -0.6021
  190MOL   H11230730   4.486   6.199   4.832 -0.0104  1.6639  0.7558
  190MOL   H11330731   4.619   6.187   4.726  0.8115  2.3621 -1.2606
  190MOL   C11430732   4.299   6.171   4.672 -0.3555 -0.5011  0.5244
  190MOL   C11530733   4.195   6.181   4.556 -0.0418  0.1093 -0.6677
  190MOL   C11630734   4.195   6.056   4.472  0.0107 -0.2705  0.1152
  190MOL   O11730735   4.101   5.981   4.496 -0.3542 -0.6789 -0.0055
  190MOL   H11830736   4.281   6.247   4.749 -1.9214  0.2142 -0.5166
  190MOL   H11930737   4.292   6.073   4.719 -0.8518  0.2336  2.0233
  190MOL   H12030738   4.232   6.263   4.494 -1.7919  1.5060  0.0865
  190MOL   H12130739   4.094   6.208   4.586 -1.0743 -2.0198 -2.1480
  190MOL   C12230740   4.307   6.024   4.368  0.6592  0.1429  0.4799
  190MOL   C12330741   4.246   5.927   4.266 -0.8504 -0.1602 -0.2072
  190MOL   C12430742   4.190   5.995   4.141 -0.7368  0.3513 -0.1861
  190MOL   O12530743   4.167   6.119   4.146  0.2314  0.4186  0.3662
  190MOL   H12630744   4.396   5.979   4.410 -0.1738 -1.7115  0.3143
  190MOL   H12730745   4.350   6.110   4.317  2.6017 -2.1206 -1.7691
  190MOL   H12830746   4.168   5.860   4.302 -0.6216 -1.3027 -1.7673
  190MOL   H12930747   4.321   5.854   4.235  1.0228  0.9737  1.5296
  190MOL   C13030748   4.159   5.910   4.018 -0.1267  0.0270  0.3985
  190MOL   C13130749   4.009   5.903   3.983  0.1932 -0.3940  0.3931
  190MOL   C13230750   3.930   5.795   4.049  0.3788  0.0221  0.2831
  190MOL   O13330751   3.974   5.730   4.142  0.6067 -0.4129  0.2098
  190MOL   H13430752   4.210   5.814   4.023 -0.8719 -0.4413 -0.6936
  190MOL   H13530753   4.207   5.943   3.926 -0.3506 -0.3145  0.1576
  190MOL   H13630754   3.984   5.896   3.877 -1.8828 -0.2714  0.8520
  190MOL   H13730755   3.960   5.996   4.013 -0.5984 -0.9261  0.7536
  190MOL   C13830756   3.788   5.765   3.993 -0.7702 -0.2012 -0.2650
  190MOL   C13930757   3.790   5.646   3.896  0.7985 -0.9563 -0.2405
  190MOL   C14030758   3.809   5.677   3.746 -0.0150 -0.1227  0.6497
  190MOL   O14130759   3.798   5.794   3.708  0.2976  0.0346 -0.0183
  190MOL   H14230760   3.754   5.861   3.952 -0.9129 -0.4130 -0.6447
  190MOL   H14330761   3.721   5.729   4.070 -3.0365  1.6932 -1.2790
  190MOL   H14430762   3.700   5.586   3.905  0.8674 -0.7791  1.9720
  190MOL   H14530763   3.870   5.574   3.915  1.0690 -0.2008  1.6221
  190MOL   C14630764   3.833   5.565   3.649 -0.3341 -0.4260  0.4113
  190MOL   C14730765   3.931   5.601   3.534 -0.8632  0.1873 -0.6520
  190MOL   C14830766   3.861   5.583   3.396  0.2856  0.4088 -1.0653
  190MOL   O14930767   3.793   5.671   3.349 -0.5052  0.2887  0.0139
  190MOL   H15030768   3.733   5.539   3.617 -0.0050 -1.1142 -0.0709
  190MOL   H15130769   3.865   5.477   3.705 -3.8539  0.1159  3.4600
  190MOL   H15230770   4.021   5.540   3.528 -0.8330  0.3869 -2.9162
  190MOL   H15330771   3.985   5.695   3.542 -1.0907  0.2577  0.0365
  190MOL   C15430772   3.863   5.451   3.321  0.6479  0.4568  0.4509
  190MOL   C15530773   3.729   5.412   3.266  0.4845  0.4356  0.2429
  190MOL   C15630774   3.649   5.308   3.340 -1.0751 -0.2937 -0.0079
  190MOL   O15730775   3.568   5.241   3.273  0.1756  0.3355 -0.1793
  190MOL   H15830776   3.918   5.376   3.378  1.0743 -0.3753 -1.0245
  190MOL   H15930777   3.934   5.461   3.239  0.9192  0.0154  0.6245
  190MOL   H16030778   3.746   5.369   3.167 -0.0395 -0.8027  0.6691
  190MOL   H16130779   3.670   5.502   3.251 -2.3837 -1.3367  0.4363
  190MOL   H16230780   3.668   5.296   3.446 -2.3447  2.0484  0.5300
  191MOL     C130781   5.251   7.317   5.806  0.3325  0.4083 -0.7200
  191MOL     C230782   5.255   7.161   5.813  0.0952  0.1585  0.8108
  191MOL     C330783   5.159   7.111   5.929  0.1985 -0.8896 -0.1599
  191MOL     O430784   5.045   7.160   5.947  0.2061 -0.2656  0.1066
  191MOL     H530785   5.224   7.355   5.708  1.5363  2.4276 -0.3097
  191MOL     H630786   5.193   7.365   5.885 -0.3529  0.1461 -1.0603
  191MOL     H730787   5.354   7.123   5.838 -0.6557 -1.6480  1.0835
  191MOL     H830788   5.221   7.113   5.722  2.3424  1.3804 -0.7026
  191MOL     H930789   5.353   7.345   5.835  0.6321 -1.1727 -0.2095
  191MOL    C1030790   5.208   7.000   6.023  0.3111  0.3887  1.1551
  191MOL    C1130791   5.141   6.994   6.156  0.3411  0.3260 -0.2930
  191MOL    C1230792   5.161   7.114   6.251 -0.1938 -0.9596  0.4732
  191MOL    O1330793   5.209   7.220   6.207 -0.5305  1.1052  0.9330
  191MOL    H1430794   5.315   7.018   6.034  0.2578  0.2039  1.9979
  191MOL    H1530795   5.186   6.910   5.966  0.1799  0.3950  1.1954
  191MOL    H1630796   5.192   6.918   6.216  0.4423  0.8241  0.2523
  191MOL    H1730797   5.034   6.975   6.148  0.0768  1.9687 -0.7313
  191MOL    C1830798   5.114   7.104   6.400 -0.3488  0.7637  0.6136
  191MOL    C1930799   5.096   7.242   6.468  0.4032  0.2970 -0.3469
  191MOL    C2030800   5.211   7.333   6.491 -0.1583 -0.3445  0.1470
  191MOL    O2130801   5.316   7.292   6.540 -0.3318  0.2296  0.5791
  191MOL    H2230802   5.189   7.042   6.449  0.1052  0.8225  0.0036
  191MOL    H2330803   5.027   7.039   6.405  0.9110 -1.0385 -0.2611
  191MOL    H2430804   5.056   7.209   6.564  0.7145 -0.9358 -0.6390
  191MOL    H2530805   5.013   7.298   6.424 -1.7086 -2.1744  0.3857
  191MOL    C2630806   5.197   7.482   6.462 -0.0411 -0.0255  0.9658
  191MOL    C2730807   5.322   7.565   6.496 -0.0824  0.1848 -0.4265
  191MOL    C2830808   5.339   7.691   6.419  0.5331  0.3866  0.3775
  191MOL    O2930809   5.253   7.773   6.430 -0.3680  0.0713 -0.1167
  191MOL    H3030810   5.106   7.525   6.503 -0.4509  0.5242 -0.5125
  191MOL    H3130811   5.181   7.488   6.355  2.7796 -0.2121  0.5011
  191MOL    H3230812   5.415   7.510   6.481 -0.5478 -1.0460  1.0454
  191MOL    H3330813   5.322   7.592   6.602 -1.1599 -1.5048  0.0228
  191MOL    C3430814   5.468   7.722   6.347 -0.3642 -0.2640 -0.4715
  191MOL    C3530815   5.476   7.628   6.222  0.3163 -0.4072  0.7924
  191MOL    C3630816   5.576   7.517   6.208 -0.4262  0.2271 -0.7567
  191MOL    O3730817   5.672   7.520   6.283 -0.0895  0.7440  0.5442
  191MOL    H3830818   5.549   7.694   6.414 -0.6098 -0.5714 -0.2998
  191MOL    H3930819   5.477   7.828   6.327  1.3966 -0.4100 -0.5775
  191MOL    H4030820   5.508   7.688   6.137  0.0169  0.4630  1.2795
  191MOL    H4130821   5.375   7.590   6.207  0.4406 -0.1434 -0.7092
  191MOL    C4230822   5.563   7.412   6.096 -0.0904 -0.0505  0.5826
  191MOL    C4330823   5.700   7.379   6.041 -0.2022 -0.1690  0.2756
  191MOL    C4430824   5.712   7.337   5.891  0.5282  0.1808 -0.0500
  191MOL    O4530825   5.608   7.318   5.819  0.0713  0.0701  0.0111
  191MOL    H4630826   5.489   7.454   6.028 -1.8748 -2.0535  1.2436
  191MOL    H4730827   5.505   7.324   6.123  0.9102 -0.4886  1.3555
  191MOL    H4830828   5.744   7.302   6.104 -1.5185  0.1210  1.5684
  191MOL    H4930829   5.750   7.475   6.056 -0.3722 -0.1345  0.6367
  191MOL    C5030830   5.855   7.317   5.835 -0.3410 -0.2116  0.8430
  191MOL    C5130831   5.863   7.226   5.714 -0.5972  0.7350 -0.6881
  191MOL    C5230832   5.820   7.298   5.583 -1.0758 -0.5515 -1.0093
  191MOL    O5330833   5.864   7.409   5.548 -0.1961 -0.0463  0.3245
  191MOL    H5430834   5.906   7.267   5.917 -0.2247  1.1375  1.6189
  191MOL    H5530835   5.907   7.412   5.829 -1.9838  0.6664 -0.0850
  191MOL    H5630836   5.799   7.140   5.734  3.1125 -2.2061 -1.0699
  191MOL    H5730837   5.967   7.202   5.692 -0.2860  1.6706 -0.2554
  191MOL    C5830838   5.710   7.233   5.498  0.1362  0.1097 -0.4061
  191MOL    C5930839   5.677   7.313   5.366 -0.0891  0.0731  0.0522
  191MOL    C6030840   5.526   7.328   5.345 -0.7045  0.2933  0.3049
  191MOL    O6130841   5.446   7.277   5.429 -0.1282  0.5627  0.1443
  191MOL    H6230842   5.623   7.228   5.563 -0.3192  1.0901 -0.9179
  191MOL    H6330843   5.745   7.133   5.471 -1.1057 -1.4255  3.2888
  191MOL    H6430844   5.713   7.290   5.266  1.7230 -0.8503  0.8985
  191MOL    H6530845   5.712   7.416   5.376  1.1390 -0.3739  0.3602
  191MOL    C6630846   5.478   7.408   5.226  0.2717 -0.9227  0.0343
  191MOL    C6730847   5.317   7.391   5.205 -0.0389  1.0425  0.3026
  191MOL    C6830848   5.269   7.254   5.162  0.3943 -0.0629  0.1086
  191MOL    O6930849   5.343   7.152   5.154 -0.2512 -0.2217  0.5431
  191MOL    H7030850   5.538   7.364   5.146  1.1722 -1.2683  0.8879
  191MOL    H7130851   5.507   7.512   5.242 -1.4975 -0.2782 -0.7685
  191MOL    H7230852   5.279   7.460   5.129  1.0482  2.3112  0.9024
  191MOL    H7330853   5.272   7.420   5.300 -0.4156 -1.0725  0.7975
  191MOL    C7430854   5.121   7.238   5.118 -0.7200  0.3986  0.2020
  191MOL    C7530855   5.065   7.093   5.131  0.1936 -0.2664  0.2448
  191MOL    C7630856   5.070   7.024   4.996  0.0301 -0.5400 -0.4408
  191MOL    O7730857   5.111   7.078   4.893 -0.3210  0.3037  0.6188
  191MOL    H7830858   5.118   7.272   5.014  0.0756 -1.6211 -0.5075
  191MOL    H7930859   5.051   7.304   5.170 -2.6793 -0.4352 -1.3382
  191MOL    H8030860   4.960   7.089   5.160  0.1129 -0.1113 -0.0258
  191MOL    H8130861   5.110   7.039   5.214  1.0449 -2.5143 -1.6131
  191MOL    C8230862   5.014   6.883   4.986  0.0803  0.1634  0.0563
  191MOL    C8330863   4.919   6.879   4.870  0.3625 -0.0665  0.1243
  191MOL    C8430864   4.869   6.737   4.843 -0.2316 -0.4463 -0.2820
  191MOL    O8530865   4.856   6.651   4.934  0.0370 -0.4768  0.4143
  191MOL    H8630866   4.963   6.861   5.079  0.4025 -1.0288 -0.0474
  191MOL    H8730867   5.093   6.809   4.971 -0.9242 -0.8379 -0.3409
  191MOL    H8830868   4.976   6.898   4.779 -1.6566  2.1480 -0.7243
  191MOL    H8930869   4.835   6.946   4.888 -0.4160 -0.6087 -1.3756
  191MOL    C9030870   4.823   6.716   4.705 -0.4062 -0.6662 -0.3189
  191MOL    C9130871   4.887   6.597   4.639  1.1651 -0.0876 -0.5261
  191MOL    C9230872   4.796   6.524   4.526 -0.2289 -0.3439  0.8773
  191MOL    O9330873   4.680   6.558   4.528 -0.7638  0.4030  0.0888
  191MOL    H9430874   4.843   6.797   4.634  0.1034  0.4896  1.1168
  191MOL    H9530875   4.714   6.707   4.708 -0.2327 -2.5517  1.1458
  191MOL    H9630876   4.909   6.521   4.714 -0.2073 -1.4692 -1.4977
  191MOL    H9730877   4.978   6.629   4.589  0.1601 -0.4866 -2.6700
  191MOL    C9830878   4.862   6.421   4.433 -0.1963 -0.0695  0.6051
  191MOL    C9930879   4.757   6.317   4.390 -0.3801  0.1958  0.0952
  191MOL   C10030880   4.794   6.243   4.262 -0.0248  0.4192  0.1542
  191MOL   O10130881   4.907   6.265   4.214  0.2202 -0.1217  0.0178
  191MOL   H10230882   4.934   6.378   4.503 -1.3022 -1.5275  0.8701
  191MOL   H10330883   4.925   6.464   4.355 -1.9425  1.1964 -0.1324
  191MOL   H10430884   4.662   6.365   4.365 -1.6139 -1.1652  1.9272
  191MOL   H10530885   4.731   6.249   4.471  2.1593  3.1685  3.6048
  191MOL   C10630886   4.699   6.142   4.198 -0.1885 -0.6416 -0.4106
  191MOL   C10730887   4.751   6.108   4.058  0.5589  0.0341 -0.2208
  191MOL   C10830888   4.635   6.094   3.957  0.3356  0.4165  0.0599
  191MOL   O10930889   4.521   6.085   4.002  0.2540 -0.2010  0.1704
  191MOL   H11030890   4.606   6.199   4.196  0.8969  1.1796  0.6201
  191MOL   H11130891   4.685   6.054   4.261 -0.2543 -0.2795  0.0874
  191MOL   H11230892   4.818   6.022   4.054 -0.0674 -0.3637 -3.4157
  191MOL   H11330893   4.808   6.196   4.028 -0.2653  0.5068 -0.4149
  191MOL   C11430894   4.664   6.110   3.808  0.1338  0.9145 -0.7827
  191MOL   C11530895   4.538   6.113   3.716 -0.0997 -0.9984 -0.3212
  191MOL   C11630896   4.572   6.149   3.575 -0.2882 -0.9809  0.0756
  191MOL   O11730897   4.685   6.178   3.537  0.4723 -0.0031 -0.1742
  191MOL   H11830898   4.727   6.030   3.771 -2.6234 -0.9360 -1.6298
  191MOL   H11930899   4.705   6.210   3.799  0.1069  0.9437 -0.5843
  191MOL   H12030900   4.474   6.190   3.760  2.0261  0.7213 -0.1865
  191MOL   H12130901   4.474   6.026   3.731  2.1019 -2.3987  1.2390
  191MOL   C12230902   4.455   6.133   3.479  0.9426 -0.2385  0.4889
  191MOL   C12330903   4.448   6.246   3.375 -0.3828  0.1102 -0.0437
  191MOL   C12430904   4.381   6.371   3.426 -0.6888 -0.3346 -0.1753
  191MOL   O12530905   4.363   6.392   3.546 -0.1658 -0.3323 -0.9417
  191MOL   H12630906   4.358   6.138   3.528  1.1729 -0.2961  0.9533
  191MOL   H12730907   4.467   6.033   3.438  0.0709 -0.1401 -0.0163
  191MOL   H12830908   4.397   6.206   3.288  1.3922  1.4669 -1.7562
  191MOL   H12930909   4.544   6.276   3.332 -0.1528  1.7311  1.5313
  191MOL   C13030910   4.342   6.479   3.330 -0.0614  0.4134 -0.0037
  191MOL   C13130911   4.289   6.606   3.386  0.1161 -0.5838 -0.7157
  191MOL   C13230912   4.374   6.726   3.345 -0.4013  0.0854  0.3253
  191MOL   O13330913   4.499   6.724   3.336  0.6026  0.1592 -0.4509
  191MOL   H13430914   4.272   6.432   3.262 -1.0395 -0.7990  1.8013
  191MOL   H13530915   4.433   6.497   3.271  0.4012  1.7221  1.0816
  191MOL   H13630916   4.289   6.607   3.495  0.6198  1.1013 -0.7230
  191MOL   H13730917   4.188   6.616   3.346 -0.6986  0.1642  1.4579
  191MOL   C13830918   4.292   6.846   3.319 -0.5050  0.5258 -0.3083
  191MOL   C13930919   4.346   6.937   3.208 -0.4048  0.4370  0.1207
  191MOL   C14030920   4.363   7.079   3.243  1.0572 -0.1397  0.8301
  191MOL   O14130921   4.464   7.126   3.279 -0.0448  0.5763  0.5005
  191MOL   H14230922   4.287   6.887   3.420  0.1188  0.0604 -0.0811
  191MOL   H14330923   4.189   6.818   3.298  0.0492 -0.6507 -1.5406
  191MOL   H14430924   4.280   6.936   3.121  2.2471 -1.4134 -1.9390
  191MOL   H14530925   4.443   6.909   3.165 -0.6789 -1.4885  0.7154
  191MOL   C14630926   4.236   7.162   3.231 -0.6827  0.3871  0.4050
  191MOL   C14730927   4.235   7.268   3.334 -0.9855  0.2200 -0.5141
  191MOL   C14830928   4.132   7.380   3.305 -0.3666 -1.0528  0.3437
  191MOL   O14930929   4.032   7.354   3.233 -0.4149  0.2669  0.5176
  191MOL   H15030930   4.155   7.091   3.243 -0.1881  0.0262  1.7318
  191MOL   H15130931   4.221   7.211   3.135 -0.5302  0.1443  0.2581
  191MOL   H15230932   4.333   7.312   3.351 -0.2973 -1.2906 -0.5318
  191MOL   H15330933   4.218   7.223   3.432 -1.0562  0.8301 -0.2448
  191MOL   C15430934   4.157   7.508   3.362  0.2518  0.7366  0.7171
  191MOL   C15530935   4.041   7.609   3.376 -0.9717 -0.2816  1.1901
  191MOL   C15630936   3.944   7.589   3.490  0.1816 -0.2974 -0.0721
  191MOL   O15730937   3.978   7.539   3.599 -0.6514  0.1488  0.0804
  191MOL   H15830938   4.227   7.558   3.296  2.9016 -2.3565  1.1187
  191MOL   H15930939   4.198   7.494   3.462  0.2968  2.7160  1.0079
  191MOL   H16030940   3.977   7.612   3.288 -1.3946 -0.6321  1.4816
  191MOL   H16130941   4.072   7.714   3.380  1.1020 -0.7856 -0.6171
  191MOL   H16230942   3.841   7.621   3.475  0.8098  1.3867 -0.8437
  192MOL     C130943   1.436   3.858   6.745  0.2902  0.2372  0.3400
  192MOL     C230944   1.371   3.862   6.883  0.1933  0.6218  0.5436
  192MOL     C330945   1.378   3.996   6.959  0.3689 -0.5446  0.2080
  192MOL     O430946   1.419   4.097   6.901  0.2448 -0.5052 -0.1071
  192MOL     H530947   1.543   3.878   6.751 -0.2254  2.6528  2.2070
  192MOL     H630948   1.404   3.759   6.713 -0.3711  0.8075 -0.7824
  192MOL     H730949   1.408   3.783   6.947 -0.3018 -0.6114 -0.6764
  192MOL     H830950   1.264   3.846   6.867  0.6028 -0.3222 -1.3363
  192MOL     H930951   1.383   3.930   6.683  0.5788  1.2058  1.1916
  192MOL    C1030952   1.327   3.998   7.099 -0.4839 -0.0019 -0.3147
  192MOL    C1130953   1.372   4.129   7.166  0.1276 -0.9402  0.7295
  192MOL    C1230954   1.338   4.152   7.312  0.7358  0.3138 -0.3004
  192MOL    O1330955   1.316   4.055   7.390 -0.0960  0.2304  0.8326
  192MOL    H1430956   1.356   3.910   7.156  0.6593 -0.0490 -0.9643
  192MOL    H1530957   1.218   3.999   7.087 -0.8398 -0.8828  2.5487
  192MOL    H1630958   1.337   4.214   7.108  0.9811 -0.6000  0.7044
  192MOL    H1730959   1.481   4.135   7.166  0.1945 -1.8158 -1.1894
  192MOL    C1830960   1.336   4.290   7.370 -0.2559 -0.6539  0.1062
  192MOL    C1930961   1.383   4.302   7.519  0.3823 -0.2709 -0.4819
  192MOL    C2030962   1.277   4.345   7.612 -0.0862 -0.2695  0.0945
  192MOL    O2130963   1.175   4.400   7.569 -0.0939 -0.1740  0.8109
  192MOL    H2230964   1.230   4.311   7.351 -0.8155 -2.5242  0.9947
  192MOL    H2330965   1.393   4.365   7.316 -1.7778 -1.2908 -2.4898
  192MOL    H2430966   1.471   4.366   7.520  0.0522  0.1886  1.6451
  192MOL    H2530967   1.411   4.201   7.549 -0.2820  0.2722  2.0524
  192MOL    C2630968   1.291   4.318   7.765 -0.1336 -0.6091  0.1318
  192MOL    C2730969   1.290   4.450   7.831 -0.3898 -0.0434  0.1964
  192MOL    C2830970   1.279   4.436   0.129 -0.2046 -0.2287  0.3068
  192MOL    O2930971   1.169   4.442   0.182  0.7112  0.7521  0.1497
  192MOL    H3030972   1.393   4.284   7.775  0.2311  0.8529  1.4954
  192MOL    H3130973   1.211   4.259   7.810 -0.4184  0.8979  1.6578
  192MOL    H3230974   1.199   4.498   7.795  0.0746  0.2494 -0.5832
  192MOL    H3330975   1.370   4.523   7.815 -0.5866  1.0882  3.9002
  192MOL    C3430976   1.400   4.385   0.205 -0.0698 -0.2292 -1.0745
  192MOL    C3530977   1.516   4.484   0.213 -0.2595  0.5065  0.4250
  192MOL    C3630978   1.511   4.581   0.335 -0.0343  0.8950  0.1054
  192MOL    O3730979   1.477   4.531   0.446  0.0083  0.5393 -0.5362
  192MOL    H3830980   1.433   4.287   0.171 -1.7621 -1.5943  1.0253
  192MOL    H3930981   1.359   4.358   0.303  0.6543  0.9644 -0.4346
  192MOL    H4030982   1.503   4.542   0.122 -2.5301  0.3807  0.6327
  192MOL    H4130983   1.610   4.430   0.213  1.2281  2.9413 -1.9637
  192MOL    C4230984   1.544   4.725   0.312  0.5448 -0.0003  0.7815
  192MOL    C4330985   1.558   4.799   0.445 -0.3955  0.2416  0.0883
  192MOL    C4430986   1.695   4.846   0.485  0.0406  0.1680 -0.1808
  192MOL    O4530987   1.773   4.888   0.401 -0.3084 -0.0055 -0.2456
  192MOL    H4630988   1.464   4.762   0.248  1.0097  0.4703  0.4785
  192MOL    H4730989   1.638   4.725   0.258  0.0168 -0.4006 -0.1446
  192MOL    H4830990   1.509   4.759   0.533  2.9111  0.6457  2.2153
  192MOL    H4930991   1.507   4.892   0.419 -1.1599 -0.0639  0.4902
  192MOL    C5030992   1.736   4.833   0.627  0.8764  0.2142 -0.1773
  192MOL    C5130993   1.876   4.778   0.634  0.2789  0.5971 -0.2851
  192MOL    C5230994   1.993   4.873   0.640 -0.0004  1.0409  0.5863
  192MOL    O5330995   1.981   4.994   0.660 -0.0269 -0.3835  0.0306
  192MOL    H5430996   1.657   4.775   0.674  0.9133  0.2268 -0.0996
  192MOL    H5530997   1.728   4.926   0.684 -2.0343 -1.1521  1.7911
  192MOL    H5630998   1.901   4.699   0.562 -1.4359 -1.0810  0.9207
  192MOL    H5730999   1.873   4.713   0.721 -1.3958  0.4149 -0.4644
  192MOL    C5831000   2.128   4.807   0.628  0.0283 -0.2707  0.2877
  192MOL    C5931001   2.183   4.790   0.770 -0.1309 -0.7247 -1.0766
  192MOL    C6031002   2.243   4.657   0.797  0.1745 -0.1598  0.0113
  192MOL    O6131003   2.225   4.555   0.725  0.3499 -0.2733  0.0864
  192MOL    H6231004   2.196   4.865   0.567  0.7660 -1.2045  0.2011
  192MOL    H6331005   2.119   4.711   0.577  0.0600 -1.0884  1.7791
  192MOL    H6431006   2.111   4.797   0.852 -0.0051 -0.3703 -0.9964
  192MOL    H6531007   2.262   4.861   0.794 -0.6304 -0.2864 -0.7432
  192MOL    C6631008   2.309   4.646   0.937  0.2924  0.4789 -0.0834
  192MOL    C6731009   2.428   4.547   0.937 -0.3773 -0.0760 -0.0745
  192MOL    C6831010   2.556   4.623   0.979 -0.0444  0.0078  0.3461
  192MOL    O6931011   2.548   4.695   1.077 -0.0834 -0.5273  0.9170
  192MOL    H7031012   2.226   4.623   1.003 -1.6432 -1.0760 -2.9493
  192MOL    H7131013   2.346   4.746   0.960 -0.4623 -0.0881  3.8343
  192MOL    H7231014   2.440   4.503   0.838  2.7886  0.3492  0.0561
  192MOL    H7331015   2.416   4.463   1.005  1.0208  0.5932  1.0201
  192MOL    C7431016   2.677   4.624   0.896  0.4864  0.3980  0.0446
  192MOL    C7531017   2.687   4.754   0.817  0.2793 -0.4247  0.5243
  192MOL    C7631018   2.604   4.759   0.692  0.0756 -0.0862  0.7033
  192MOL    O7731019   2.536   4.864   0.673  0.1081  0.6529  0.0676
  192MOL    H7831020   2.666   4.537   0.832 -0.1796  0.3081  0.2813
  192MOL    H7931021   2.771   4.610   0.950 -0.1132  0.5155  1.1291
  192MOL    H8031022   2.790   4.754   0.783  0.6957 -0.1490  1.7609
  192MOL    H8131023   2.674   4.838   0.885  1.1167 -1.0261  1.4418
  192MOL    C8231024   2.605   4.638   0.595  1.3866 -0.1867  0.2514
  192MOL    C8331025   2.525   4.669   0.465 -0.0050  0.1417 -0.8134
  192MOL    C8431026   2.498   4.545   0.384 -0.8243  0.2328  0.6423
  192MOL    O8531027   2.555   4.437   0.395 -0.2579 -0.3406 -0.3034
  192MOL    H8631028   2.571   4.544   0.638  0.0965  0.3782  0.5120
  192MOL    H8731029   2.708   4.617   0.568  1.8179  1.4167  0.6213
  192MOL    H8831030   2.581   4.736   0.401 -0.7818  2.4824  0.8927
  192MOL    H8931031   2.427   4.717   0.475  0.2381  0.2004  1.5692
  192MOL    C9031032   2.396   4.564   0.265  0.0500  0.1684 -0.1617
  192MOL    C9131033   2.289   4.458   0.252  0.9222  0.2071 -0.0319
  192MOL    C9231034   2.143   4.514   0.268  0.7553  0.1799  0.1603
  192MOL    O9331035   2.079   4.486   0.368  0.2044 -0.2995  0.5485
  192MOL    H9431036   2.446   4.576   0.168  0.1038  0.5284 -0.0879
  192MOL    H9531037   2.366   4.668   0.269  0.1854  0.1394  1.7251
  192MOL    H9631038   2.310   4.390   0.334 -0.1358 -0.3335 -0.1944
  192MOL    H9731039   2.301   4.417   0.152 -0.7185  0.2023 -0.2438
  192MOL    C9831040   2.097   4.620   0.170 -0.3913  0.2648  0.5703
  192MOL    C9931041   2.108   4.753   0.239  0.1794 -0.7151 -0.5604
  192MOL   C10031042   2.094   4.879   0.159  0.4192 -0.5345 -0.2222
  192MOL   O10131043   2.106   4.877   0.037 -0.8206  0.5242  0.0204
  192MOL   H10231044   1.993   4.602   0.143 -1.1832  2.4713  2.0062
  192MOL   H10331045   2.160   4.605   0.083 -1.1005 -0.1755  0.1276
  192MOL   H10431046   2.208   4.764   0.282 -0.4033 -3.2597  1.6158
  192MOL   H10531047   2.041   4.755   0.326 -1.5060  0.0282 -1.8496
  192MOL   C10631048   2.037   5.015   0.219  0.5384 -0.5049 -0.2094
  192MOL   C10731049   2.101   5.151   0.165  0.4445 -0.1057 -0.7768
  192MOL   C10831050   2.048   5.172   0.019  0.1054 -0.2718 -0.4800
  192MOL   O10931051   1.933   5.151   7.842 -0.1451  0.0515  0.0854
  192MOL   H11031052   2.048   5.006   0.327 -1.1423  2.3765  0.2565
  192MOL   H11131053   1.930   5.006   0.206  0.2717 -0.0689  1.5793
  192MOL   H11231054   2.208   5.167   0.157  0.5062  2.2718  3.5527
  192MOL   H11331055   2.061   5.237   0.219  1.2336 -1.2059  1.6325
  192MOL   C11431056   2.155   5.204   7.770 -0.3524 -0.0823 -0.3869
  192MOL   C11531057   2.130   5.157   7.629  0.0571  0.3419 -0.5005
  192MOL   C11631058   2.243   5.070   7.570  0.4425 -0.3954 -0.7372
  192MOL   O11731059   2.354   5.070   7.621 -0.5762  0.0847 -0.1422
  192MOL   H11831060   2.250   5.156   7.795 -1.3040 -2.8771 -1.8928
  192MOL   H11931061   2.165   5.312   7.785 -2.5923 -0.2946  3.1194
  192MOL   H12031062   2.120   5.238   7.557  0.4868  1.2093  0.4041
  192MOL   H12131063   2.048   5.086   7.620  0.5356 -0.2950  0.1184
  192MOL   C12231064   2.210   4.994   7.442  0.5600  0.8457  0.0547
  192MOL   C12331065   2.319   5.012   7.329  0.2075 -0.5286  0.1771
  192MOL   C12431066   2.354   4.886   7.244 -0.1605 -1.5362 -0.8350
  192MOL   O12531067   2.340   4.776   7.294 -0.4121 -0.4147 -0.1610
  192MOL   H12631068   2.110   5.017   7.404  0.1559 -0.8280  0.0795
  192MOL   H12731069   2.197   4.890   7.473 -0.4045  0.9975  0.1841
  192MOL   H12831070   2.404   5.063   7.373  0.2671  0.3094 -0.8886
  192MOL   H12931071   2.271   5.081   7.261 -0.4227  0.0254  1.1699
  192MOL   C13031072   2.403   4.905   7.103 -0.2502 -0.1055  1.0308
  192MOL   C13131073   2.485   4.789   7.057 -0.4820 -0.3216 -0.6715
  192MOL   C13231074   2.548   4.800   6.920 -0.2371 -0.3521  0.0393
  192MOL   O13331075   2.541   4.901   6.855 -0.0169 -0.2214  0.6393
  192MOL   H13431076   2.446   5.005   7.099  0.6536 -0.5433 -0.7958
  192MOL   H13531077   2.314   4.909   7.040 -0.8456 -2.7292  1.6176
  192MOL   H13631078   2.426   4.698   7.053  0.2991 -0.7779 -2.0136
  192MOL   H13731079   2.561   4.772   7.133  0.4031  1.5778 -1.0913
  192MOL   C13831080   2.641   4.687   6.876  1.0658 -0.0897 -0.2391
  192MOL   C13931081   2.643   4.674   6.723 -0.4001 -0.2067 -0.7870
  192MOL   C14031082   2.673   4.526   6.676  0.1289 -1.0414 -0.2791
  192MOL   O14131083   2.690   4.438   6.755  0.1501 -0.4156  0.1876
  192MOL   H14231084   2.627   4.591   6.925  1.3378 -0.3434 -0.6524
  192MOL   H14331085   2.745   4.708   6.901  0.9351 -1.9858  2.0499
  192MOL   H14431086   2.720   4.742   6.687  0.6441 -1.1745 -0.4280
  192MOL   H14531087   2.541   4.693   6.689 -0.8272 -1.7521 -0.4039
  192MOL   C14631088   2.690   4.514   6.521  0.0179  0.4584  0.1995
  192MOL   C14731089   2.554   4.511   6.447 -0.1000  0.3251  0.1997
  192MOL   C14831090   2.565   4.529   6.294  0.0094  0.9150 -0.4711
  192MOL   O14931091   2.676   4.562   6.243  0.1627  0.0458 -0.4743
  192MOL   H15031092   2.754   4.428   6.505  0.0493  0.5159  0.0143
  192MOL   H15131093   2.748   4.602   6.492  1.3538 -0.4565  0.0751
  192MOL   H15231094   2.489   4.587   6.490  0.0427  0.4713  0.1579
  192MOL   H15331095   2.513   4.412   6.466  1.1388 -0.4764 -1.2358
  192MOL   C15431096   2.433   4.556   6.222 -0.3676  0.3155 -0.3579
  192MOL   C15531097   2.451   4.568   6.067 -0.0884  0.3079 -0.4899
  192MOL   C15631098   2.328   4.519   5.992 -0.8791  0.3505  0.1408
  192MOL   O15731099   2.218   4.566   6.012  0.2255  0.2478  0.6802
  192MOL   H15831100   2.400   4.647   6.270 -1.1185 -0.6930  1.0789
  192MOL   H15931101   2.365   4.475   6.247  0.5371 -0.1060  0.7805
  192MOL   H16031102   2.537   4.513   6.029 -0.2846 -1.2380  1.2533
  192MOL   H16131103   2.471   4.672   6.040  0.6537  0.3069  0.0574
  192MOL   H16231104   2.351   4.451   5.909 -2.7054 -0.4680  0.2692
  193MOL     C131105   2.482   1.326   7.288 -0.1590  0.4635 -0.6459
  193MOL     C231106   2.451   1.369   7.434  0.4909 -0.7208 -0.4478
  193MOL     C331107   2.305   1.345   7.486 -0.3634 -0.1772  0.0239
  193MOL     O431108   2.207   1.340   7.408 -0.0955 -0.3549 -0.0115
  193MOL     H531109   2.463   1.405   7.215  1.6538  1.2729 -0.2588
  193MOL     H631110   2.588   1.301   7.283 -0.1371  0.7347 -1.6317
  193MOL     H731111   2.498   1.467   7.440  1.6488 -1.1220 -2.6342
  193MOL     H831112   2.514   1.318   7.507  1.5834  0.0388 -0.8509
  193MOL     H931113   2.437   1.232   7.256  0.4160 -0.1047  0.2014
  193MOL    C1031114   2.299   1.321   7.635  0.2175 -0.3430  0.3061
  193MOL    C1131115   2.229   1.191   7.672 -0.4379 -0.5040  0.2404
  193MOL    C1231116   2.311   1.069   7.643 -0.6974 -0.1369 -0.3514
  193MOL    O1331117   2.433   1.076   7.624 -0.5586 -0.8767  0.2101
  193MOL    H1431118   2.247   1.404   7.683 -1.3905 -1.2549  0.1911
  193MOL    H1531119   2.406   1.320   7.657  0.3645 -0.9654 -0.4042
  193MOL    H1631120   2.134   1.176   7.621  0.6804 -1.4477 -1.6105
  193MOL    H1731121   2.204   1.189   7.778 -1.1107  0.5825  0.1118
  193MOL    C1831122   2.236   0.938   7.622 -0.2085 -0.0297  0.0797
  193MOL    C1931123   2.318   0.823   7.552 -1.0204 -0.1991  0.0163
  193MOL    C2031124   2.327   0.700   7.646 -0.7504 -1.3233 -0.0447
  193MOL    O2131125   2.230   0.633   7.685 -0.0384  0.9068 -0.4666
  193MOL    H2231126   2.156   0.975   7.558  0.7406  0.8433 -0.6280
  193MOL    H2331127   2.193   0.903   7.716 -0.1895 -2.1244 -0.6715
  193MOL    H2431128   2.413   0.863   7.517 -1.2089 -0.3131 -0.6233
  193MOL    H2531129   2.268   0.779   7.467  1.5267  0.2659 -1.7835
  193MOL    C2631130   2.469   0.665   7.684 -0.4064  0.0918  0.1997
  193MOL    C2731131   2.463   0.547   7.784 -0.3829  0.4200 -0.7683
  193MOL    C2831132   2.593   0.463   7.794  0.8837  0.3861 -0.0606
  193MOL    O2931133   2.700   0.518   7.764  0.6248  0.1266 -0.1724
  193MOL    H3031134   2.530   0.747   7.722 -0.5070  1.0165 -1.5448
  193MOL    H3131135   2.525   0.638   7.594 -0.2368 -2.3805  1.0350
  193MOL    H3231136   2.382   0.477   7.765  0.5142 -1.2012  1.0345
  193MOL    H3331137   2.441   0.573   0.029 -0.1754  1.2080 -0.9203
  193MOL    C3431138   2.574   0.324   7.839 -0.5791  0.2867 -0.2563
  193MOL    C3531139   2.589   0.221   7.724 -0.0701 -0.0939  0.0811
  193MOL    C3631140   2.460   0.161   7.663 -0.2311 -0.4125 -0.3923
  193MOL    O3731141   2.356   0.198   7.713  0.3022 -0.6896  0.1404
  193MOL    H3831142   2.475   0.306   0.023 -1.2920 -3.3958 -3.2293
  193MOL    H3931143   2.653   0.304   0.052  0.0658  0.3995 -0.9307
  193MOL    H4031144   2.642   0.133   7.762  0.8102  1.0551  1.5639
  193MOL    H4131145   2.644   0.258   7.637  2.9234 -1.7315  1.2157
  193MOL    C4231146   2.477   0.051   7.564  0.6649 -0.4180  0.1290
  193MOL    C4331147   2.366   0.070   7.459 -0.1779 -0.1628  0.5984
  193MOL    C4431148   2.321   7.796   7.397 -0.5687  0.5260  0.1242
  193MOL    O4531149   2.402   7.726   7.332  0.2251 -0.1566 -0.0397
  193MOL    H4631150   2.467   7.809   7.604 -2.9573 -0.0735  0.2310
  193MOL    H4731151   2.577   0.063   7.522  0.7901  1.7343  0.9673
  193MOL    H4831152   2.404   0.126   7.375  1.4291 -1.4675  0.4353
  193MOL    H4931153   2.278   0.119   7.502  1.8222  0.5777  4.1200
  193MOL    C5031154   2.182   7.738   7.434  0.3871  0.0913 -0.8490
  193MOL    C5131155   2.185   7.590   7.474  0.5621  0.1635  0.3833
  193MOL    C5231156   2.170   7.571   7.630 -0.3045 -0.1714 -0.0519
  193MOL    O5331157   2.167   7.654   7.718 -0.9502 -0.6280 -0.0803
  193MOL    H5431158   2.119   7.749   7.345  0.7605  0.6661 -1.0486
  193MOL    H5531159   2.132   7.809   7.500 -0.3415 -0.9861 -0.2202
  193MOL    H5631160   2.279   7.545   7.442  0.7101  0.7327  0.0350
  193MOL    H5731161   2.110   7.531   7.422  0.5188  1.6473 -1.2769
  193MOL    C5831162   2.152   7.429   7.665  0.1710  0.6995 -1.0669
  193MOL    C5931163   2.231   7.394   7.796  0.4514  0.4112  0.1239
  193MOL    C6031164   2.277   7.248   7.812 -0.3701 -0.1955  0.0114
  193MOL    O6131165   2.233   7.170   7.731  0.0319  1.1070  0.4607
  193MOL    H6231166   2.181   7.365   7.583 -0.5807  1.0238 -1.5907
  193MOL    H6331167   2.045   7.411   7.676  0.5008 -0.2290  0.8079
  193MOL    H6431168   2.161   7.421   0.017 -0.9132 -0.0352 -0.9028
  193MOL    H6531169   2.312   7.465   7.811 -0.0821  0.8734  0.8943
  193MOL    C6631170   2.376   7.216   0.064 -0.3354  0.7652  0.6011
  193MOL    C6731171   2.513   7.243   0.020  0.1520  0.0801  0.3474
  193MOL    C6831172   2.593   7.308   0.132 -0.2773 -0.0877 -0.3762
  193MOL    O6931173   2.560   7.416   0.179 -0.4535 -0.5993 -0.4610
  193MOL    H7031174   2.367   7.110   0.085  3.2809  0.1150 -0.7776
  193MOL    H7131175   2.351   7.273   0.154  1.5767  0.2954  1.4459
  193MOL    H7231176   2.502   7.313   7.796  0.7041  1.5475  1.4808
  193MOL    H7331177   2.561   7.157   7.833 -1.9785 -0.3557 -1.1344
  193MOL    C7431178   2.718   7.240   0.189  0.2616  0.1854  0.0997
  193MOL    C7531179   2.802   7.316   0.280 -0.0496 -0.2050 -0.3674
  193MOL    C7631180   2.903   7.233   0.360  0.6294  0.2598  0.7008
  193MOL    O7731181   2.880   7.121   0.403  0.2876  0.4752 -0.4155
  193MOL    H7831182   2.777   7.191   0.111  1.4868  0.7587  0.6418
  193MOL    H7931183   2.669   7.161   0.246 -2.3783  0.7613 -1.3296
  193MOL    H8031184   2.738   7.365   0.353  1.1834  0.8059  0.0514
  193MOL    H8131185   2.857   7.394   0.228 -0.5377  0.8620  0.6945
  193MOL    C8231186   3.027   7.293   0.415 -0.6664 -0.6294 -0.2399
  193MOL    C8331187   3.151   7.206   0.410 -0.7655  0.3237 -0.3874
  193MOL    C8431188   3.183   7.144   0.549  0.1780 -0.5032 -0.3035
  193MOL    O8531189   3.252   7.215   0.622 -0.0460  0.1201 -0.4074
  193MOL    H8631190   3.009   7.348   0.507 -1.2533 -1.1761 -0.0195
  193MOL    H8731191   3.061   7.374   0.351  0.8477 -0.6651  0.5134
  193MOL    H8831192   3.244   7.251   0.374 -1.0944  2.7994  1.6459
  193MOL    H8931193   3.131   7.119   0.348 -1.1607 -1.6718  2.4319
  193MOL    C9031194   3.117   7.011   0.594  0.0038  0.4014 -0.5532
  193MOL    C9131195   3.191   6.950   0.716 -0.2360 -0.4425 -0.3255
  193MOL    C9231196   3.121   6.994   0.848 -0.2891  0.0226  0.6819
  193MOL    O9331197   3.048   7.095   0.855 -0.2346  0.3170  0.4826
  193MOL    H9431198   3.115   6.930   0.521 -0.7379  0.9365 -1.1419
  193MOL    H9531199   3.010   7.024   0.610  0.4150  1.7320  1.3845
  193MOL    H9631200   3.296   6.976   0.727 -0.4581  0.0585  0.7277
  193MOL    H9731201   3.181   6.842   0.720 -5.0885 -0.0903  0.4673
  193MOL    C9831202   3.127   6.900   0.962 -0.0329  0.1772  0.3621
  193MOL    C9931203   3.046   6.942   1.085 -0.6028 -0.0539  0.8128
  193MOL   C10031204   3.026   6.830   1.192 -0.3121  0.1822  0.3135
  193MOL   O10131205   3.063   6.712   1.179  0.2282 -0.0787 -0.2649
  193MOL   H10231206   3.233   6.889   0.986  1.0381  1.1081 -3.4604
  193MOL   H10331207   3.081   6.809   0.923 -1.1317  1.5839 -1.7546
  193MOL   H10431208   2.949   6.986   1.061  0.0231  0.3504 -1.0652
  193MOL   H10531209   3.097   7.024   1.135  2.8502 -2.0570  0.6906
  193MOL   C10631210   2.947   6.865   1.316  0.1296 -0.4227  0.2940
  193MOL   C10731211   3.038   6.880   1.436  0.3392 -0.1415 -0.7666
  193MOL   C10831212   2.961   6.904   1.566 -0.6661 -0.1280 -0.2367
  193MOL   O10931213   2.850   6.948   1.566  0.3733 -0.7991  0.2606
  193MOL   H11031214   2.887   6.779   1.344  1.6598 -1.2724  1.0228
  193MOL   H11131215   2.880   6.946   1.286 -0.5205 -1.4107 -0.9748
  193MOL   H11231216   3.097   6.971   1.425  0.0446  0.0663 -0.6187
  193MOL   H11331217   3.113   6.801   1.437  0.3345 -0.1528 -1.1157
  193MOL   C11431218   3.045   6.870   1.694 -0.6018  0.2542 -0.3201
  193MOL   C11531219   3.004   6.744   1.762 -0.0111  0.5487  0.2055
  193MOL   C11631220   3.039   6.749   1.911  0.9529  0.5186  0.4709
  193MOL   O11731221   3.128   6.680   1.956  0.2418 -0.2773 -0.2285
  193MOL   H11831222   3.050   6.958   1.759 -0.1751 -0.4146  0.5714
  193MOL   H11931223   3.151   6.873   1.673 -0.3088  1.9799  1.2242
  193MOL   H12031224   3.059   6.656   1.729  1.1560  1.2291  0.2854
  193MOL   H12131225   2.902   6.711   1.747  0.1043  0.1164  0.3767
  193MOL   C12231226   2.932   6.811   2.003  0.0526 -0.6747  0.2942
  193MOL   C12331227   2.933   6.757   2.149  0.1539 -0.1579 -0.5662
  193MOL   C12431228   2.855   6.624   2.165 -0.1224 -0.3865 -0.5207
  193MOL   O12531229   2.809   6.561   2.066  0.1235  0.1745 -0.1864
  193MOL   H12631230   2.828   6.797   1.973 -0.6528  0.0898  2.3229
  193MOL   H12731231   2.945   6.919   2.009 -0.4542 -0.3154 -3.8588
  193MOL   H12831232   2.881   6.835   2.205  0.7640 -0.7321  0.8353
  193MOL   H12931233   3.028   6.733   2.198  0.2177 -1.3106 -1.2278
  193MOL   C13031234   2.818   6.560   2.302 -0.3881 -0.0610 -0.7255
  193MOL   C13131235   2.820   6.410   2.287 -0.6062 -0.3537 -0.4133
  193MOL   C13231236   2.894   6.347   2.409  0.1165  0.5966  0.8904
  193MOL   O13331237   2.869   6.386   2.526 -0.1573  0.1777  0.1763
  193MOL   H13431238   2.730   6.599   2.353  1.0032  2.2385 -0.0206
  193MOL   H13531239   2.898   6.591   2.369  0.8403 -0.9134 -1.7803
  193MOL   H13631240   2.854   6.367   2.193 -1.4002 -0.7536 -0.5179
  193MOL   H13731241   2.716   6.378   2.286 -0.9623  0.7105  0.9147
  193MOL   C13831242   2.980   6.229   2.384 -0.7524 -0.3632 -0.5099
  193MOL   C13931243   3.129   6.259   2.412 -0.2125  0.4654  0.5757
  193MOL   C14031244   3.212   6.261   2.284 -0.3414 -0.0979  0.8544
  193MOL   O14131245   3.184   6.198   2.180  0.0047  0.4502 -0.0657
  193MOL   H14231246   2.973   6.198   2.280  1.5968 -1.8642 -0.2505
  193MOL   H14331247   2.945   6.140   2.436  0.2148 -2.1953 -2.9088
  193MOL   H14431248   3.169   6.184   2.480 -1.3549 -1.3511 -0.7290
  193MOL   H14531249   3.150   6.353   2.463  1.6294 -0.2725  1.2268
  193MOL   C14631250   3.353   6.319   2.306 -0.2980 -0.1584 -0.4551
  193MOL   C14731251   3.454   6.325   2.183 -0.0406  1.0637 -0.0124
  193MOL   C14831252   3.599   6.271   2.209 -0.3895  0.2519  0.4047
  193MOL   O14931253   3.631   6.213   2.315 -0.4532  0.3484  0.0894
  193MOL   H15031254   3.394   6.271   2.395 -3.7418 -0.8787  0.8076
  193MOL   H15131255   3.343   6.424   2.330 -2.7061  0.1115 -2.4018
  193MOL   H15231256   3.456   6.429   2.149  1.4432  1.1642  0.3339
  193MOL   H15331257   3.407   6.280   2.096  1.9316  0.4626 -0.7972
  193MOL   C15431258   3.700   6.286   2.099 -0.3376  0.5674  0.5174
  193MOL   C15531259   3.849   6.249   2.140 -0.5453  0.0991  0.2646
  193MOL   C15631260   3.922   6.157   2.041 -0.2369 -0.2154  0.5833
  193MOL   O15731261   3.854   6.096   1.959  0.0122 -1.1055 -0.6594
  193MOL   H15831262   3.701   6.393   2.079  2.5478  0.4719 -0.1102
  193MOL   H15931263   3.652   6.229   2.019  1.1342  0.8611 -0.5903
  193MOL   H16031264   3.851   6.195   2.234  0.8275  1.9435  1.3523
  193MOL   H16131265   3.914   6.337   2.150 -2.2836  1.3412  0.8468
  193MOL   H16231266   4.029   6.143   2.054  0.3304  2.1209 -1.2454
  194MOL     C131267   5.469   1.349   5.549  0.0730 -0.7400 -0.1250
  194MOL     C231268   5.541   1.222   5.519 -0.2337  0.2880 -0.2655
  194MOL     C331269   5.588   1.208   5.378 -0.2031 -0.0971  0.9563
  194MOL     O431270   5.571   1.293   5.289  0.0962  0.5986 -0.3991
  194MOL     H531271   5.390   1.365   5.476  2.0909 -0.6553 -2.3359
  194MOL     H631272   5.430   1.351   5.651  2.2394 -0.9716  0.7315
  194MOL     H731273   5.469   1.145   5.544 -0.4366  1.0872  1.6995
  194MOL     H831274   5.625   1.202   5.586  0.6641  0.9229 -1.1758
  194MOL     H931275   5.539   1.432   5.539 -0.3907 -0.4064 -0.6436
  194MOL    C1031276   5.667   1.080   5.335  0.1069 -0.0500 -0.1078
  194MOL    C1131277   5.708   1.067   5.184 -0.6528  0.3887  0.3377
  194MOL    C1231278   5.811   0.961   5.162 -0.0753  0.1361 -0.0099
  194MOL    O1331279   5.766   0.858   5.115  0.0316  0.7229  0.3491
  194MOL    H1431280   5.608   0.993   5.362 -0.9281  0.4377 -0.7764
  194MOL    H1531281   5.749   1.073   5.407  0.2466 -1.2976 -0.3875
  194MOL    H1631282   5.755   1.158   5.150 -1.4625 -0.2741 -2.6697
  194MOL    H1731283   5.617   1.047   5.127 -0.9032  1.4213  0.3597
  194MOL    C1831284   5.953   0.983   5.212  0.0624  0.0930  0.0078
  194MOL    C1931285   6.002   0.854   5.265  0.3596 -0.3507  0.4625
  194MOL    C2031286   5.957   0.829   5.410  0.4147  0.5222 -0.2843
  194MOL    O2131287   5.956   0.915   5.502 -0.7031  0.0748 -0.0412
  194MOL    H2231288   5.946   1.056   5.293  0.7210 -0.3683  0.4894
  194MOL    H2331289   6.017   1.019   5.131  0.6785  2.9039  1.6939
  194MOL    H2431290   6.110   0.858   5.266  0.3132  1.5556  0.0473
  194MOL    H2531291   5.985   0.766   5.204 -2.0192 -0.8850  1.7986
  194MOL    C2631292   5.917   0.679   5.437 -0.0467 -0.6692 -0.1370
  194MOL    C2731293   5.932   0.643   5.587 -0.6559  0.0191  0.7794
  194MOL    C2831294   5.912   0.496   5.613 -0.5154  0.5195 -0.3838
  194MOL    O2931295   5.947   0.401   5.538  0.2835  0.0191 -0.1399
  194MOL    H3031296   5.978   0.621   5.367 -0.3281 -1.0773 -0.0411
  194MOL    H3131297   5.810   0.670   5.419 -0.0534  2.1570 -1.8703
  194MOL    H3231298   5.859   0.685   5.656 -1.5890  1.0593 -0.8151
  194MOL    H3331299   6.028   0.672   5.629 -0.1345 -1.7877  0.8690
  194MOL    C3431300   5.846   0.468   5.747  0.1889  0.0327 -0.0366
  194MOL    C3531301   5.765   0.333   5.743 -1.0536 -0.1809 -0.3292
  194MOL    C3631302   5.612   0.356   5.715 -0.4409  0.1163 -0.7985
  194MOL    O3731303   5.555   0.466   5.729  0.6180  0.0129 -0.2895
  194MOL    H3831304   5.778   0.545   5.783 -2.5492 -1.9879 -0.6455
  194MOL    H3931305   5.918   0.468   5.829  0.8891 -1.1423 -0.6345
  194MOL    H4031306   5.779   0.277   5.835  0.6295  1.6293  0.5708
  194MOL    H4131307   5.797   0.274   5.657 -0.3805  1.7165 -1.4186
  194MOL    C4231308   5.522   0.233   5.677  0.1682  0.1233  0.3574
  194MOL    C4331309   5.531   0.208   5.529  0.0215 -0.1104 -0.0153
  194MOL    C4431310   5.409   0.255   5.454  0.6654 -0.2140  0.4344
  194MOL    O4531311   5.342   0.348   5.496  0.4414 -0.4255 -0.0471
  194MOL    H4631312   5.418   0.260   5.697 -0.0769  1.1609 -2.1304
  194MOL    H4731313   5.558   0.144   5.729 -0.0339  0.6294  1.3724
  194MOL    H4831314   5.550   0.105   5.499 -1.3705 -0.6663  0.9507
  194MOL    H4931315   5.618   0.254   5.482  0.3400 -1.2915 -0.5874
  194MOL    C5031316   5.365   0.172   5.326 -0.5314  0.9728  0.1954
  194MOL    C5131317   5.310   0.265   5.221  0.1453 -1.0654 -0.3214
  194MOL    C5231318   5.160   0.294   5.237  0.5055 -0.7027  0.4432
  194MOL    O5331319   5.088   0.192   5.238  0.2483 -0.5710 -0.1193
  194MOL    H5431320   5.278   0.112   5.351  0.3805 -0.0819  0.8975
  194MOL    H5531321   5.441   0.108   5.281 -0.0203  1.2395  0.6675
  194MOL    H5631322   5.320   0.215   5.124 -1.2693  0.9918 -1.5760
  194MOL    H5731323   5.377   0.351   5.216 -2.0567  0.6480 -1.0643
  194MOL    C5831324   5.101   0.437   5.249  0.5168  0.3620 -0.0766
  194MOL    C5931325   4.979   0.450   5.343  0.4012  0.9625 -0.3332
  194MOL    C6031326   4.960   0.595   5.401 -0.0237 -0.0035  0.3039
  194MOL    O6131327   5.055   0.680   5.389 -0.1997  0.0037 -0.5964
  194MOL    H6231328   5.088   0.484   5.151 -1.2441  3.3514  1.5218
  194MOL    H6331329   5.183   0.498   5.287  1.8519 -1.2033 -0.4221
  194MOL    H6431330   4.995   0.386   5.430 -4.1204 -0.0558 -0.1536
  194MOL    H6531331   4.884   0.431   5.293  1.2426  0.1583 -1.6479
  194MOL    C6631332   4.824   0.638   5.453 -0.4175  0.3855  0.6619
  194MOL    C6731333   4.805   0.790   5.466 -0.0540 -0.4034 -0.1364
  194MOL    C6831334   4.778   0.834   5.615  0.1288 -0.1432 -0.1613
  194MOL    O6931335   4.759   0.762   5.711 -0.6506  0.5478 -0.3677
  194MOL    H7031336   4.825   0.588   5.550 -2.5896 -2.4647 -0.7336
  194MOL    H7131337   4.755   0.587   5.387 -0.7534  1.1731  0.3976
  194MOL    H7231338   4.726   0.808   5.394 -0.2484  0.3334  0.2566
  194MOL    H7331339   4.901   0.836   5.446  0.3567 -1.5388 -0.8397
  194MOL    C7431340   4.784   0.990   5.636 -0.0645  0.1821 -0.2945
  194MOL    C7531341   4.644   1.056   5.627  0.3313  0.3873  0.1206
  194MOL    C7631342   4.513   0.974   5.665 -0.6614 -0.6520  1.0757
  194MOL    O7731343   4.423   0.955   5.583  0.1490 -0.0524 -0.2024
  194MOL    H7831344   4.851   1.040   5.566  0.4460  0.1663  0.1763
  194MOL    H7931345   4.837   0.997   5.732  1.8572 -1.5476 -1.1630
  194MOL    H8031346   4.632   1.106   5.531  0.7704 -0.8558 -0.5984
  194MOL    H8131347   4.653   1.135   5.702  1.3614 -0.7607  1.2278
  194MOL    C8231348   4.493   0.932   5.811 -0.5198  0.2392 -0.5441
  194MOL    C8331349   4.361   0.857   5.842  0.4334 -0.7615 -0.1246
  194MOL    C8431350   4.300   0.884   5.985  0.2819  0.1869 -0.7792
  194MOL    O8531351   4.361   0.955   6.070  0.2370 -0.5638 -0.3192
  194MOL    H8631352   4.490   1.031   5.857 -3.2879  1.0930 -2.4523
  194MOL    H8731353   4.569   0.864   5.850 -0.8747  0.5607  0.7383
  194MOL    H8831354   4.368   0.750   5.822  2.7781 -0.0427 -3.6126
  194MOL    H8931355   4.292   0.890   5.763 -0.2749 -1.2616  0.2777
  194MOL    C9031356   4.171   0.823   6.022  0.2727 -0.1749  0.2551
  194MOL    C9131357   4.147   0.823   6.171  0.1530  1.0424  0.2486
  194MOL    C9231358   4.055   0.935   6.224 -0.2639  0.2877  0.4223
  194MOL    O9331359   3.956   0.973   6.163  0.1531  0.6810 -0.1123
  194MOL    H9431360   4.171   0.722   5.981 -2.9554 -0.6200  1.1922
  194MOL    H9531361   4.096   0.877   5.964  3.0933  2.1629 -1.3427
  194MOL    H9631362   4.240   0.838   6.225  0.0104  0.8981  0.5354
  194MOL    H9731363   4.108   0.724   6.197  0.6068 -0.3869 -4.1470
  194MOL    C9831364   4.093   1.016   6.350 -0.6889 -0.8816 -0.3133
  194MOL    C9931365   3.983   1.007   6.458  0.4488  0.2337 -0.5871
  194MOL   C10031366   3.857   1.090   6.434 -0.1584 -0.2385 -0.4508
  194MOL   O10131367   3.871   1.197   6.365 -0.0038  0.2545  0.0184
  194MOL   H10231368   4.120   1.121   6.339 -0.2576 -0.9619 -0.0673
  194MOL   H10331369   4.183   0.974   6.396 -0.4459 -0.1929 -0.1469
  194MOL   H10431370   4.025   1.025   6.557 -1.4931 -1.4463  0.5714
  194MOL   H10531371   3.945   0.906   6.464  0.5284  0.2129 -0.4221
  194MOL   C10631372   3.728   1.068   6.515 -0.4579  0.2596 -0.5170
  194MOL   C10731373   3.599   1.146   6.458 -0.2867  0.2067  0.6444
  194MOL   C10831374   3.593   1.286   6.529  0.0346 -0.3625 -0.0120
  194MOL   O10931375   3.657   1.313   6.631  0.0928  0.0751  0.0918
  194MOL   H11031376   3.747   1.097   6.618 -0.6798 -0.3398 -0.3084
  194MOL   H11131377   3.717   0.960   6.528 -0.3530  0.1308 -1.4061
  194MOL   H11231378   3.503   1.104   6.487  0.3625 -0.6918  1.5866
  194MOL   H11331379   3.608   1.146   6.349  2.8335 -2.3023  0.8140
  194MOL   C11431380   3.501   1.385   6.457 -0.3954 -0.0867  0.3749
  194MOL   C11531381   3.434   1.477   6.565  0.1737  0.0892 -0.0801
  194MOL   C11631382   3.310   1.412   6.636 -0.5303  0.8002 -0.8802
  194MOL   O11731383   3.297   1.288   6.632  0.4774  0.1879 -0.0691
  194MOL   H11831384   3.435   1.334   6.387  0.8640 -0.4517 -0.5748
  194MOL   H11931385   3.571   1.442   6.395  1.1750 -1.8618  0.4638
  194MOL   H12031386   3.396   1.559   6.505  0.5018 -0.1758 -0.6585
  194MOL   H12131387   3.498   1.520   6.641  0.1091 -1.3097  0.7880
  194MOL   C12231388   3.223   1.499   6.724 -0.5698  0.1004 -0.1700
  194MOL   C12331389   3.130   1.584   6.645 -0.4665  0.3897  0.8346
  194MOL   C12431390   3.005   1.522   6.587 -0.2303  1.6154 -0.4343
  194MOL   O12531391   2.945   1.436   6.650  0.5298 -0.0988 -0.0229
  194MOL   H12631392   3.294   1.559   6.781 -0.7310  0.7423 -0.6391
  194MOL   H12731393   3.167   1.431   6.789  2.2572 -0.4414  1.7884
  194MOL   H12831394   3.189   1.635   6.568  0.5490 -0.6316  0.9200
  194MOL   H12931395   3.103   1.672   6.702 -2.1964 -0.2200  0.9814
  194MOL   C13031396   2.953   1.570   6.456  0.1315  0.1425 -0.2182
  194MOL   C13131397   2.979   1.477   6.340 -0.2956  0.2455 -0.0782
  194MOL   C13231398   3.118   1.478   6.280 -0.2825  0.0765  0.4085
  194MOL   O13331399   3.211   1.533   6.337  0.0480  0.2538  0.1609
  194MOL   H13431400   2.987   1.673   6.439  1.7794  0.1517  2.7726
  194MOL   H13531401   2.848   1.569   6.485 -0.1812  2.5393 -1.1373
  194MOL   H13631402   2.905   1.501   6.264 -1.5230  1.8280  1.5629
  194MOL   H13731403   2.965   1.374   6.373  0.0051  0.6809  1.4246
  194MOL   C13831404   3.143   1.397   6.158  0.8248 -0.7524  0.3829
  194MOL   C13931405   3.254   1.289   6.193  0.0409 -0.7210  0.3287
  194MOL   C14031406   3.229   1.146   6.141 -0.7820 -0.2741  0.3526
  194MOL   O14131407   3.119   1.106   6.114  0.5188  0.1356  0.1258
  194MOL   H14231408   3.171   1.467   6.079 -0.9318  0.8257  1.0920
  194MOL   H14331409   3.050   1.351   6.127  0.9023  0.2414 -1.3650
  194MOL   H14431410   3.257   1.264   6.299  0.7890 -0.8293  0.2871
  194MOL   H14531411   3.350   1.336   6.173  0.4537 -1.1656  1.2488
  194MOL   C14631412   3.347   1.057   6.143  0.5683 -0.9324 -0.6249
  194MOL   C14731413   3.318   0.905   6.158  0.0026 -0.0382  0.4491
  194MOL   C14831414   3.377   0.858   6.292  1.0134  0.1018  0.2280
  194MOL   O14931415   3.492   0.870   6.317  0.2085  0.4574 -0.5031
  194MOL   H15031416   3.408   1.096   6.225  2.2957 -1.5662 -1.5820
  194MOL   H15131417   3.415   1.071   6.059  1.3826 -0.7937  0.0498
  194MOL   H15231418   3.377   0.858   6.080 -0.3653 -0.6073  0.5132
  194MOL   H15331419   3.211   0.894   6.147  0.0833  0.5749 -0.9811
  194MOL   C15431420   3.284   0.785   6.383 -0.8488 -0.2470 -0.2749
  194MOL   C15531421   3.267   0.635   6.348  0.2961  0.1209 -0.4807
  194MOL   C15631422   3.379   0.550   6.403  0.0090  0.1868  0.1249
  194MOL   O15731423   3.432   0.578   6.505 -0.4703  0.2278 -0.1475
  194MOL   H15831424   3.189   0.836   6.393  0.1586  1.7672 -0.6564
  194MOL   H15931425   3.336   0.793   6.479 -1.0428 -2.2080  0.0152
  194MOL   H16031426   3.270   0.626   6.239  1.0780 -1.2574 -0.3524
  194MOL   H16131427   3.172   0.592   6.381 -0.0153 -0.7101 -2.3809
  194MOL   H16231428   3.409   0.464   6.343  1.7198  0.3317  0.7315
  195MOL     C131429   1.833   7.503   3.912 -0.4250  0.2796 -0.5019
  195MOL     C231430   1.965   7.583   3.909  0.4992  0.5807  0.2976
  195MOL     C331431   2.047   7.542   3.784  0.4679 -0.2108 -0.1015
  195MOL     O431432   2.100   7.429   3.775  0.6255 -0.4222 -0.2336
  195MOL     H531433   1.776   7.518   3.820  1.1425  0.0752 -1.5105
  195MOL     H631434   1.838   7.395   3.923 -1.5926 -0.0355 -2.7648
  195MOL     H731435   2.030   7.579   3.996  0.6287 -0.6673  0.1501
  195MOL     H831436   1.948   7.691   3.916 -0.3818  0.6103 -1.8416
  195MOL     H931437   1.775   7.546   3.994  1.7986  1.2434  0.6181
  195MOL    C1031438   2.067   7.636   3.665 -0.9460  0.9682  0.1739
  195MOL    C1131439   1.939   7.666   3.584  0.3065 -0.1352 -0.3531
  195MOL    C1231440   1.864   7.798   3.613  0.4229  0.5035  0.0608
  195MOL    O1331441   1.923   0.036   3.656 -0.6318  0.4427  0.1622
  195MOL    H1431442   2.143   7.588   3.603 -2.0902  1.6029 -1.7431
  195MOL    H1531443   2.114   7.726   3.707  3.0053 -1.3756  1.1300
  195MOL    H1631444   1.866   7.586   3.593 -1.6393  1.4839 -1.2289
  195MOL    H1731445   1.979   7.660   3.483  0.6669 -0.1845 -0.2101
  195MOL    C1831446   1.728   7.806   3.545  0.1243 -0.6180 -0.1960
  195MOL    C1931447   1.625   0.008   3.633 -0.1257 -0.5243  0.4029
  195MOL    C2031448   1.533   7.779   3.712 -0.7683 -0.2004 -0.8529
  195MOL    O2131449   1.553   7.659   3.731  0.1740 -0.8325  0.3237
  195MOL    H2231450   1.704   7.718   3.486 -0.5672 -0.0379 -0.7950
  195MOL    H2331451   1.741   0.019   3.464  0.8901 -1.3145 -0.6992
  195MOL    H2431452   1.556   0.062   3.568  2.3454  0.5774 -1.4076
  195MOL    H2531453   1.667   0.075   3.708  1.8457  1.5864 -2.4574
  195MOL    C2631454   1.409   7.847   3.766 -0.4958  0.6486  0.4429
  195MOL    C2731455   1.385   7.837   3.918 -0.1740  0.8175  0.5220
  195MOL    C2831456   1.268   0.062   3.969  0.4220  0.1510 -0.8481
  195MOL    O2931457   1.191   0.119   3.889 -0.8287  0.3902  0.2201
  195MOL    H3031458   1.334   7.797   3.704 -0.2051 -0.0097  0.6098
  195MOL    H3131459   1.408   0.095   3.745 -1.4498  0.5587  0.0137
  195MOL    H3231460   1.479   0.003   3.967  1.0727  1.7943 -2.2691
  195MOL    H3331461   1.363   7.733   3.945 -1.8656  0.9152 -0.4392
  195MOL    C3431462   1.240   0.087   4.114 -1.2414  0.0375 -0.0145
  195MOL    C3531463   1.087   0.072   4.134  0.1475 -0.6218 -0.2459
  195MOL    C3631464   1.002   0.203   4.134  0.5904  0.3158 -0.2447
  195MOL    O3731465   1.055   0.310   4.142 -0.4512 -0.3190 -0.3273
  195MOL    H3831466   1.265   0.189   4.141  1.7156  0.0889 -2.6509
  195MOL    H3931467   1.300   0.029   4.185 -1.6899  0.6458  0.8605
  195MOL    H4031468   1.065   0.020   4.227  0.8790 -1.8334 -0.7340
  195MOL    H4131469   1.032   0.009   4.064  0.1619  0.9156 -1.6755
  195MOL    C4231470   0.853   0.179   4.135 -0.1820 -0.5848 -0.5772
  195MOL    C4331471   0.783   0.287   4.216 -0.1029  0.5682  0.3012
  195MOL    C4431472   0.643   0.239   4.250 -0.2500  0.1562 -0.2143
  195MOL    O4531473   0.609   0.122   4.244 -0.2543  0.1003  0.2086
  195MOL    H4631474   0.838   0.074   4.163 -1.2589 -0.6242 -1.2538
  195MOL    H4731475   0.829   0.194   4.030  1.3035 -0.8015 -0.9503
  195MOL    H4831476   0.778   0.387   4.174  0.2712  1.1327  1.5958
  195MOL    H4931477   0.829   0.286   4.314 -0.7055 -1.9357  0.5953
  195MOL    C5031478   0.543   0.355   4.290  0.3840 -0.3680  0.1539
  195MOL    C5131479   0.397   0.302   4.284 -0.0942 -0.7750  0.0137
  195MOL    C5231480   0.325   0.347   4.158 -0.4507 -0.4108 -0.1003
  195MOL    O5331481   0.375   0.351   4.045  0.2476  0.1942  0.1551
  195MOL    H5431482   0.570   0.446   4.236  0.5568 -0.1642  0.5760
  195MOL    H5531483   0.568   0.374   4.395 -1.1403 -0.2362  0.5124
  195MOL    H5631484   0.344   0.328   4.376 -0.9819 -1.0369 -0.4153
  195MOL    H5731485   0.395   0.194   4.272  1.6499 -0.9208  0.9209
  195MOL    C5831486   0.177   0.395   4.190  0.4591 -0.3541  0.4247
  195MOL    C5931487   0.080   0.350   4.072 -0.3454 -0.1088 -0.1418
  195MOL    C6031488   0.031   0.211   4.095 -0.1039 -0.0942 -0.4594
  195MOL    O6131489   0.095   0.141   4.173 -0.3739  0.1912 -0.2744
  195MOL    H6231490   0.196   0.502   4.191  2.0833 -0.6309  1.8191
  195MOL    H6331491   0.152   0.369   4.293 -0.7960  0.3427  0.3010
  195MOL    H6431492   0.119   0.360   3.970 -0.8515  1.0730 -0.2288
  195MOL    H6531493   7.851   0.414   4.076 -0.5475 -0.3911 -0.0597
  195MOL    C6631494   7.753   0.168   4.043  0.2727  0.1262 -0.3410
  195MOL    C6731495   7.695   0.048   4.117 -0.1613  0.1996  1.2617
  195MOL    C6831496   7.722   7.778   4.050  0.3240  0.0991  0.0831
  195MOL    O6931497   7.755   7.770   3.935 -0.1440 -0.5115 -0.0213
  195MOL    H7031498   7.755   0.161   3.934  2.4575 -0.7513 -0.2723
  195MOL    H7131499   7.694   0.253   4.075  0.2509 -0.4450  1.2049
  195MOL    H7231500   7.589   0.065   4.100  0.4483  2.2921 -0.6799
  195MOL    H7331501   7.709   0.033   4.224 -1.7000 -3.5195  1.0053
  195MOL    C7431502   7.696   7.652   4.137  0.6653  0.2043 -0.1797
  195MOL    C7531503   7.824   7.585   4.192 -0.3535 -0.4399 -0.4118
  195MOL    C7631504   7.796   7.512   4.322  0.1232 -0.0870 -0.4016
  195MOL    O7731505   7.686   7.522   4.375 -0.2422  0.0998  0.0067
  195MOL    H7831506   7.662   7.582   4.061 -1.1137  0.6523  0.1912
  195MOL    H7931507   7.623   7.669   4.216 -1.6539 -1.8430 -1.7977
  195MOL    H8031508   0.028   7.672   4.210  0.8954 -0.8643 -2.5645
  195MOL    H8131509   0.023   7.515   4.133 -0.6184 -0.2532 -0.8975
  195MOL    C8231510   0.054   7.427   4.382  0.2579  0.3490 -0.2156
  195MOL    C8331511   0.058   7.291   4.321 -0.1486 -0.9482  0.5778
  195MOL    C8431512   0.173   7.278   4.219  0.4705 -0.2223 -0.3844
  195MOL    O8531513   0.226   7.366   4.153  0.4088 -0.4445  0.1435
  195MOL    H8631514   0.034   7.405   4.487 -2.2051  0.4197 -0.6339
  195MOL    H8731515   0.145   7.486   4.376  1.0140 -0.5905  1.7849
  195MOL    H8831516   7.819   7.268   4.280 -0.9840 -1.7652  2.9139
  195MOL    H8931517   0.075   7.215   4.398 -1.5132 -0.0071  1.8308
  195MOL    C9031518   0.208   7.133   4.187 -0.4437 -0.7008 -0.0153
  195MOL    C9131519   0.360   7.109   4.224 -0.1694  0.1154 -0.3155
  195MOL    C9231520   0.378   7.066   4.372 -0.0145 -0.5488  0.0173
  195MOL    O9331521   0.293   7.087   4.463 -0.7961  0.0124 -0.1178
  195MOL    H9431522   0.202   7.133   4.078 -1.1306 -0.5920  0.0231
  195MOL    H9531523   0.139   7.058   4.225 -0.5681 -0.2840  0.5872
  195MOL    H9631524   0.422   7.199   4.229  0.8372 -0.7348  4.3824
  195MOL    H9731525   0.422   7.057   4.150  0.7420 -0.4828  0.8619
  195MOL    C9831526   0.515   7.014   4.413  0.4979  0.2057 -0.1390
  195MOL    C9931527   0.552   7.049   4.560 -0.3175  0.2726 -0.5496
  195MOL   C10031528   0.625   6.945   4.645  0.4084 -0.9097  0.0958
  195MOL   O10131529   0.668   6.842   4.596 -0.0725  0.0534  0.2941
  195MOL   H10231530   0.596   7.055   4.352  1.5802 -1.3308  0.2048
  195MOL   H10331531   0.524   6.905   4.413  0.1406  0.1785 -0.2766
  195MOL   H10431532   0.470   7.075   4.628 -1.8954  1.4896 -2.8645
  195MOL   H10531533   0.618   7.135   4.551 -0.9052  1.0094  1.7353
  195MOL   C10631534   0.633   6.974   4.799 -0.3059 -0.4309  0.1457
  195MOL   C10731535   0.727   6.874   4.862  0.0051  0.3568  0.4751
  195MOL   C10831536   0.737   6.911   5.006  0.4169  1.7381 -0.3016
  195MOL   O10931537   0.640   6.904   5.082 -0.2900  0.4917 -0.4417
  195MOL   H11031538   0.533   6.949   4.836 -0.2388 -0.1833  0.4854
  195MOL   H11131539   0.663   7.075   4.824  1.5380 -1.1802  1.0469
  195MOL   H11231540   0.822   6.868   4.808 -1.0152 -1.4823 -1.1867
  195MOL   H11331541   0.673   6.780   4.856  2.8419 -1.2516 -0.8490
  195MOL   C11431542   0.865   6.978   5.053 -0.0681  0.3305  0.1497
  195MOL   C11531543   0.841   7.112   5.112 -0.0173 -0.1870  0.3259
  195MOL   C11631544   0.928   7.223   5.063  0.1002 -0.3048 -0.0210
  195MOL   O11731545   1.015   7.199   4.978 -0.9087 -0.0091 -0.1799
  195MOL   H11831546   0.924   6.970   4.961  0.5881 -0.5082  0.6359
  195MOL   H11931547   0.933   6.919   5.114  1.0559  0.5267 -0.8853
  195MOL   H12031548   0.839   7.102   5.221  0.2071  1.0128  0.4459
  195MOL   H12131549   0.741   7.143   5.082 -0.7139 -0.0079  2.7075
  195MOL   C12231550   0.898   7.360   5.117  0.3828  0.4989 -1.2311
  195MOL   C12331551   0.772   7.423   5.069  0.4708 -0.3969 -0.1280
  195MOL   C12431552   0.788   7.551   4.984  0.1082  0.4615  0.7534
  195MOL   O12531553   0.839   7.647   5.041 -0.2916  0.3581 -0.0085
  195MOL   H12631554   0.985   7.425   5.107  0.9372  0.3042  1.8007
  195MOL   H12731555   0.897   7.339   5.224  1.0384 -2.4706 -1.7901
  195MOL   H12831556   0.719   7.456   5.158 -1.0575 -0.4273 -0.9908
  195MOL   H12931557   0.715   7.344   5.020  0.3049 -0.2836 -0.1188
  195MOL   C13031558   0.779   7.542   4.832 -0.2441 -0.0309  0.6488
  195MOL   C13131559   0.896   7.456   4.771 -0.0558  0.4267 -0.6021
  195MOL   C13231560   0.841   7.333   4.706 -0.4998  0.1582 -0.2909
  195MOL   O13331561   0.721   7.320   4.679 -0.0714  0.1670  0.6255
  195MOL   H13431562   0.779   7.640   4.783 -1.0190 -0.0009  0.7005
  195MOL   H13531563   0.682   7.500   4.807  0.2847 -0.5854 -0.4878
  195MOL   H13631564   0.968   7.428   4.848  0.2243  1.8794 -0.3211
  195MOL   H13731565   0.957   7.517   4.705  1.2537 -0.5054 -0.2815
  195MOL   C13831566   0.949   7.223   4.672 -0.7046  0.3749  0.5528
  195MOL   C13931567   0.982   7.238   4.520 -0.2033  0.1936  0.0105
  195MOL   C14031568   0.966   7.109   4.437 -0.2717  0.0653 -0.3436
  195MOL   O14131569   0.948   6.999   4.495  0.4038  0.4759  0.0526
  195MOL   H14231570   0.900   7.126   4.683 -0.5411  0.2957  0.5795
  195MOL   H14331571   1.037   7.220   4.737 -1.2959  1.1883  1.4146
  195MOL   H14431572   1.080   7.284   4.507  0.2419 -0.4884  0.8435
  195MOL   H14531573   0.913   7.300   4.464 -0.4341  0.9239  1.0919
  195MOL   C14631574   0.969   7.119   4.286 -0.3246  0.6333 -0.1177
  195MOL   C14731575   0.946   6.990   4.207 -0.8268 -0.5227  0.2155
  195MOL   C14831576   0.847   7.001   4.093 -0.0106 -0.2204  0.4313
  195MOL   O14931577   0.734   7.045   4.113 -0.2052 -0.2072  0.1917
  195MOL   H15031578   1.055   7.172   4.245  1.3396 -1.7323  0.1793
  195MOL   H15131579   0.881   7.178   4.260 -0.8712  0.8578  2.1564
  195MOL   H15231580   0.900   6.918   4.275  0.6937  0.1004  1.9559
  195MOL   H15331581   1.035   6.946   4.163 -1.5691 -2.0429  0.2030
  195MOL   C15431582   0.888   6.965   3.945 -0.7760  0.0689  0.5092
  195MOL   C15531583   0.772   6.967   3.839 -0.0543 -0.1832 -0.4102
  195MOL   C15631584   0.718   6.831   3.811  0.0772  0.4935 -0.1156
  195MOL   O15731585   0.599   6.796   3.819  0.2418  0.0260 -0.1123
  195MOL   H15831586   0.928   6.865   3.955 -0.4638  0.3209  1.8006
  195MOL   H15931587   0.969   7.027   3.908 -2.2124  1.9340  0.3819
  195MOL   H16031588   0.807   6.997   3.740  1.9845  0.8611  0.5860
  195MOL   H16131589   0.684   7.028   3.859 -1.6132 -1.7372 -2.3337
  195MOL   H16231590   0.793   6.755   3.791 -0.9737 -1.4161  2.7628
  196MOL     C131591   4.165   1.542   5.258  0.1897 -0.4107  0.5340
  196MOL     C231592   4.104   1.405   5.251  0.0278 -0.3839 -0.2067
  196MOL     C331593   4.013   1.378   5.373  0.1548 -0.6957 -0.4260
  196MOL     O431594   3.925   1.456   5.410 -0.8461  0.5258 -0.4105
  196MOL     H531595   4.177   1.568   5.363 -2.0594  1.1978  0.4237
  196MOL     H631596   4.258   1.546   5.201  0.3695  1.6411  0.9484
  196MOL     H731597   4.178   1.328   5.232  1.6132  0.3178  2.8431
  196MOL     H831598   4.036   1.404   5.165 -0.1575 -1.0502 -0.0515
  196MOL     H931599   4.094   1.607   5.207  0.5909  0.7279  1.4063
  196MOL    C1031600   4.036   1.248   5.447 -0.8891  0.1546 -0.2368
  196MOL    C1131601   4.172   1.256   5.527  0.0396 -0.0666 -0.3313
  196MOL    C1231602   4.147   1.282   5.674 -0.0138  0.0582 -0.0183
  196MOL    O1331603   4.172   1.391   5.723  0.7353  0.2099  0.7255
  196MOL    H1431604   4.055   1.173   5.370  0.7109 -0.3449  0.6048
  196MOL    H1531605   3.957   1.213   5.514 -0.4257  1.7671  1.1873
  196MOL    H1631606   4.237   1.336   5.491 -1.6288  2.8381  2.8896
  196MOL    H1731607   4.219   1.158   5.521 -0.1812 -0.1024 -1.7155
  196MOL    C1831608   4.102   1.164   5.765 -0.1670  0.4159  0.2953
  196MOL    C1931609   4.039   1.202   5.896  0.3928 -0.1019  0.2666
  196MOL    C2031610   3.887   1.206   5.909 -0.1825 -0.6567 -0.3052
  196MOL    O2131611   3.817   1.158   5.822 -0.1043 -0.2680  0.9508
  196MOL    H2231612   4.199   1.117   5.779 -0.4152  0.1039  0.9968
  196MOL    H2331613   4.040   1.090   5.714  0.3119  0.5961 -0.5483
  196MOL    H2431614   4.075   1.299   5.933  0.0393  0.7383 -1.5155
  196MOL    H2531615   4.075   1.118   5.955 -0.5369 -1.0380 -0.4965
  196MOL    C2631616   3.829   1.266   6.039 -0.2987  0.0284 -0.3273
  196MOL    C2731617   3.773   1.407   6.025 -0.1520 -0.0839  0.3457
  196MOL    C2831618   3.652   1.426   6.105 -0.3762 -0.3661 -0.1780
  196MOL    O2931619   3.584   1.336   6.152 -0.4428 -0.1607  0.3137
  196MOL    H3031620   3.895   1.257   6.124  1.6675 -0.9975 -1.9117
  196MOL    H3131621   3.749   1.197   6.064 -1.3091  1.0544 -0.6685
  196MOL    H3231622   3.745   1.423   5.921 -1.1689 -0.5942  0.5307
  196MOL    H3331623   3.849   1.481   6.048  0.9532 -0.9167 -0.5923
  196MOL    C3431624   3.614   1.572   6.130  0.1846  0.5347  0.7169
  196MOL    C3531625   3.482   1.606   6.211  0.4121 -0.1466  0.9209
  196MOL    C3631626   3.475   1.733   6.298  0.2276 -0.2940  0.2750
  196MOL    O3731627   3.541   1.745   6.399 -0.2308 -0.0694 -0.1153
  196MOL    H3831628   3.615   1.637   6.043 -1.4033 -0.4731 -0.0672
  196MOL    H3931629   3.704   1.610   6.179 -0.0116  0.3509  1.2262
  196MOL    H4031630   3.461   1.523   6.278  0.6098 -3.2095 -2.6315
  196MOL    H4131631   3.403   1.609   6.136 -0.7000 -1.6023  1.9957
  196MOL    C4231632   3.372   1.832   6.258  0.2856  0.8089  0.1529
  196MOL    C4331633   3.356   1.956   6.342 -0.5860 -0.2497 -0.4002
  196MOL    C4431634   3.263   1.945   6.469 -0.2414  0.0962  0.1416
  196MOL    O4531635   3.165   1.869   6.476 -0.4579 -0.1003 -0.8137
  196MOL    H4631636   3.277   1.778   6.257  0.9524 -0.3745 -0.3457
  196MOL    H4731637   3.395   1.868   6.157 -1.3510  1.1114 -0.1298
  196MOL    H4831638   3.327   2.040   6.279 -1.2141  0.9608  1.4586
  196MOL    H4931639   3.459   1.971   6.377 -0.3055 -0.7685 -0.9955
  196MOL    C5031640   3.292   2.039   6.583  0.5571  0.5709  0.3190
  196MOL    C5131641   3.288   1.983   6.719 -0.3509  0.2100  0.9496
  196MOL    C5231642   3.183   2.057   6.805 -0.7987 -0.5621  0.1175
  196MOL    O5331643   3.121   2.156   6.760 -0.0389 -0.9077 -0.1596
  196MOL    H5431644   3.222   2.119   6.560 -3.5318 -2.4601  1.6402
  196MOL    H5531645   3.390   2.085   6.570  0.4525  0.4353 -1.0957
  196MOL    H5631646   3.383   1.985   6.773 -0.6558 -0.5375  1.5288
  196MOL    H5731647   3.249   1.882   6.708 -1.0718  0.7299 -1.4215
  196MOL    C5831648   3.143   2.003   6.939  0.0642  0.1130  0.2564
  196MOL    C5931649   3.116   2.117   7.038 -0.1822 -0.5734 -0.3400
  196MOL    C6031650   3.086   2.057   7.174  0.6492  0.3270  0.4154
  196MOL    O6131651   3.020   1.954   7.175 -0.0932  0.0073 -0.3459
  196MOL    H6231652   3.224   1.935   6.966 -0.1533 -0.9569 -1.6997
  196MOL    H6331653   3.051   1.944   6.937  0.9367 -1.2435 -0.2326
  196MOL    H6431654   3.029   2.171   7.000 -1.9234 -0.4060  3.6555
  196MOL    H6531655   3.200   2.187   7.033  1.4744 -2.5906 -1.1016
  196MOL    C6631656   3.162   2.098   7.300 -0.7073 -0.3858  0.5374
  196MOL    C6731657   3.176   2.250   7.328  0.7589 -0.2241  0.0389
  196MOL    C6831658   3.317   2.300   7.339 -0.4494 -0.0545 -0.1951
  196MOL    O6931659   3.391   2.304   7.237  0.1576 -0.7365 -0.2326
  196MOL    H7031660   3.264   2.061   7.298 -0.3479  0.5755  0.6616
  196MOL    H7131661   3.109   2.054   7.385 -0.9500  0.7822  1.0082
  196MOL    H7231662   3.128   2.274   7.422 -1.8657 -1.6734 -0.8716
  196MOL    H7331663   3.127   2.304   7.246 -0.1745 -1.5467 -0.2880
  196MOL    C7431664   3.355   2.355   7.479  0.0703  0.7378  0.3289
  196MOL    C7531665   3.443   2.485   7.476  0.1915  0.6107 -0.5100
  196MOL    C7631666   3.358   2.604   7.442  0.5274  0.2398  0.4510
  196MOL    O7731667   3.315   2.676   7.533  0.0180 -0.4469  0.2011
  196MOL    H7831668   3.404   2.275   7.535 -3.3118 -0.7718  1.2784
  196MOL    H7931669   3.265   2.374   7.538  2.0450  2.7388  2.7782
  196MOL    H8031670   3.529   2.492   7.410  1.1812 -0.0365  0.6912
  196MOL    H8131671   3.489   2.497   7.574 -1.2254  0.6819  0.1573
  196MOL    C8231672   3.343   2.643   7.300 -0.4828 -0.0040  0.0617
  196MOL    C8331673   3.193   2.638   7.258 -0.2794  0.5418 -0.4750
  196MOL    C8431674   3.160   2.580   7.117  0.7307  0.0105 -0.1576
  196MOL    O8531675   3.248   2.544   7.038 -0.0677  0.2764 -0.4843
  196MOL    H8631676   3.399   2.580   7.230 -0.2231  2.3734 -1.9293
  196MOL    H8731677   3.381   2.744   7.288 -1.3972  0.1795 -1.4617
  196MOL    H8831678   3.143   2.734   7.268 -0.0493  0.5757  0.3862
  196MOL    H8931679   3.142   2.572   7.329  0.4477 -0.3801 -0.7906
  196MOL    C9031680   3.011   2.574   7.076 -0.7444 -0.5557  0.4464
  196MOL    C9131681   2.984   2.445   6.994 -0.3867 -0.2506  0.4015
  196MOL    C9231682   2.925   2.473   6.854 -0.1370  0.6345 -0.0590
  196MOL    O9331683   2.953   2.573   6.788 -0.4638 -0.0176 -0.1212
  196MOL    H9431684   2.983   2.667   7.026 -1.2491 -0.7348  0.3872
  196MOL    H9531685   2.951   2.590   7.165 -1.3321 -0.1017 -0.0277
  196MOL    H9631686   2.918   2.374   7.044  1.3236 -2.2130 -0.0549
  196MOL    H9731687   3.078   2.394   6.971  0.2235  1.6500 -1.4754
  196MOL    C9831688   2.831   2.370   6.793 -0.0346 -0.7956 -0.1095
  196MOL    C9931689   2.728   2.429   6.694  0.1821  0.5076 -0.2736
  196MOL   C10031690   2.607   2.498   6.759  0.5596  0.2293  0.4680
  196MOL   O10131691   2.599   2.507   6.881  0.1082  0.3529  0.0639
  196MOL   H10231692   2.797   2.325   6.886  0.8210  0.6190  0.9067
  196MOL   H10331693   2.904   2.300   6.752 -1.5977 -1.3875 -1.9548
  196MOL   H10431694   2.694   2.354   6.622 -2.5923  2.0973 -0.7027
  196MOL   H10531695   2.781   2.509   6.643  2.7912  1.9455  4.3535
  196MOL   C10631696   2.495   2.559   6.667 -0.3164 -0.2880 -0.1278
  196MOL   C10731697   2.382   2.463   6.655  0.2161 -0.3537 -0.0599
  196MOL   C10831698   2.298   2.486   6.528 -0.1159  0.5017 -1.1277
  196MOL   O10931699   2.341   2.557   6.439  0.0666 -0.1685  0.2726
  196MOL   H11031700   2.548   2.584   6.574 -0.5505  1.1065  0.1101
  196MOL   H11131701   2.471   2.657   6.707  1.8014  0.3823 -0.3903
  196MOL   H11231702   2.315   2.471   6.741 -1.0483  1.7381 -1.1613
  196MOL   H11331703   2.415   2.360   6.650 -0.6111 -0.7034  1.3535
  196MOL   C11431704   2.158   2.428   6.525 -0.0542  0.3866 -0.1746
  196MOL   C11531705   2.161   2.271   6.522  0.1370 -0.3302 -0.6199
  196MOL   C11631706   2.119   2.205   6.652  1.0188 -0.4093  0.0260
  196MOL   O11731707   2.134   2.266   6.754  0.2158 -0.1504  0.0475
  196MOL   H11831708   2.095   2.474   6.449 -0.6369  1.0270  0.6862
  196MOL   H11931709   2.090   2.450   6.608  0.1419  0.5013 -0.0429
  196MOL   H12031710   2.259   2.233   6.491  1.4897  1.1824  1.6884
  196MOL   H12131711   2.087   2.248   6.445  1.1320  1.8882 -2.2835
  196MOL   C12231712   2.075   2.060   6.650  0.2096 -0.1166 -0.0734
  196MOL   C12331713   1.967   2.030   6.753 -0.3912  0.1990  0.1142
  196MOL   C12431714   1.877   1.911   6.713  0.4864 -0.6119 -0.0808
  196MOL   O12531715   1.892   1.849   6.609  0.4537 -0.2590 -0.4078
  196MOL   H12631716   2.164   2.001   6.673 -0.6026 -0.3687  2.6168
  196MOL   H12731717   2.046   2.022   6.553 -1.2192  1.4439 -0.2823
  196MOL   H12831718   1.920   2.127   6.772 -1.3181  0.0791 -1.4937
  196MOL   H12931719   2.015   2.006   6.848 -1.6247 -0.7668  0.5007
  196MOL   C13031720   1.780   1.876   6.825 -0.5164  0.3376  0.3885
  196MOL   C13131721   1.777   1.721   6.843 -0.2920 -0.4057 -0.1107
  196MOL   C13231722   1.667   1.670   6.937 -0.3146  0.0291 -0.0576
  196MOL   O13331723   1.595   1.750   6.999  0.0378  0.3184  0.5844
  196MOL   H13431724   1.685   1.927   6.808 -1.9806 -1.7158  2.0852
  196MOL   H13531725   1.815   1.912   6.922 -0.5587  1.3831  0.0222
  196MOL   H13631726   1.868   1.683   6.889 -0.7663  0.5630  1.6777
  196MOL   H13731727   1.769   1.669   6.747 -0.5732  0.9290 -0.8280
  196MOL   C13831728   1.637   1.521   6.944 -0.5562 -0.4181 -0.5260
  196MOL   C13931729   1.614   1.472   7.088 -0.2802 -0.1143  0.9365
  196MOL   C14031730   1.754   1.434   7.143  0.8974  0.3795 -0.6215
  196MOL   O14131731   1.852   1.508   7.124  0.0330  0.5599  0.0124
  196MOL   H14231732   1.717   1.468   6.892 -0.2252 -0.4584  0.0327
  196MOL   H14331733   1.550   1.492   6.885 -0.6862  0.4061 -0.7350
  196MOL   H14431734   1.550   1.384   7.079 -2.4329  1.4605  0.1485
  196MOL   H14531735   1.565   1.538   7.159  0.5078  0.5964  0.8189
  196MOL   C14631736   1.774   1.307   7.231  0.3905  0.7556  0.5358
  196MOL   C14731737   1.919   1.270   7.276 -0.3114 -0.2353 -0.3695
  196MOL   C14831738   1.975   1.159   7.196 -0.4138  0.3926 -0.1502
  196MOL   O14931739   1.921   1.120   7.093  0.1605 -0.2045  0.2660
  196MOL   H15031740   1.724   1.224   7.181  0.3247 -0.2317  2.1889
  196MOL   H15131741   1.709   1.320   7.317 -3.0124 -2.2655 -1.4309
  196MOL   H15231742   1.926   1.245   7.382  0.8895 -1.4241 -0.7049
  196MOL   H15331743   1.976   1.361   7.255 -1.4134  0.4105 -0.5805
  196MOL   C15431744   2.096   1.087   7.253 -0.0449 -0.1922 -1.2755
  196MOL   C15531745   2.159   0.974   7.162 -0.4085 -0.3958 -0.2195
  196MOL   C15631746   2.139   0.834   7.214  0.4177 -0.3872  0.7182
  196MOL   O15731747   2.078   0.811   7.321 -0.2835 -0.3270 -0.3648
  196MOL   H15831748   2.079   1.061   7.358  1.3759 -2.0554 -1.4870
  196MOL   H15931749   2.169   1.168   7.256 -1.5979  1.1718  1.4586
  196MOL   H16031750   2.267   0.987   7.154 -0.4094  0.2529  0.7119
  196MOL   H16131751   2.128   0.971   7.057  0.5009 -1.9513 -0.4515
  196MOL   H16231752   2.190   0.753   7.161  1.8010  2.0003 -1.6819
  197MOL     C131753   3.523   3.220   2.156 -1.5390  0.0540  0.6512
  197MOL     C231754   3.654   3.142   2.196 -0.0508  0.1845 -0.0426
  197MOL     C331755   3.683   3.033   2.083  0.3123  0.3701 -0.7199
  197MOL     O431756   3.616   3.019   1.983 -0.1361 -0.1378 -0.0726
  197MOL     H531757   3.529   3.271   2.060 -0.0630  2.2129  1.8358
  197MOL     H631758   3.435   3.157   2.144 -1.3948 -0.0933  0.3687
  197MOL     H731759   3.635   3.087   2.288 -2.6827 -0.4229 -0.9030
  197MOL     H831760   3.743   3.205   2.207 -1.3627  2.0186  0.4443
  197MOL     H931761   3.501   3.288   2.238 -4.0961 -1.6211  1.4108
  197MOL    C1031762   3.806   2.950   2.119  0.2442 -0.1693 -0.8743
  197MOL    C1131763   3.778   2.799   2.150 -0.3664  0.5250  0.3918
  197MOL    C1231764   3.764   2.761   2.296 -0.0098 -0.6630 -0.3429
  197MOL    O1331765   3.766   2.848   2.381 -0.2742  0.0327  0.0551
  197MOL    H1431766   3.859   2.998   2.201 -3.5451 -1.1396  2.2953
  197MOL    H1531767   3.869   2.949   2.030 -0.0661  1.8510 -1.1358
  197MOL    H1631768   3.848   2.727   2.107 -0.3712 -2.8209  5.6195
  197MOL    H1731769   3.678   2.776   2.112 -0.6320 -2.5777  2.7589
  197MOL    C1831770   3.747   2.617   2.319 -1.0187  0.0308 -0.2575
  197MOL    C1931771   3.734   2.590   2.468 -0.8453 -0.9489 -0.0203
  197MOL    C2031772   3.756   2.448   2.506  0.6872  0.1344 -0.4186
  197MOL    O2131773   3.795   2.368   2.422 -0.3828 -0.9486  0.7547
  197MOL    H2231774   3.840   2.579   2.276 -0.3652  2.5188 -1.0965
  197MOL    H2331775   3.661   2.572   2.268  0.2411  0.8322 -3.2319
  197MOL    H2431776   3.638   2.632   2.496 -0.3863  0.1776 -0.1032
  197MOL    H2531777   3.808   2.650   2.521  0.9894 -2.4288 -0.8466
  197MOL    C2631778   3.736   2.404   2.653  0.1368  0.7586 -0.3556
  197MOL    C2731779   3.858   2.326   2.701 -0.1809 -0.1679  1.2548
  197MOL    C2831780   3.815   2.223   2.811  0.0863  0.4979 -0.3543
  197MOL    O2931781   3.695   2.208   2.841  0.2127 -0.3809  0.4636
  197MOL    H3031782   3.641   2.349   2.658 -0.8113  2.4452  0.6437
  197MOL    H3131783   3.724   2.493   2.715  1.1350  0.3657  0.4237
  197MOL    H3231784   3.933   2.394   2.742 -1.3555  0.1194  3.0289
  197MOL    H3331785   3.888   2.267   2.615 -0.5270  1.7097 -0.1674
  197MOL    C3431786   3.928   2.156   2.897  0.3288 -0.3186  0.2302
  197MOL    C3531787   3.944   2.223   3.036 -0.5013 -0.8082  0.8615
  197MOL    C3631788   3.986   2.140   3.151  0.1008  0.3981  0.2668
  197MOL    O3731789   4.015   2.021   3.130 -0.5358 -0.2423  0.5289
  197MOL    H3831790   4.015   2.155   2.831 -0.7863 -0.0753 -1.2922
  197MOL    H3931791   3.899   2.051   2.903 -1.1560 -0.0327 -1.4177
  197MOL    H4031792   3.848   2.269   3.059 -0.5626  0.4592 -1.6854
  197MOL    H4131793   4.018   2.303   3.032 -0.3943 -0.9355  0.1922
  197MOL    C4231794   3.992   2.200   3.293  0.6906 -1.0351  0.0979
  197MOL    C4331795   3.863   2.269   3.349  0.3377 -0.0840 -0.0072
  197MOL    C4431796   3.795   2.218   3.474 -0.1085  0.3988 -0.6490
  197MOL    O4531797   3.747   2.108   3.491  0.1346  0.1690 -0.4221
  197MOL    H4631798   4.077   2.269   3.295 -0.6929  0.7200 -0.1524
  197MOL    H4731799   4.020   2.114   3.354  2.1788 -1.4503 -1.1398
  197MOL    H4831800   3.777   2.280   3.283 -1.2603 -1.6234  1.7878
  197MOL    H4931801   3.889   2.373   3.368 -1.1101  0.3955 -0.6102
  197MOL    C5031802   3.792   2.314   3.598  0.4443  0.2683 -0.2256
  197MOL    C5131803   3.714   2.257   3.721  0.2952  0.4792 -0.0668
  197MOL    C5231804   3.793   2.172   3.818 -0.0295  0.2705  0.4981
  197MOL    O5331805   3.909   2.205   3.847 -0.0783  0.1320  0.0526
  197MOL    H5431806   3.765   2.418   3.578  0.2602 -0.2514 -2.8496
  197MOL    H5531807   3.898   2.311   3.626  0.3902 -1.0497 -0.1258
  197MOL    H5631808   3.631   2.196   3.687  1.4415 -0.7695 -0.6405
  197MOL    H5731809   3.672   2.339   3.779 -1.8328 -0.8865  0.3881
  197MOL    C5831810   3.725   2.061   3.886  0.6091  0.1833 -0.1400
  197MOL    C5931811   3.812   1.935   3.901  0.2866 -0.4637  0.2888
  197MOL    C6031812   3.778   1.806   3.824  0.5524 -0.7078  0.0935
  197MOL    O6131813   3.814   1.695   3.867 -0.0247  0.5502  0.6425
  197MOL    H6231814   3.632   2.037   3.833  0.5905  1.4255 -0.6967
  197MOL    H6331815   3.714   2.088   3.991  2.8112 -1.4419  0.5413
  197MOL    H6431816   3.796   1.915   4.007 -1.8484  2.1634  0.5011
  197MOL    H6531817   3.917   1.960   3.884 -0.3221  0.7286 -1.8479
  197MOL    C6631818   3.698   1.824   3.702 -0.8375 -0.6636  0.4912
  197MOL    C6731819   3.730   1.715   3.597  0.1941  1.0847 -0.1264
  197MOL    C6831820   3.828   1.757   3.498 -0.1430 -0.5555  0.5478
  197MOL    O6931821   3.918   1.836   3.522 -0.1341 -0.4909 -0.0093
  197MOL    H7031822   3.725   1.924   3.666 -1.6844  0.2633  2.3566
  197MOL    H7131823   3.591   1.826   3.723 -1.8251  0.2470 -4.0314
  197MOL    H7231824   3.643   1.712   3.531  0.0372  1.8131  0.0385
  197MOL    H7331825   3.752   1.613   3.628 -0.1345  0.6302 -1.3487
  197MOL    C7431826   3.816   1.707   3.355  0.1433 -0.2898  0.2808
  197MOL    C7531827   3.787   1.814   3.250 -0.0093  0.4387 -0.3566
  197MOL    C7631828   3.637   1.827   3.224 -0.2616 -0.6690  0.2470
  197MOL    O7731829   3.553   1.784   3.296 -0.2421 -0.5280  0.2489
  197MOL    H7831830   3.724   1.648   3.346 -0.2176  0.0585  1.6043
  197MOL    H7931831   3.895   1.638   3.326  0.8025  0.8077 -0.5574
  197MOL    H8031832   3.842   1.791   3.159  1.7003  3.4463 -0.1386
  197MOL    H8131833   3.816   1.913   3.285 -0.6951  0.4502  0.2072
  197MOL    C8231834   3.611   1.912   3.101  1.0326 -0.7483  0.1436
  197MOL    C8331835   3.506   1.848   2.999  0.1529  0.3293 -0.0062
  197MOL    C8431836   3.401   1.944   2.954 -0.1346 -0.2255 -1.0481
  197MOL    O8531837   3.319   1.980   3.043  0.3144 -0.0878  0.6609
  197MOL    H8631838   3.708   1.932   3.055 -0.3536  0.5791 -2.3669
  197MOL    H8731839   3.573   2.008   3.136  0.6166 -0.6573 -0.5408
  197MOL    H8831840   3.456   1.766   3.051 -0.6371 -1.2935 -3.2161
  197MOL    H8931841   3.560   1.803   2.916 -0.3081 -0.0182 -0.1191
  197MOL    C9031842   3.393   1.979   2.805 -0.3810  0.2305 -0.3039
  197MOL    C9131843   3.274   2.070   2.766 -0.6161  0.0335  0.4306
  197MOL    C9231844   3.319   2.152   2.642  0.1424 -0.4328  0.2698
  197MOL    O9331845   3.434   2.200   2.629 -0.4209 -0.1547 -0.0383
  197MOL    H9431846   3.393   1.890   2.743 -1.6006  1.6511 -2.4073
  197MOL    H9531847   3.493   2.018   2.783  0.8328 -2.8167 -0.5032
  197MOL    H9631848   3.256   2.151   2.837  0.4632  1.4215 -0.8227
  197MOL    H9731849   3.179   2.019   2.752 -0.1121 -0.9027  0.4084
  197MOL    C9831850   3.209   2.167   2.531 -0.2059 -0.3624  0.0212
  197MOL    C9931851   3.253   2.214   2.391 -0.5812  0.4166 -0.4594
  197MOL   C10031852   3.270   2.364   2.384  0.4808 -0.0597 -0.4270
  197MOL   O10131853   3.263   2.442   2.477  0.6240 -0.3864  0.8602
  197MOL   H10231854   3.142   2.238   2.580  0.3971  0.7064 -0.6970
  197MOL   H10331855   3.161   2.069   2.532  0.7665 -0.8484  2.3301
  197MOL   H10431856   3.179   2.203   2.312  0.7043 -0.8898 -1.5235
  197MOL   H10531857   3.344   2.163   2.358  0.4134  0.8691  1.5472
  197MOL   C10631858   3.293   2.421   2.246  0.5069  0.0480 -0.1499
  197MOL   C10731859   3.447   2.444   2.228  0.6077  0.7433 -0.9673
  197MOL   C10831860   3.502   2.425   2.088 -0.6737  0.6582 -0.3170
  197MOL   O10931861   3.559   2.515   2.029 -1.0056 -0.3322  0.1228
  197MOL   H11031862   3.240   2.512   2.216  0.4240  0.5722  1.5339
  197MOL   H11131863   3.254   2.347   2.176 -1.1776  1.7916 -1.1041
  197MOL   H11231864   3.512   2.381   2.288 -1.3924  0.0376  0.5247
  197MOL   H11331865   3.468   2.547   2.258  0.0896  1.0251 -1.5500
  197MOL   C11431866   3.468   2.287   2.039  0.6489 -0.7065 -0.4006
  197MOL   C11531867   3.533   2.270   1.903 -0.5347  0.3064  0.5772
  197MOL   C11631868   3.528   2.121   1.852  0.3649 -0.8879 -0.0549
  197MOL   O11731869   3.438   2.046   1.894 -0.1713 -0.1375  0.2400
  197MOL   H11831870   3.363   2.269   2.014  0.0194  2.2663 -0.0906
  197MOL   H11931871   3.492   2.207   2.109 -0.3449 -1.1232 -0.5300
  197MOL   H12031872   3.636   2.305   1.895 -0.1128 -0.9493  0.3439
  197MOL   H12131873   3.486   2.334   1.828 -1.1481 -0.7056  0.0790
  197MOL   C12231874   3.631   2.085   1.746 -0.1545  0.0076 -0.3920
  197MOL   C12331875   3.566   2.019   1.620 -0.2667  0.2908 -0.3201
  197MOL   C12431876   3.537   2.124   1.513 -0.8417  0.1674 -0.2919
  197MOL   O12531877   3.527   2.244   1.538  0.1759 -0.0292 -0.3040
  197MOL   H12631878   3.694   2.012   1.798  0.2271  0.0193 -0.8315
  197MOL   H12731879   3.690   2.173   1.721  0.7513 -1.0937 -2.2577
  197MOL   H12831880   3.470   1.973   1.642  0.3289 -0.9171 -0.1986
  197MOL   H12931881   3.637   1.950   1.574 -0.6549 -1.0416  1.0658
  197MOL   C13031882   3.509   2.073   1.377 -0.2614  0.3785 -0.1831
  197MOL   C13131883   3.380   1.995   1.376 -0.1811 -0.1225 -0.6191
  197MOL   C13231884   3.297   2.037   1.260  0.2875  1.3013 -0.3716
  197MOL   O13331885   3.314   1.989   1.150  0.1573 -0.2096 -0.3299
  197MOL   H13431886   3.595   2.011   1.353 -2.3555 -1.9667 -1.8759
  197MOL   H13531887   3.503   2.161   1.313 -0.6630  1.5882  1.4577
  197MOL   H13631888   3.322   1.994   1.469 -1.0721  0.4561 -1.1560
  197MOL   H13731889   3.392   1.888   1.357  1.1306 -0.6339  2.6644
  197MOL   C13831890   3.191   2.130   1.302  0.3772  0.4427  1.1685
  197MOL   C13931891   3.062   2.109   1.222 -0.0609 -0.3065 -0.1651
  197MOL   C14031892   2.948   2.082   1.319 -0.3043 -0.6456 -0.8646
  197MOL   O14131893   2.895   2.182   1.373  0.2071 -0.3411 -0.7159
  197MOL   H14231894   3.234   2.228   1.279 -1.8869  1.3012  0.4454
  197MOL   H14331895   3.173   2.146   1.409 -1.6286  1.8367  0.6401
  197MOL   H14431896   3.076   2.023   1.157  0.6853  0.0614 -0.4936
  197MOL   H14531897   3.038   2.189   1.151 -0.9270 -0.9281 -0.5870
  197MOL   C14631898   2.897   1.938   1.327  0.6485 -0.4622 -0.2382
  197MOL   C14731899   2.859   1.910   1.476  0.1368  0.5341 -0.2152
  197MOL   C14831900   2.714   1.942   1.506 -0.0390  0.1046 -0.0153
  197MOL   O14931901   2.618   1.900   1.435 -0.0431  0.0705 -0.3753
  197MOL   H15031902   2.981   1.881   1.288  0.3235 -1.0923 -0.0298
  197MOL   H15131903   2.812   1.942   1.258 -0.7886  2.3301  1.5946
  197MOL   H15231904   2.915   1.980   1.538 -0.9915  0.3369  1.0314
  197MOL   H15331905   2.873   1.805   1.503 -0.9715  0.3735 -0.2295
  197MOL   C15431906   2.688   2.021   1.632 -0.7630  0.2704 -0.1038
  197MOL   C15531907   2.550   1.992   1.684  0.2013 -0.4181 -0.5535
  197MOL   C15631908   2.554   1.988   1.840 -0.0529  0.2256  0.5103
  197MOL   O15731909   2.642   2.042   1.906  0.1783 -0.2592 -0.0460
  197MOL   H15831910   2.697   2.126   1.604 -1.6299 -0.0135 -1.5288
  197MOL   H15931911   2.772   2.012   1.700 -0.7509 -0.3633 -0.1997
  197MOL   H16031912   2.520   1.891   1.654  1.0778 -0.9485  0.3135
  197MOL   H16131913   2.489   2.072   1.643 -2.7312 -2.5435 -0.5276
  197MOL   H16231914   2.486   1.923   1.895  1.5431 -0.3141  1.8702
  198MOL     C131915   7.392   6.061   5.497 -0.3126 -0.1525  0.2143
  198MOL     C231916   7.502   5.955   5.488 -0.3799  0.1701  0.0045
  198MOL     C331917   7.474   5.838   5.578  0.0693  1.0204 -0.4471
  198MOL     O431918   7.394   5.750   5.548  0.1177 -0.0747 -0.3363
  198MOL     H531919   7.298   6.020   5.459 -0.3766 -0.5850  0.8348
  198MOL     H631920   7.367   6.082   5.601 -1.2789  0.5833 -0.1540
  198MOL     H731921   7.597   5.998   5.520  2.6978 -3.1103 -4.1598
  198MOL     H831922   7.515   5.919   5.386  1.2358 -0.8330  0.5547
  198MOL     H931923   7.419   6.152   5.445  0.1076 -0.2785  0.2098
  198MOL    C1031924   7.554   5.833   5.704  0.8346 -0.0891 -0.0725
  198MOL    C1131925   7.481   5.781   5.836  0.6135 -0.2933  0.4961
  198MOL    C1231926   7.556   5.662   5.894  0.2235  0.9334 -0.1885
  198MOL    O1331927   7.624   5.679   5.996 -0.5672 -0.2551  0.3038
  198MOL    H1431928   7.580   5.939   5.713 -1.5488  0.3182  3.3186
  198MOL    H1531929   7.643   5.774   5.683  0.6267 -0.0937 -0.9256
  198MOL    H1631930   7.377   5.755   5.814  0.2266  0.4658  1.3798
  198MOL    H1731931   7.485   5.868   5.901 -2.1476 -0.2663  0.7094
  198MOL    C1831932   7.539   5.523   5.834  0.3882  0.0236  0.4795
  198MOL    C1931933   7.553   5.407   5.934  0.6912 -0.2983  0.2705
  198MOL    C2031934   7.417   5.386   6.004 -0.0780 -0.1282  0.4841
  198MOL    O2131935   7.306   5.404   5.949  0.3220 -0.4956 -0.0699
  198MOL    H2231936   7.620   5.524   5.762  1.4208 -1.5820  1.5710
  198MOL    H2331937   7.456   5.514   5.765  0.4247  2.6804  0.0370
  198MOL    H2431938   7.637   5.425   6.001  0.7778  1.7638 -0.3559
  198MOL    H2531939   7.581   5.323   5.870 -0.5464 -1.0475  0.6965
  198MOL    C2631940   7.422   5.326   6.144 -0.5130 -0.2188 -0.2550
  198MOL    C2731941   7.411   5.437   6.250  0.1401  0.5878 -0.1905
  198MOL    C2831942   7.385   5.385   6.390 -0.0450  0.1866  0.1669
  198MOL    O2931943   7.453   5.417   6.486  0.0735 -0.0128 -0.1514
  198MOL    H3031944   7.514   5.282   6.183 -1.8239 -0.5196  2.6336
  198MOL    H3131945   7.347   5.249   6.161 -1.1702  1.0119  2.7246
  198MOL    H3231946   7.322   5.493   6.221 -1.3053 -1.2356  0.5782
  198MOL    H3331947   7.497   5.503   6.249 -1.2633  2.5204  1.7348
  198MOL    C3431948   7.267   5.298   6.407 -0.6513  0.1679  0.1818
  198MOL    C3531949   7.238   5.248   6.550  0.0677  1.0008  0.3359
  198MOL    C3631950   7.170   5.113   6.559  0.0059 -0.3292 -0.6793
  198MOL    O3731951   7.234   5.005   6.540  0.2307  0.1215 -0.0741
  198MOL    H3831952   7.285   5.216   6.338 -0.3261  1.3791 -1.1933
  198MOL    H3931953   7.180   5.346   6.363  0.9403  1.9433 -1.1281
  198MOL    H4031954   7.174   5.322   6.598 -0.0211 -1.1273  3.6244
  198MOL    H4131955   7.327   5.246   6.611  0.4139 -1.0499 -0.1765
  198MOL    C4231956   7.019   5.110   6.598  1.0582  0.0169  0.0675
  198MOL    C4331957   6.982   4.980   6.670 -0.5373 -0.0146  0.1423
  198MOL    C4431958   6.932   4.976   6.816 -0.5561  0.0139 -0.2639
  198MOL    O4531959   6.957   5.077   6.880 -0.0826  0.3179  0.0193
  198MOL    H4631960   6.959   5.116   6.507  0.4290  1.6166  0.5666
  198MOL    H4731961   6.993   5.199   6.655  0.0799 -0.4612  0.3913
  198MOL    H4831962   7.059   4.903   6.676 -2.1784 -1.6518  0.5709
  198MOL    H4931963   6.908   4.933   6.605 -0.9467 -1.0647  1.3450
  198MOL    C5031964   6.874   4.846   6.873 -0.0888  0.0541 -0.3900
  198MOL    C5131965   6.854   4.834   7.023 -0.3230 -0.7895  0.8638
  198MOL    C5231966   6.714   4.788   7.057  0.3256 -0.1140  0.1684
  198MOL    O5331967   6.666   4.681   7.023  0.0926  0.0653  0.1222
  198MOL    H5431968   6.944   4.772   6.834 -0.3601 -0.4753  0.1126
  198MOL    H5531969   6.779   4.825   6.823 -0.2515 -0.2383  0.0405
  198MOL    H5631970   6.875   4.934   7.061  2.2053 -1.5671  1.6548
  198MOL    H5731971   6.925   4.764   7.069  0.1033 -0.1611  1.1652
  198MOL    C5831972   6.628   4.889   7.139 -0.4555  0.0381 -0.0406
  198MOL    C5931973   6.473   4.877   7.118 -0.0790  0.5242  0.2911
  198MOL    C6031974   6.412   5.010   7.092 -0.1975  0.3587  0.2243
  198MOL    O6131975   6.455   5.115   7.135  0.0569 -0.4433 -0.4998
  198MOL    H6231976   6.658   4.992   7.122  1.8170 -0.3492  1.4896
  198MOL    H6331977   6.644   4.885   7.246  1.2171 -0.3410 -0.2970
  198MOL    H6431978   6.438   4.837   7.213  1.2906  0.7491  0.8941
  198MOL    H6531979   6.447   4.804   7.042  2.8166 -2.5471  2.1310
  198MOL    C6631980   6.289   5.003   7.000 -0.0388 -0.4520 -0.1123
  198MOL    C6731981   6.212   5.137   6.969 -0.2678 -0.0970  0.6279
  198MOL    C6831982   6.138   5.134   6.834  0.0974  0.6017  0.0220
  198MOL    O6931983   6.023   5.096   6.816 -0.9252 -0.0422 -0.1019
  198MOL    H7031984   6.225   4.935   7.057 -1.1792 -0.4857 -1.4029
  198MOL    H7131985   6.325   4.954   6.910 -2.0645 -0.5552 -0.8885
  198MOL    H7231986   6.286   5.216   6.965 -0.4658  0.1609  1.7937
  198MOL    H7331987   6.140   5.165   7.046 -2.0305  2.0885 -1.7241
  198MOL    C7431988   6.224   5.178   6.718 -0.8194  0.6087 -0.3610
  198MOL    C7531989   6.156   5.285   6.628  0.1464  0.4137  0.5509
  198MOL    C7631990   6.250   5.401   6.595  0.3233 -0.0606  0.8538
  198MOL    O7731991   6.372   5.380   6.597  0.3849  0.3325  0.1847
  198MOL    H7831992   6.242   5.088   6.660 -2.2556  2.7070 -4.2169
  198MOL    H7931993   6.322   5.210   6.755 -0.5032 -0.9409  0.1940
  198MOL    H8031994   6.059   5.321   6.661  0.4428  1.7051  0.0287
  198MOL    H8131995   6.133   5.239   6.532 -2.2522  0.7697  0.9148
  198MOL    C8231996   6.196   5.550   6.571 -0.1059 -0.4755  0.3468
  198MOL    C8331997   6.261   5.652   6.667 -0.4250 -0.1083 -0.4286
  198MOL    C8431998   6.360   5.737   6.598 -0.2027 -0.9035 -0.3907
  198MOL    O8531999   6.330   5.811   6.511  0.1036  0.2392  0.1618
  198MOL    H8632000   6.090   5.562   6.594  0.6059  2.2008  2.4333
  198MOL    H8732001   6.195   5.577   6.465  1.3992 -3.9330 -0.6222
  198MOL    H8832002   6.303   5.604   6.755  2.1633 -1.2676 -2.2418
  198MOL    H8932003   6.193   5.730   6.701  0.1880 -0.4407  1.6221
  198MOL    C9032004   6.498   5.726   6.658 -0.1539 -0.8315  0.0364
  198MOL    C9132005   6.590   5.838   6.617  1.3520  0.3363  0.2544
  198MOL    C9232006   6.688   5.856   6.733  0.0780 -0.2268 -0.5722
  198MOL    O9332007   6.745   5.756   6.791  0.4780 -0.3219 -0.0054
  198MOL    H9432008   6.546   5.630   6.639  2.3152  1.0800 -4.1376
  198MOL    H9532009   6.490   5.731   6.767 -1.0493  0.5699 -0.0839
  198MOL    H9632010   6.544   5.933   6.591  2.2494  0.4642 -0.8753
  198MOL    H9732011   6.640   5.803   6.527 -1.8785 -3.3473 -0.2617
  198MOL    C9832012   6.741   6.000   6.760 -0.2649  0.4486  0.0672
  198MOL    C9932013   6.832   6.024   6.880 -0.3161 -0.4833 -1.3137
  198MOL   C10032014   6.757   6.051   7.011  0.3197  0.5863  0.4977
  198MOL   O10132015   6.640   6.019   7.018  0.4600 -0.2637  0.3877
  198MOL   H10232016   6.662   6.073   6.746 -0.8317  0.2490  2.0070
  198MOL   H10332017   6.802   6.006   6.670  0.2060 -0.6552  0.3006
  198MOL   H10432018   6.906   6.103   6.865  0.8871 -1.3070  0.1645
  198MOL   H10532019   6.893   5.941   6.915  0.3265  0.4040 -0.2913
  198MOL   C10632020   6.839   6.114   7.122  0.5192  0.1754  0.1001
  198MOL   C10732021   6.747   6.207   7.207 -0.1830  0.5485  0.4921
  198MOL   C10832022   6.674   6.313   7.129  0.1263 -0.2242  0.7342
  198MOL   O10932023   6.725   6.350   7.024 -1.1738 -0.2358  0.2223
  198MOL   H11032024   6.919   6.175   7.082  0.5049  1.0589  1.3751
  198MOL   H11132025   6.883   6.032   7.180  2.0319  0.7531 -0.2167
  198MOL   H11232026   6.823   6.260   7.264 -0.1460  0.3462  0.6330
  198MOL   H11332027   6.680   6.145   7.267  0.2595 -1.4888 -1.0890
  198MOL   C11432028   6.544   6.358   7.179  0.6801  0.0941 -0.1934
  198MOL   C11532029   6.434   6.324   7.071 -0.9317  0.8861  0.8979
  198MOL   C11632030   6.367   6.443   7.001 -0.1418 -0.5169 -0.3591
  198MOL   O11732031   6.299   6.521   7.073  0.3688 -0.3586  0.0497
  198MOL   H11832032   6.548   6.464   7.201  0.7139 -0.0114  0.3123
  198MOL   H11932033   6.529   6.315   7.278 -0.3014 -1.5921 -1.0331
  198MOL   H12032034   6.348   6.275   7.116 -1.5290  0.7654 -0.3375
  198MOL   H12132035   6.455   6.247   6.998  2.3881  0.5452  2.1281
  198MOL   C12232036   6.370   6.452   6.854  0.2168 -0.2529 -0.3922
  198MOL   C12332037   6.295   6.583   6.796  0.4617 -0.0968  0.0374
  198MOL   C12432038   6.360   6.633   6.663 -0.3451  0.2379 -0.1406
  198MOL   O12532039   6.449   6.570   6.610  0.5802 -0.0148  0.1743
  198MOL   H12632040   6.309   6.368   6.820  0.5840 -1.0463  0.8875
  198MOL   H12732041   6.472   6.454   6.817 -0.1987 -0.3357 -1.5883
  198MOL   H12832042   6.281   6.667   6.864 -1.3408 -0.5283  0.2162
  198MOL   H12932043   6.194   6.549   6.775  0.5953 -0.3892 -0.1414
  198MOL   C13032044   6.310   6.752   6.593 -0.4291  0.6738  0.3092
  198MOL   C13132045   6.353   6.781   6.446 -0.3803 -0.4474  0.5366
  198MOL   C13232046   6.262   6.724   6.335 -0.4924 -0.5156  1.1209
  198MOL   O13332047   6.149   6.676   6.358  0.4316 -0.0820 -0.1649
  198MOL   H13432048   6.333   6.836   6.658 -1.3023  1.3521 -0.2431
  198MOL   H13532049   6.201   6.746   6.601 -0.6325 -0.0737 -2.3655
  198MOL   H13632050   6.457   6.747   6.441 -0.0711  0.6486 -0.7771
  198MOL   H13732051   6.373   6.887   6.427 -0.7231 -0.5335 -0.3056
  198MOL   C13832052   6.311   6.742   6.187  0.5672  0.3608 -0.3068
  198MOL   C13932053   6.391   6.618   6.134  0.1054  0.2389  0.1976
  198MOL   C14032054   6.543   6.643   6.154 -0.3414  0.7493  0.3398
  198MOL   O14132055   6.581   6.713   6.245  0.6703  0.5102 -0.0619
  198MOL   H14232056   6.365   6.837   6.183 -3.4651  2.6649 -2.2218
  198MOL   H14332057   6.222   6.759   6.126 -0.0589  1.5122  0.9158
  198MOL   H14432058   6.367   6.594   6.031 -2.2733  2.1471  0.2721
  198MOL   H14532059   6.367   6.533   6.199 -0.0088 -0.3094 -0.5641
  198MOL   C14632060   6.640   6.563   6.065 -0.4774  0.0118  0.3734
  198MOL   C14732061   6.758   6.651   6.018 -0.0372 -0.6116  0.1190
  198MOL   C14832062   6.893   6.602   6.072 -0.4510  0.0130  0.3716
  198MOL   O14932063   6.904   6.527   6.170  0.1916  0.2201 -0.5731
  198MOL   H15032064   6.588   6.539   5.972 -0.5802  1.8049 -0.0439
  198MOL   H15132065   6.673   6.465   6.100  2.8387  1.0095  0.2104
  198MOL   H15232066   6.756   6.759   6.032  0.3378 -0.7260  1.0601
  198MOL   H15332067   6.775   6.640   5.911 -0.8841 -3.4072  0.2315
  198MOL   C15432068   7.025   6.649   6.000 -0.2951 -0.0951 -0.0454
  198MOL   C15532069   7.147   6.642   6.093 -0.2518 -0.5717  0.5991
  198MOL   C15632070   7.154   6.751   6.192 -0.7277  0.7848 -0.0653
  198MOL   O15732071   7.162   6.868   6.151  0.0372  0.0991 -0.2066
  198MOL   H15832072   7.008   6.744   5.951  1.2009 -0.4064 -1.1778
  198MOL   H15932073   7.039   6.578   5.919  1.6632  1.3805 -1.0319
  198MOL   H16032074   7.243   6.651   6.042 -0.4416  1.1352  0.5259
  198MOL   H16132075   7.149   6.549   6.150 -1.5348 -1.8187 -1.3120
  198MOL   H16232076   7.143   6.733   6.299  0.9648  0.4608  0.0690
  199MOL     C132077   2.316   3.829   4.530 -0.1923 -0.1503 -0.5556
  199MOL     C232078   2.386   3.707   4.485 -1.0409 -0.1267  0.0907
  199MOL     C332079   2.484   3.726   4.369 -0.0916 -0.7330 -1.0957
  199MOL     O432080   2.444   3.805   4.282 -0.2914 -0.5781  0.4583
  199MOL     H532081   2.392   3.901   4.560 -0.5771 -0.9150  2.4210
  199MOL     H632082   2.257   3.876   4.451  0.4912  0.5356 -0.6635
  199MOL     H732083   2.304   3.639   4.463  1.3764 -1.9676 -3.7036
  199MOL     H832084   2.440   3.666   4.571 -1.9971 -0.8207  0.3721
  199MOL     H932085   2.245   3.827   4.614 -1.8802 -3.6904 -1.9704
  199MOL    C1032086   2.622   3.652   4.355  0.8394 -0.1757 -0.1240
  199MOL    C1132087   2.610   3.529   4.265 -0.2675 -0.1576  0.2397
  199MOL    C1232088   2.700   3.413   4.294  0.0012 -0.3965  0.2601
  199MOL    O1332089   2.792   3.412   4.377  0.4744 -0.1728  0.2199
  199MOL    H1432090   2.663   3.620   4.450 -0.1305  2.4216  1.2222
  199MOL    H1532091   2.689   3.719   4.302 -2.1401  2.0580 -1.2123
  199MOL    H1632092   2.640   3.563   4.166  1.4962  0.0650  0.8405
  199MOL    H1732093   2.511   3.485   4.251  0.7386 -2.3788  0.0166
  199MOL    C1832094   2.684   3.294   4.195 -0.0498 -0.2579 -0.6892
  199MOL    C1932095   2.587   3.180   4.240  0.2289 -0.0081  0.6557
  199MOL    C2032096   2.625   3.040   4.206 -0.7544 -0.1064 -0.1030
  199MOL    O2132097   2.735   3.012   4.161  0.2279  0.4599  0.4643
  199MOL    H2232098   2.784   3.253   4.182 -1.1105 -2.4754 -2.3350
  199MOL    H2332099   2.653   3.328   4.096  0.6660  0.8695 -0.5339
  199MOL    H2432100   2.491   3.200   4.191  0.8472 -0.9034 -0.9774
  199MOL    H2532101   2.571   3.190   4.347 -0.8415 -0.0176  0.5088
  199MOL    C2632102   2.552   2.925   4.272 -0.3329 -0.0623 -0.3205
  199MOL    C2732103   2.409   2.911   4.212  0.3069  0.5453  0.4860
  199MOL    C2832104   2.352   2.773   4.199 -0.5539  0.7704 -0.3583
  199MOL    O2932105   2.417   2.673   4.232  0.3933 -0.3613  0.5114
  199MOL    H3032106   2.565   2.935   4.380  1.6935  0.0754 -0.5610
  199MOL    H3132107   2.613   2.837   4.250  0.0216 -0.1627  1.0019
  199MOL    H3232108   2.412   2.953   4.112  1.6951  0.7277  0.5901
  199MOL    H3332109   2.340   2.980   4.259  0.7902  0.5493  1.2025
  199MOL    C3432110   2.217   2.770   4.132 -0.1610 -0.6124  0.2678
  199MOL    C3532111   2.219   2.780   3.979  0.3206  0.1445  0.3523
  199MOL    C3632112   2.115   2.688   3.909 -0.0019 -0.8441 -0.6020
  199MOL    O3732113   1.999   2.728   3.897  0.0646  0.0096 -0.4789
  199MOL    H3832114   2.149   2.845   4.173  0.6199  1.4566 -2.1102
  199MOL    H3932115   2.181   2.670   4.157  0.2685 -0.8010  0.1311
  199MOL    H4032116   2.325   2.765   3.957  0.3203  1.5270 -0.6984
  199MOL    H4132117   2.213   2.887   3.958 -1.5172  0.1060  0.6402
  199MOL    C4232118   2.164   2.546   3.863  0.2016 -0.1023 -0.1343
  199MOL    C4332119   2.050   2.467   3.783  0.6761 -0.6720  0.7223
  199MOL    C4432120   2.085   2.469   3.638 -0.1297 -0.2266  0.2871
  199MOL    O4532121   2.104   2.574   3.580 -0.3185  0.6499 -0.6794
  199MOL    H4632122   2.196   2.484   3.947 -1.4620 -1.8054 -0.7060
  199MOL    H4732123   2.254   2.558   3.804  0.8872 -1.0252  0.7028
  199MOL    H4832124   1.949   2.507   3.790  0.5894 -1.0586  1.7645
  199MOL    H4932125   2.044   2.364   3.817  0.6308 -0.1270  2.4179
  199MOL    C5032126   2.078   2.340   3.556  0.2528 -0.0519  0.2088
  199MOL    C5132127   2.139   2.362   3.414 -0.5144  0.2328  0.1988
  199MOL    C5232128   2.033   2.373   3.311 -0.5139  0.0608 -0.0992
  199MOL    O5332129   1.915   2.356   3.340  0.1647  0.1002 -0.0726
  199MOL    H5432130   1.973   2.312   3.557  0.4454 -0.7816  0.7204
  199MOL    H5532131   2.131   2.269   3.620  0.6566 -0.0033 -0.0675
  199MOL    H5632132   2.193   2.272   3.385  1.0809  1.1650  0.2116
  199MOL    H5732133   2.215   2.440   3.405  0.9279 -1.3129 -1.3506
  199MOL    C5832134   2.078   2.415   3.174  0.8524  0.0349 -0.2497
  199MOL    C5932135   2.122   2.560   3.159 -0.2674  0.0659 -0.1965
  199MOL    C6032136   2.036   2.638   3.062 -0.0409  0.0238  0.2801
  199MOL    O6132137   1.920   2.605   3.029  0.1444 -0.5202 -0.0290
  199MOL    H6232138   1.998   2.394   3.104 -0.3552 -1.2719  1.4750
  199MOL    H6332139   2.162   2.353   3.141 -0.7586 -2.0715 -0.4616
  199MOL    H6432140   2.226   2.549   3.130 -0.0391  0.1482  0.5828
  199MOL    H6532141   2.133   2.612   3.254 -1.2981  0.1428 -0.1119
  199MOL    C6632142   2.109   2.752   3.003 -0.0539  0.0077 -0.9948
  199MOL    C6732143   2.015   2.859   2.943 -1.2251 -0.4945  0.0351
  199MOL    C6832144   2.098   2.970   2.873 -0.3331 -0.4578  0.1548
  199MOL    O6932145   2.221   2.977   2.883 -0.1272  0.0282  0.2625
  199MOL    H7032146   2.169   2.711   2.922  0.5150 -0.6789 -0.2346
  199MOL    H7132147   2.171   2.803   3.076  0.6918  1.6766 -2.7541
  199MOL    H7232148   1.957   2.911   3.019 -1.8031  2.1375 -2.1369
  199MOL    H7332149   1.943   2.817   2.872 -0.7704  1.6870 -1.7433
  199MOL    C7432150   2.024   3.084   2.798  0.3544 -0.2260 -0.4232
  199MOL    C7532151   2.114   3.202   2.759  0.1724  0.4243  0.0802
  199MOL    C7632152   2.145   3.197   2.607 -0.3554  0.0743 -0.0355
  199MOL    O7732153   2.085   3.123   2.531 -0.9798  0.6966 -0.2625
  199MOL    H7832154   1.952   3.127   2.868 -0.2702  0.1490 -1.2967
  199MOL    H7932155   1.957   3.045   2.722  0.5754  0.1646 -0.8126
  199MOL    H8032156   2.206   3.210   2.816  0.7508  2.9093 -1.1267
  199MOL    H8132157   2.059   3.287   2.799 -0.7618 -0.1483  0.0223
  199MOL    C8232158   2.243   3.291   2.556  0.3933  0.6221  1.2637
  199MOL    C8332159   2.277   3.280   2.408  0.0676 -0.3408  0.3973
  199MOL    C8432160   2.364   3.396   2.352  0.5017  0.3715  0.4805
  199MOL    O8532161   2.399   3.487   2.422 -0.2595 -0.2373 -0.9243
  199MOL    H8632162   2.337   3.286   2.610  1.1097 -0.7779 -0.0518
  199MOL    H8732163   2.201   3.391   2.567  0.4801  0.6744  1.1269
  199MOL    H8832164   2.185   3.292   2.351 -1.1849 -0.4233  2.3479
  199MOL    H8932165   2.319   3.184   2.377  2.3353  1.1488 -1.3379
  199MOL    C9032166   2.389   3.397   2.200  0.4679  0.4202 -0.1480
  199MOL    C9132167   2.462   3.523   2.143  1.0396  0.6718  0.0637
  199MOL    C9232168   2.412   3.571   2.000  0.0649  0.1841 -0.3450
  199MOL    O9332169   2.322   3.513   1.937  0.0687 -0.5108 -0.7367
  199MOL    H9432170   2.292   3.402   2.150 -0.4973 -1.6505  1.4681
  199MOL    H9532171   2.442   3.312   2.158  0.0853  0.2331 -0.2549
  199MOL    H9632172   2.560   3.484   2.115  0.8246  0.8218 -0.9312
  199MOL    H9732173   2.483   3.605   2.211 -0.1418  0.1679  1.0490
  199MOL    C9832174   2.470   3.701   1.949  0.5438  0.6187 -0.1697
  199MOL    C9932175   2.372   3.773   1.856 -0.1742  0.3824  0.1972
  199MOL   C10032176   2.389   3.736   1.706 -0.2753 -0.1298 -0.0387
  199MOL   O10132177   2.496   3.691   1.655 -0.0563 -0.3693  0.0442
  199MOL   H10232178   2.568   3.679   1.905  1.5296  0.8946  1.8478
  199MOL   H10332179   2.498   3.755   2.040  1.5875 -1.8342  1.0010
  199MOL   H10432180   2.399   3.877   1.878  0.3189  0.3388 -0.1887
  199MOL   H10532181   2.268   3.768   1.887 -0.1917 -0.1296  0.0586
  199MOL   C10632182   2.266   3.748   1.617  0.3765 -0.1681  0.4546
  199MOL   C10732183   2.168   3.625   1.611  0.8627 -0.7195 -0.3789
  199MOL   C10832184   2.220   3.520   1.518 -0.5817  0.6234 -0.0718
  199MOL   O10932185   2.313   3.540   1.436 -0.3361  0.2741 -0.1124
  199MOL   H11032186   2.284   3.772   1.513 -1.5859  0.3539  0.2172
  199MOL   H11132187   2.213   3.835   1.655  1.1019 -0.5162  2.3162
  199MOL   H11232188   2.066   3.645   1.577  0.9773  0.0302 -0.2919
  199MOL   H11332189   2.156   3.580   1.710 -0.7533  0.2808 -0.1017
  199MOL   C11432190   2.159   3.383   1.527 -0.0123 -0.4623 -0.6579
  199MOL   C11532191   2.151   3.314   1.389 -0.0385  0.5808 -0.1760
  199MOL   C11632192   2.070   3.184   1.376 -0.0502  0.2162  0.8557
  199MOL   O11732193   1.996   3.148   1.467 -0.7753 -0.5841  0.1442
  199MOL   H11832194   2.064   3.373   1.580 -0.3963 -1.4937 -1.5218
  199MOL   H11932195   2.229   3.316   1.578  1.5468  0.5549 -1.4280
  199MOL   H12032196   2.255   3.285   1.373 -0.4725 -1.3302  0.3000
  199MOL   H12132197   2.123   3.388   1.313  1.0699  1.3815  0.1946
  199MOL   C12232198   2.097   3.093   1.255  0.9374 -0.5107 -0.0466
  199MOL   C12332199   2.018   2.962   1.250  0.0497  0.0399  0.1401
  199MOL   C12432200   1.960   2.929   1.117  0.6838  0.1282 -0.4280
  199MOL   O12532201   2.007   2.974   1.017  0.4776  0.0059  0.1170
  199MOL   H12632202   2.205   3.094   1.246  0.9765  1.1759  0.5014
  199MOL   H12732203   2.061   3.153   1.171  1.1002 -1.1148 -0.5529
  199MOL   H12832204   1.933   2.958   1.318  0.3260  1.3013  0.5720
  199MOL   H12932205   2.073   2.876   1.291 -0.0957  1.2437  2.9636
  199MOL   C13032206   1.848   2.833   1.113 -0.0531 -0.3492  0.4139
  199MOL   C13132207   1.878   2.682   1.141 -0.0391 -0.1666  0.2977
  199MOL   C13232208   1.887   2.605   1.011 -0.1573  1.0105 -0.1234
  199MOL   O13332209   1.871   2.662   0.904 -0.0090  0.7006  0.0583
  199MOL   H13432210   1.817   2.843   1.010 -0.9796 -0.4271  0.6829
  199MOL   H13532211   1.762   2.877   1.164  1.7221  2.0921  1.4340
  199MOL   H13632212   1.802   2.642   1.209 -1.4708  0.7371 -0.7433
  199MOL   H13732213   1.976   2.665   1.186  0.4488  1.6645 -0.0375
  199MOL   C13832214   1.914   2.455   1.021  0.1329  0.8027 -0.5439
  199MOL   C13932215   1.948   2.388   0.888  0.3468  0.2802 -0.3379
  199MOL   C14032216   1.821   2.327   0.823 -0.3909  0.0353  0.5213
  199MOL   O14132217   1.716   2.314   0.884  0.0655  0.2352 -0.1485
  199MOL   H14232218   1.825   2.418   1.071  0.9319 -1.3635 -0.6521
  199MOL   H14332219   1.998   2.458   1.091  0.9626  0.0097 -1.4874
  199MOL   H14432220   2.011   2.302   0.912 -1.2446 -0.9832 -0.5962
  199MOL   H14532221   1.995   2.453   0.814 -0.0111 -0.1003 -0.8971
  199MOL   C14632222   1.844   2.271   0.685 -0.5336  0.6804 -0.5722
  199MOL   C14732223   1.710   2.246   0.611 -1.0458  0.1303 -0.4479
  199MOL   C14832224   1.719   2.293   0.460 -0.5561 -0.6455 -0.1533
  199MOL   O14932225   1.826   2.315   0.402 -0.4555  0.0696 -0.4485
  199MOL   H15032226   1.900   2.178   0.683  0.9328  1.5271 -0.3613
  199MOL   H15132227   1.910   2.339   0.631 -1.3503  0.2785 -2.1059
  199MOL   H15232228   1.633   2.309   0.655 -0.3914  0.9915 -0.5156
  199MOL   H15332229   1.676   2.143   0.611  0.6071 -0.4344 -0.0176
  199MOL   C15432230   1.590   2.300   0.386  0.6720 -0.1682  1.2330
  199MOL   C15532231   1.613   2.305   0.236  0.6142  0.3652  0.8229
  199MOL   C15632232   1.541   2.198   0.154  0.0762  1.3367  0.0291
  199MOL   O15732233   1.449   2.135   0.199  0.2186 -0.2587 -0.5382
  199MOL   H15832234   1.545   2.397   0.409 -0.3476 -0.5103  0.6999
  199MOL   H15932235   1.525   2.223   0.425  1.8854 -2.2635 -0.7463
  199MOL   H16032236   1.717   2.295   0.205  0.5485 -2.9753  1.4792
  199MOL   H16132237   1.563   2.396   0.204  1.1445  0.5865  0.6215
  199MOL   H16232238   1.577   2.186   0.052  0.3639  0.2589  0.2484
  200MOL     C132239   7.484   7.248   4.375 -0.2158 -0.0084 -0.2778
  200MOL     C232240   7.357   7.329   4.343 -0.1809  0.1795 -0.6264
  200MOL     C332241   7.233   7.275   4.422 -0.0563  0.8046  0.8621
  200MOL     O432242   7.137   7.244   4.360 -0.0946  0.4896 -0.0270
  200MOL     H532243   7.559   7.271   4.300 -0.5360  2.3133  0.0845
  200MOL     H632244   7.518   7.283   4.473  1.4304 -0.3848 -0.7107
  200MOL     H732245   7.338   7.330   4.236  1.3638  3.4860 -0.9095
  200MOL     H832246   7.374   7.435   4.361 -0.2734 -0.0136  0.6327
  200MOL     H932247   7.463   7.141   4.380  2.8900 -0.5966  1.1213
  200MOL    C1032248   7.231   7.268   4.568 -0.9920  0.4017  0.1049
  200MOL    C1132249   7.257   7.123   4.622  0.4549 -0.1168  0.5355
  200MOL    C1232250   7.232   7.117   4.772 -0.2998 -0.7583  0.7611
  200MOL    O1332251   7.155   7.187   4.832  0.2053 -0.6358 -0.2542
  200MOL    H1432252   7.133   7.297   4.607 -1.8773 -0.1968 -1.6206
  200MOL    H1532253   7.305   7.338   4.607 -1.1242 -0.3357  1.6913
  200MOL    H1632254   7.359   7.091   4.603  0.1635 -0.8595  0.2249
  200MOL    H1732255   7.190   7.062   4.563  0.2741  0.7586 -0.1757
  200MOL    C1832256   7.334   7.037   4.849 -0.7969  0.1822  0.2886
  200MOL    C1932257   7.286   7.004   4.990 -0.9620  0.0084 -0.6023
  200MOL    C2032258   7.413   6.990   5.082  0.0661  0.2041  0.1628
  200MOL    O2132259   7.516   7.055   5.065  0.4190  0.7219 -0.4470
  200MOL    H2232260   7.430   7.088   4.844 -0.6537 -0.2143 -1.4513
  200MOL    H2332261   7.362   6.949   4.791  0.9025  1.2302 -0.4936
  200MOL    H2432262   7.225   6.914   4.991 -1.9323  0.6681  1.3271
  200MOL    H2532263   7.218   7.077   5.033  0.8718 -0.6098  3.5737
  200MOL    C2632264   7.407   6.893   5.198  1.0458  0.5434 -0.6572
  200MOL    C2732265   7.508   6.933   5.316 -0.6973 -0.0560  0.1153
  200MOL    C2832266   7.472   6.887   5.458 -0.5781 -0.0109  0.2109
  200MOL    O2932267   7.359   6.889   5.493  0.2871 -0.0011  0.3207
  200MOL    H3032268   7.434   6.796   5.156  0.9522  0.5232 -0.6681
  200MOL    H3132269   7.305   6.881   5.234  1.5630  0.3108  0.7922
  200MOL    H3232270   7.536   7.038   5.321  0.8117 -0.5375  2.8378
  200MOL    H3332271   7.593   6.878   5.276 -0.3964  0.0134  0.6586
  200MOL    C3432272   7.585   6.869   5.554 -0.5689  0.1600  0.1714
  200MOL    C3532273   7.625   6.721   5.576  0.0362  0.6667 -0.5301
  200MOL    C3632274   7.721   6.658   5.482 -1.0904  0.2945 -0.1295
  200MOL    O3732275   7.764   6.716   5.384 -0.3602 -0.3495  0.6560
  200MOL    H3832276   7.567   6.913   5.652 -1.1186 -0.7013  0.4572
  200MOL    H3932277   7.680   6.921   5.539  0.3011 -0.8336  2.0533
  200MOL    H4032278   7.530   6.668   5.583  0.5152 -0.0998  0.1756
  200MOL    H4132279   7.653   6.688   5.676 -1.3774 -2.3165 -1.0861
  200MOL    C4232280   7.775   6.513   5.519 -0.7079 -0.1184  0.3512
  200MOL    C4332281   7.827   6.434   5.390 -0.0499  0.8972  0.4885
  200MOL    C4432282   7.772   6.290   5.373  0.1031 -0.6533  0.0718
  200MOL    O4532283   7.669   6.246   5.427 -0.5552  0.0202  0.2375
  200MOL    H4632284   7.706   6.460   5.585 -0.8155 -0.0517  0.2942
  200MOL    H4732285   0.003   6.527   5.582  0.4115  0.4047 -1.2575
  200MOL    H4832286   0.073   6.437   5.363  0.0084  2.6426  0.8494
  200MOL    H4932287   7.777   6.488   5.309 -1.4891 -1.4494 -0.2274
  200MOL    C5032288   0.002   6.199   5.285 -0.6827 -0.3057 -0.2583
  200MOL    C5132289   7.794   6.067   5.237 -0.4321  0.7004  0.2861
  200MOL    C5232290   7.707   6.093   5.112 -0.3843 -0.6634  0.0417
  200MOL    O5332291   7.647   6.200   5.090 -0.3087  0.0960  0.0518
  200MOL    H5432292   0.077   6.160   5.354  0.9668  1.3237 -1.0836
  200MOL    H5532293   0.064   6.248   5.209 -0.1063 -0.6958 -0.0463
  200MOL    H5632294   7.718   6.032   5.307  0.4227 -1.7956  0.0086
  200MOL    H5732295   0.003   5.983   5.227 -1.3210 -0.0713  0.6439
  200MOL    C5832296   7.725   5.997   4.999 -0.0822  0.2909 -0.3285
  200MOL    C5932297   7.827   6.052   4.896  0.4067  0.2973 -0.2520
  200MOL    C6032298   0.109   5.999   4.910  0.1983  0.1579  0.1458
  200MOL    O6132299   0.174   6.004   5.012 -0.2537  0.5811  0.1254
  200MOL    H6232300   7.628   5.982   4.952 -0.8588  0.7934  1.0804
  200MOL    H6332301   7.756   5.901   5.042 -1.6388  0.3593  1.0031
  200MOL    H6432302   7.843   6.159   4.911 -2.1811  0.6747 -0.0159
  200MOL    H6532303   7.784   6.029   4.798 -0.5179  0.2543  0.1616
  200MOL    C6632304   0.155   5.931   4.783 -0.1933  0.1322  0.3922
  200MOL    C6732305   0.284   5.844   4.809  0.1497  0.3398  0.6339
  200MOL    C6832306   0.251   5.705   4.864 -0.0794  0.3523  0.1197
  200MOL    O6932307   0.142   5.674   4.915 -0.3781  0.0948 -0.0063
  200MOL    H7032308   0.169   6.001   4.700 -0.4926 -3.0757 -2.4838
  200MOL    H7132309   0.078   5.858   4.759  0.6205 -0.5655 -0.1545
  200MOL    H7232310   0.349   5.887   4.885  0.6063 -0.3034  0.6200
  200MOL    H7332311   0.350   5.815   4.727  1.6384  0.6064  1.7120
  200MOL    C7432312   0.359   5.599   4.868  0.2591  0.1974  0.3491
  200MOL    C7532313   0.324   5.474   4.961 -0.0026 -0.0116  1.0603
  200MOL    C7632314   0.272   5.357   4.878  0.5307  0.2424  0.3055
  200MOL    O7732315   0.347   5.275   4.831 -0.2810 -0.8363  0.0416
  200MOL    H7832316   0.447   5.647   4.912  1.3700 -1.8961  0.4803
  200MOL    H7932317   0.397   5.579   4.768 -0.0946  0.2758  0.1974
  200MOL    H8032318   0.254   5.486   5.044  2.3835  0.9187  2.9625
  200MOL    H8132319   0.414   5.427   4.999 -1.4522 -2.3021  1.8107
  200MOL    C8232320   0.125   5.355   4.843  0.1624  0.7270  0.0924
  200MOL    C8332321   0.091   5.405   4.704  0.5609  0.7285  0.2610
  200MOL    C8432322   7.838   5.331   4.629 -0.8327  0.2866 -0.0815
  200MOL    O8532323   7.738   5.285   4.680 -0.1006 -0.4101 -0.3218
  200MOL    H8632324   0.065   5.400   4.922 -1.5204  1.1882 -1.4093
  200MOL    H8732325   0.092   5.251   4.844  0.7660  0.5225 -0.6515
  200MOL    H8832326   0.179   5.404   4.640 -0.9169  1.0182 -1.7991
  200MOL    H8932327   0.066   5.509   4.723  0.0075  0.3373  1.7891
  200MOL    C9032328   0.003   5.301   4.477 -0.9242  0.1158 -0.4927
  200MOL    C9132329   7.727   5.279   4.406  0.0889 -1.1429 -0.0615
  200MOL    C9232330   7.755   5.301   4.255 -0.0545 -0.4056  0.0967
  200MOL    O9332331   7.774   5.204   4.188  0.2230 -0.4459  0.3535
  200MOL    H9432332   0.064   5.213   4.459  0.6202  0.4194  2.9543
  200MOL    H9532333   0.055   5.382   4.427 -1.7681  1.0390  0.0812
  200MOL    H9632334   7.648   5.351   4.427 -0.3402 -1.9794  1.2040
  200MOL    H9732335   7.689   5.177   4.411 -0.3671 -0.9750 -0.0916
  200MOL    C9832336   7.755   5.442   4.193 -0.0812  0.5757  0.3411
  200MOL    C9932337   7.634   5.448   4.099  0.7961 -0.2840  0.4430
  200MOL   C10032338   7.530   5.561   4.133  0.6405  0.0271 -0.5611
  200MOL   O10132339   7.557   5.656   4.204 -0.0806  0.1607  0.0286
  200MOL   H10232340   7.843   5.459   4.132 -0.5585  2.3481  0.1179
  200MOL   H10332341   7.749   5.518   4.272  0.6233 -1.7108  2.6589
  200MOL   H10432342   7.576   5.355   4.102  1.1084 -0.5705 -1.6449
  200MOL   H10532343   7.676   5.458   4.000  0.4505  0.0223  0.3266
  200MOL   C10632344   7.398   5.553   4.060  0.2638  0.0585 -0.0126
  200MOL   C10732345   7.393   5.662   3.953  0.0426 -0.0495 -0.0303
  200MOL   C10832346   7.304   5.785   3.995 -0.2354 -0.0967 -0.0889
  200MOL   O10932347   7.217   5.778   4.082 -0.1191 -0.3514  0.1365
  200MOL   H11032348   7.324   5.563   4.140  3.0154 -0.9268  2.7370
  200MOL   H11132349   7.396   5.453   4.016  0.5435 -0.9087  2.1012
  200MOL   H11232350   7.334   5.615   3.874 -0.4789 -2.1206  1.5219
  200MOL   H11332351   7.496   5.687   3.928 -0.3677 -0.2226 -1.9591
  200MOL   C11432352   7.328   5.913   3.912 -0.1755  0.4921 -0.0881
  200MOL   C11532353   7.230   5.937   3.799 -0.4212 -0.3990  0.7210
  200MOL   C11632354   7.304   5.900   3.675  0.0496 -0.1694 -0.8669
  200MOL   O11732355   7.382   5.979   3.619 -0.9699  0.7572 -0.0200
  200MOL   H11832356   7.435   5.910   3.888 -0.1086 -1.2506  0.3580
  200MOL   H11932357   7.318   5.995   3.982 -0.2316 -0.5304  1.1255
  200MOL   H12032358   7.190   6.038   3.792 -1.2131 -0.7270  0.4934
  200MOL   H12132359   7.136   5.882   3.811  0.4237 -1.6519  1.8833
  200MOL   C12232360   7.287   5.757   3.618  0.4505  0.0081  0.7317
  200MOL   C12332361   7.320   5.761   3.464  0.4270 -0.0248 -0.2720
  200MOL   C12432362   7.416   5.657   3.424  0.3340  0.2989 -0.3725
  200MOL   O12532363   7.503   5.615   3.495 -0.0264 -0.1493 -0.5469
  200MOL   H12632364   7.185   5.721   3.631  0.2778  0.1435 -0.2505
  200MOL   H12732365   7.356   5.683   3.659  1.0877  0.6337  0.8055
  200MOL   H12832366   7.373   5.852   3.434  0.8502 -0.1570  0.0740
  200MOL   H12932367   7.230   5.763   3.403  0.7527  0.0518 -0.7447
  200MOL   C13032368   7.403   5.613   3.278 -0.7441  0.1955 -0.1875
  200MOL   C13132369   7.527   5.526   3.235  0.2555  0.1573 -0.6452
  200MOL   C13232370   7.494   5.385   3.204  0.6457  0.1661  0.9631
  200MOL   O13332371   7.423   5.312   3.272  0.0784 -0.1735  0.5732
  200MOL   H13432372   7.401   5.700   3.213 -2.2737 -0.7096 -1.3936
  200MOL   H13532373   7.307   5.562   3.267  0.8554 -3.3274  1.1145
  200MOL   H13632374   7.609   5.527   3.307  1.1826  0.9282 -1.6994
  200MOL   H13732375   7.566   5.571   3.144  0.0891  0.1746 -0.7084
  200MOL   C13832376   7.530   5.349   3.056  0.8661  0.2164  0.0191
  200MOL   C13932377   7.517   5.203   3.019 -0.6297 -0.4305 -0.0904
  200MOL   C14032378   7.388   5.173   2.935  0.1217  0.5412  0.1829
  200MOL   O14132379   7.306   5.265   2.913 -0.3694  0.0577  0.2055
  200MOL   H14232380   7.635   5.376   3.053  0.0437  3.3565 -2.0585
  200MOL   H14332381   7.485   5.406   2.975  0.7981 -0.6478 -0.5555
  200MOL   H14432382   7.534   5.132   3.100  1.7643 -3.4005 -3.0382
  200MOL   H14532383   7.596   5.185   2.946  0.4659  1.2076  0.6515
  200MOL   C14632384   7.373   5.028   2.882 -0.8451  0.7812  0.6074
  200MOL   C14732385   7.242   5.006   2.814  0.3406  0.1954 -0.1128
  200MOL   C14832386   7.151   4.918   2.896 -0.3328  0.0663 -0.3522
  200MOL   O14932387   7.179   4.890   3.011 -0.0109  0.1158  0.1225
  200MOL   H15032388   7.377   4.967   2.972 -0.0271 -1.0707 -0.6578
  200MOL   H15132389   7.459   5.002   2.820 -1.2452 -1.6817  1.0472
  200MOL   H15232390   7.276   4.963   2.720  0.4974 -1.3103  0.6287
  200MOL   H15332391   7.191   5.100   2.793 -2.0713 -1.4436 -1.8480
  200MOL   C15432392   7.034   4.854   2.825  0.6780  0.4788 -0.7751
  200MOL   C15532393   6.910   4.839   2.918 -0.9709 -0.0997 -0.6533
  200MOL   C15632394   6.818   4.957   2.895  0.0409 -0.9534  0.2248
  200MOL   O15732395   6.831   5.064   2.960  0.5895  0.6459  0.1129
  200MOL   H15832396   7.061   4.757   2.784 -2.8509 -1.0868  0.4810
  200MOL   H15932397   7.011   4.923   2.744 -1.8663  0.1281 -0.3616
  200MOL   H16032398   6.950   4.827   3.018  0.7833  0.8569 -1.2111
  200MOL   H16132399   6.863   4.742   2.900 -0.2612 -0.9373  1.7866
  200MOL   H16232400   6.741   4.948   2.819 -0.9863  0.6939  1.0479
  201MOL     C132401   7.299   1.186   3.884  0.5514 -0.1590 -0.2678
  201MOL     C232402   7.399   1.092   3.945  0.5864 -0.2709 -0.4369
  201MOL     C332403   7.463   1.149   4.068 -0.1587  0.1279  0.1684
  201MOL     O432404   7.503   1.268   4.061 -0.0874 -0.0925  0.0202
  201MOL     H532405   7.316   1.195   3.776 -2.0550  1.1421 -0.6214
  201MOL     H632406   7.194   1.158   3.894 -0.0882  1.4381 -2.0554
  201MOL     H732407   7.479   1.065   3.877  0.3238 -0.6888 -0.5825
  201MOL     H832408   7.338   1.011   3.987 -0.3416  1.3063  1.3610
  201MOL     H932409   7.308   1.290   3.917 -0.3095 -0.2661  0.3211
  201MOL    C1032410   7.454   1.075   4.203  0.1690  0.5732  0.3127
  201MOL    C1132411   7.517   1.150   4.324  0.3163  0.8988  0.1286
  201MOL    C1232412   7.582   1.052   4.429  0.1613 -1.0455  0.0054
  201MOL    O1332413   7.700   1.010   4.413  0.4709 -0.1962 -0.4166
  201MOL    H1432414   7.515   0.988   4.179  1.2886  1.1649  0.9395
  201MOL    H1532415   7.352   1.044   4.225  0.4153 -1.0988 -0.8134
  201MOL    H1632416   7.442   1.212   4.373 -3.0890 -1.1880 -2.2725
  201MOL    H1732417   7.603   1.208   4.290 -0.6681  2.0458 -0.4341
  201MOL    C1832418   7.500   1.023   4.557  0.3266  0.4334 -0.3164
  201MOL    C1932419   7.593   1.004   4.677 -0.3576 -0.0343 -0.1355
  201MOL    C2032420   7.627   0.863   4.707 -0.2563  0.3665 -0.2344
  201MOL    O2132421   7.539   0.780   4.727  0.4102  0.3211 -0.1505
  201MOL    H2232422   7.433   0.938   4.541  0.2881 -0.0822  2.3503
  201MOL    H2332423   7.444   1.114   4.578 -0.8275 -0.5670  1.0718
  201MOL    H2432424   7.534   1.051   4.755  1.1000  1.8488 -0.1024
  201MOL    H2532425   7.692   1.050   4.674  0.2992 -1.4110 -0.0242
  201MOL    C2632426   7.783   0.825   4.725  0.3271 -0.1435 -0.4746
  201MOL    C2732427   7.797   0.704   4.829 -0.5583 -0.0710  0.3487
  201MOL    C2832428   7.775   0.747   4.973 -1.4351 -0.0369  0.1345
  201MOL    O2932429   7.762   0.868   4.992 -0.0910 -0.7378  0.2588
  201MOL    H3032430   7.832   0.906   4.778  1.6235 -1.6392  0.6755
  201MOL    H3132431   7.824   0.808   4.626  0.0720 -1.5848 -0.3398
  201MOL    H3232432   0.039   0.668   4.811  0.0581  2.2917 -1.1219
  201MOL    H3332433   7.733   0.621   4.801  0.7311 -1.2097  0.6858
  201MOL    C3432434   7.778   0.636   5.086  0.1619 -0.3859  0.8495
  201MOL    C3532435   7.803   0.692   5.229  0.4741 -0.1925  0.3458
  201MOL    C3632436   0.066   0.640   5.290  0.4526 -0.1493 -0.1958
  201MOL    O3732437   0.083   0.517   5.302  0.6575  0.8419 -0.1778
  201MOL    H3832438   7.843   0.554   5.057 -0.8209 -0.8046 -0.2024
  201MOL    H3932439   7.678   0.594   5.078 -0.1495  0.4596  0.2129
  201MOL    H4032440   7.721   0.656   5.292 -0.7563  3.0013  0.6661
  201MOL    H4132441   7.795   0.801   5.234 -1.3048 -0.1424 -2.1519
  201MOL    C4232442   0.167   0.742   5.335 -0.0144 -0.4205  0.4047
  201MOL    C4332443   0.198   0.842   5.225 -0.5145 -0.5050 -0.1077
  201MOL    C4432444   0.331   0.833   5.167 -0.1630 -0.1487 -0.0004
  201MOL    O4532445   0.414   0.758   5.222  0.0479 -0.4065 -0.2844
  201MOL    H4632446   0.256   0.688   5.364 -0.0908  0.1086  1.6575
  201MOL    H4732447   0.134   0.792   5.426 -3.1940  0.1571 -0.9948
  201MOL    H4832448   0.185   0.943   5.264 -0.0155 -1.6575  3.1795
  201MOL    H4932449   0.127   0.835   5.143  0.9511  0.4393 -1.4974
  201MOL    C5032450   0.357   0.894   5.026 -0.3114  0.0897 -0.7005
  201MOL    C5132451   0.505   0.870   4.985  0.1496  0.0156 -0.7845
  201MOL    C5232452   0.584   1.003   4.963 -0.2788 -0.3701 -0.0619
  201MOL    O5332453   0.681   1.034   5.030 -0.6839 -0.1959  0.1287
  201MOL    H5432454   0.346   1.002   5.033 -0.3416  0.0360  0.1560
  201MOL    H5532455   0.297   0.854   4.945 -0.9162 -1.2895  0.3963
  201MOL    H5632456   0.509   0.826   4.885 -0.0813 -0.0296 -0.7725
  201MOL    H5732457   0.562   0.809   5.055 -0.0017 -1.0908 -1.6110
  201MOL    C5832458   0.531   1.097   4.851  0.1022  0.0323 -0.6025
  201MOL    C5932459   0.653   1.121   4.749 -0.7090 -0.4100 -0.1716
  201MOL    C6032460   0.616   1.056   4.613 -0.9858  0.3782 -0.5636
  201MOL    O6132461   0.553   0.951   4.599  0.1424  0.2557  0.5365
  201MOL    H6232462   0.491   1.189   4.892  0.8605 -0.5738  1.5336
  201MOL    H6332463   0.455   1.038   4.799  0.0072 -1.5899  1.3447
  201MOL    H6432464   0.741   1.072   4.791  1.5839  2.6750 -1.2156
  201MOL    H6532465   0.678   1.227   4.745  0.1521 -0.6383 -1.0943
  201MOL    C6632466   0.654   1.136   4.490 -0.1479 -0.2596  0.1828
  201MOL    C6732467   0.771   1.080   4.414 -0.4409  0.0508  0.2513
  201MOL    C6832468   0.898   1.165   4.433  0.2995  0.1234  0.3574
  201MOL    O6932469   0.891   1.252   4.520 -0.4841 -0.3801  0.3429
  201MOL    H7032470   0.656   1.243   4.514  0.8915  0.2007 -1.8645
  201MOL    H7132471   0.579   1.121   4.413 -0.2445  2.3794 -0.3059
  201MOL    H7232472   0.750   1.084   4.307 -0.4879 -0.5296  0.2378
  201MOL    H7332473   0.781   0.971   4.417  0.7782  0.1043 -1.2464
  201MOL    C7432474   1.022   1.158   4.344  0.0048  0.1907 -0.5480
  201MOL    C7532475   1.141   1.126   4.431  0.4941  0.2500 -0.1110
  201MOL    C7632476   1.231   1.013   4.386  0.6515  0.5527 -0.6286
  201MOL    O7732477   1.283   1.016   4.270 -0.0181  0.4193  0.0846
  201MOL    H7832478   1.022   1.255   4.294  1.7248  1.4139  1.7163
  201MOL    H7932479   1.013   1.081   4.267  1.1185  1.1492 -1.6820
  201MOL    H8032480   1.109   1.110   4.534  0.1702  3.4535  0.3274
  201MOL    H8132481   1.207   1.212   4.432  0.9968 -0.0947  2.5697
  201MOL    C8232482   1.241   0.894   4.485  0.0677  0.1608  0.4861
  201MOL    C8332483   1.355   0.795   4.438 -0.1213  0.1607 -0.4838
  201MOL    C8432484   1.301   0.678   4.360  0.0891  0.3870 -0.7126
  201MOL    O8532485   1.181   0.674   4.332 -0.1583  0.0441  0.0737
  201MOL    H8632486   1.152   0.834   4.503  0.0644  0.1181  0.3218
  201MOL    H8732487   1.258   0.941   4.582  0.9490 -0.3094  0.5670
  201MOL    H8832488   1.408   0.758   4.526 -1.1397 -0.7230 -0.2264
  201MOL    H8932489   1.425   0.847   4.372 -0.6487  0.0116 -1.1670
  201MOL    C9032490   1.398   0.566   4.322  0.5596 -0.4176  0.7919
  201MOL    C9132491   1.349   0.487   4.203 -0.5693 -0.2594 -0.1253
  201MOL    C9232492   1.408   0.536   4.069  0.1727  0.3769 -0.6483
  201MOL    O9332493   1.490   0.627   4.056  0.0938 -0.1074  0.2564
  201MOL    H9432494   1.394   0.507   4.413  1.9779  0.2828  1.3191
  201MOL    H9532495   1.502   0.599   4.312  0.2942  0.9067  2.2013
  201MOL    H9632496   1.240   0.484   4.205 -0.5649  0.2739  2.0119
  201MOL    H9732497   1.382   0.386   4.228 -2.2790 -1.4106 -2.3083
  201MOL    C9832498   1.355   0.462   3.942  0.3974  0.1732  0.3921
  201MOL    C9932499   1.380   0.541   3.811  0.6197 -0.5130 -0.1910
  201MOL   C10032500   1.428   0.455   3.695  0.5301 -0.4678  0.1334
  201MOL   O10132501   1.458   0.333   3.708 -0.2250 -0.1335  0.4898
  201MOL   H10232502   1.252   0.429   3.945  0.2607  0.4550 -1.0077
  201MOL   H10332503   1.400   0.363   3.934 -1.1897 -0.5571  0.3091
  201MOL   H10432504   1.446   0.626   3.830 -0.4996  0.1302  0.9079
  201MOL   H10532505   1.282   0.584   3.788  0.7894 -1.0397 -2.0045
  201MOL   C10632506   1.424   0.514   3.556  0.2253 -0.1833 -1.1611
  201MOL   C10732507   1.483   0.420   3.450 -0.3651  0.0637 -0.3222
  201MOL   C10832508   1.453   0.462   3.312 -0.3407 -0.0574 -0.2371
  201MOL   O10932509   1.409   0.577   3.284  0.1608  0.4406  0.6782
  201MOL   H11032510   1.471   0.612   3.543 -0.4809  0.3680  0.3552
  201MOL   H11132511   1.319   0.532   3.533 -0.2950  2.1206  2.4951
  201MOL   H11232512   1.448   0.318   3.466 -1.0931  0.5824  1.5554
  201MOL   H11332513   1.591   0.409   3.459 -0.4347 -1.3323 -0.9103
  201MOL   C11432514   1.469   0.353   3.211 -0.6508  0.2711 -0.1825
  201MOL   C11532515   1.337   0.332   3.143  0.3064  0.3561  0.0139
  201MOL   C11632516   1.303   0.190   3.115  0.0148  0.5101 -0.4363
  201MOL   O11732517   1.298   0.145   2.999 -0.0622  0.2918 -0.2365
  201MOL   H11832518   1.506   0.260   3.255 -1.7111 -0.9958 -1.9110
  201MOL   H11932519   1.540   0.390   3.136  0.5082 -0.8848  0.3173
  201MOL   H12032520   1.331   0.392   3.052  0.1976  2.4642  1.3622
  201MOL   H12132521   1.262   0.362   3.216 -1.6838  0.7730 -2.1217
  201MOL   C12232522   1.260   0.109   3.237  0.0965 -0.2786 -0.3731
  201MOL   C12332523   1.288   7.813   3.208 -0.4328  1.0090  0.8058
  201MOL   C12432524   1.332   7.739   3.333 -0.4170 -0.0708  0.0287
  201MOL   O12532525   1.427   7.788   3.401  0.0788  0.0213  0.2913
  201MOL   H12632526   1.153   0.124   3.250  0.3161 -0.0765  1.2901
  201MOL   H12732527   1.307   0.149   3.326  2.5372  0.5468 -1.9734
  201MOL   H12832528   1.369   7.794   3.138 -2.1523 -0.2734 -0.8842
  201MOL   H12932529   1.199   7.770   3.162 -0.0404  1.0888 -0.0444
  201MOL   C13032530   1.264   7.608   3.368  0.0621  0.0853 -0.2288
  201MOL   C13132531   1.320   7.540   3.493 -0.4932  0.1265  0.3245
  201MOL   C13232532   1.321   7.388   3.492  0.1977 -0.2764  0.0022
  201MOL   O13332533   1.325   7.322   3.390  0.2293 -0.0965  1.0802
  201MOL   H13432534   1.267   7.544   3.280 -0.2482  0.1133 -0.2583
  201MOL   H13532535   1.158   7.626   3.389 -0.3892 -1.6771 -0.8978
  201MOL   H13632536   1.289   7.580   3.590  1.3184  0.6481  0.7209
  201MOL   H13732537   1.427   7.562   3.489 -0.8335  2.2587  2.0712
  201MOL   C13832538   1.333   7.319   3.628 -0.0595 -0.0225  0.0706
  201MOL   C13932539   1.467   7.225   3.627  0.2887 -0.0696 -0.5807
  201MOL   C14032540   1.443   7.093   3.701 -0.3018 -0.2878  0.2072
  201MOL   O14132541   1.329   7.072   3.736  0.3451 -0.1005 -0.0280
  201MOL   H14232542   1.240   7.265   3.646 -0.1178  0.2334  0.5425
  201MOL   H14332543   1.350   7.395   3.705  0.8685 -1.3036  1.1574
  201MOL   H14432544   1.559   7.265   3.670  0.9007 -3.0550  1.0337
  201MOL   H14532545   1.505   7.203   3.527 -0.8480 -4.1754 -0.1656
  201MOL   C14632546   1.557   6.990   3.725  0.1637 -1.1196  0.2377
  201MOL   C14732547   1.507   6.847   3.703  0.4269 -0.6385  0.3328
  201MOL   C14832548   1.608   6.746   3.763 -0.2182  0.4048 -0.0131
  201MOL   O14932549   1.675   6.762   3.862 -0.2954 -0.3290 -0.3481
  201MOL   H15032550   1.565   7.005   3.833  1.1589 -2.2074  0.3250
  201MOL   H15132551   1.645   7.032   3.677 -0.0949 -0.8010  0.0397
  201MOL   H15232552   1.494   6.822   3.598  1.4064 -0.1164  0.0831
  201MOL   H15332553   1.419   6.822   3.762  0.1203 -2.6677 -0.9475
  201MOL   C15432554   1.609   6.610   3.686  0.1772  0.5496  0.2888
  201MOL   C15532555   1.729   6.511   3.726 -0.4825  0.5997  0.7432
  201MOL   C15632556   1.808   6.482   3.600 -0.0057 -0.3108  0.3184
  201MOL   O15732557   1.807   6.563   3.501 -0.3970 -0.1492 -0.0621
  201MOL   H15832558   1.602   6.622   3.578 -0.5914 -2.2369 -0.0152
  201MOL   H15932559   1.514   6.575   3.726 -0.0811  2.9747  1.9056
  201MOL   H16032560   1.673   6.423   3.758 -2.4986  1.3193 -0.6757
  201MOL   H16132561   1.785   6.549   3.812 -0.4844  2.8021 -0.2019
  201MOL   H16232562   1.857   6.384   3.602 -0.2462 -0.4248  0.7307
  202MOL     C132563   4.142   1.019   3.170  0.4620  0.3988  0.8581
  202MOL     C232564   4.222   1.056   3.299 -0.6743  0.1224  0.3284
  202MOL     C332565   4.200   1.202   3.338 -0.6819 -0.0271 -0.0762
  202MOL     O432566   4.122   1.275   3.281  0.1137  0.2235 -0.1132
  202MOL     H532567   4.044   1.066   3.168  1.1357  1.8453  1.3447
  202MOL     H632568   4.201   1.024   3.078 -1.1757 -2.3195 -0.3957
  202MOL     H732569   4.329   1.036   3.300 -0.7625 -0.3167  1.9700
  202MOL     H832570   4.171   1.003   3.380  1.6582 -3.0955 -0.1929
  202MOL     H932571   4.124   0.912   3.184  2.6237 -0.1467 -0.2322
  202MOL    C1032572   4.291   1.248   3.452  0.0252 -1.2084  0.0167
  202MOL    C1132573   4.295   1.398   3.464  0.1704 -0.3772 -0.2358
  202MOL    C1232574   4.419   1.424   3.550  0.5200 -0.6779 -0.2815
  202MOL    O1332575   4.406   1.468   3.665 -0.0126 -0.4224 -0.2284
  202MOL    H1432576   4.387   1.201   3.429  0.4080 -0.9223  0.9938
  202MOL    H1532577   4.258   1.199   3.544 -0.2858 -1.2065 -0.0945
  202MOL    H1632578   4.204   1.428   3.517 -0.5149 -2.5382 -0.1766
  202MOL    H1732579   4.303   1.452   3.370 -0.0274  2.8386  1.5203
  202MOL    C1832580   4.556   1.401   3.493 -0.5127 -0.0678  0.0616
  202MOL    C1932581   4.624   1.534   3.460  0.7579 -0.3316 -0.1249
  202MOL    C2032582   4.661   1.555   3.315  0.0640  0.4829  0.2843
  202MOL    O2132583   4.685   1.465   3.236  0.6456 -0.0156  0.1794
  202MOL    H2232584   4.549   1.330   3.410 -0.3238 -0.6580  0.5491
  202MOL    H2332585   4.618   1.344   3.561  0.4973  0.1586 -0.6578
  202MOL    H2432586   4.718   1.513   3.510  0.1347 -2.3274  0.2307
  202MOL    H2532587   4.581   1.619   3.514  1.4000  1.1949 -1.9431
  202MOL    C2632588   4.654   1.702   3.272  0.0402 -0.8505  0.2050
  202MOL    C2732589   4.659   1.732   3.123  0.3467  0.8929  0.0773
  202MOL    C2832590   4.696   1.878   3.096  0.8634 -0.7417 -0.2392
  202MOL    O2932591   4.737   1.961   3.181 -0.5370 -0.3060 -0.5272
  202MOL    H3032592   4.750   1.740   3.307  0.1099 -1.2932  0.4966
  202MOL    H3132593   4.577   1.764   3.317 -1.8078 -1.9343 -1.3775
  202MOL    H3232594   4.560   1.702   3.088  0.5530 -1.5949  1.5330
  202MOL    H3332595   4.730   1.665   3.073  1.6880  2.5913 -0.3318
  202MOL    C3432596   4.670   1.923   2.953  0.1031  1.5888 -0.2142
  202MOL    C3532597   4.736   2.060   2.931 -0.2722 -0.5054  0.4523
  202MOL    C3632598   4.637   2.171   2.904 -0.0216  0.0297 -0.1861
  202MOL    O3732599   4.516   2.149   2.865  0.3255  0.1448  0.1194
  202MOL    H3832600   4.562   1.932   2.941  0.2658  1.6585 -1.8063
  202MOL    H3932601   4.706   1.853   2.878 -0.8356  1.9664 -1.0270
  202MOL    H4032602   4.784   2.068   2.834 -0.6867  0.3840  0.3153
  202MOL    H4132603   4.809   2.090   3.006  0.2579 -1.3123  0.2712
  202MOL    C4232604   4.685   2.315   2.908 -0.1702 -0.0505 -0.5110
  202MOL    C4332605   4.575   2.424   2.922 -0.1602  0.7574  0.1090
  202MOL    C4432606   4.535   2.457   3.067 -0.8834 -0.1565  0.3295
  202MOL    O4532607   4.609   2.439   3.164 -0.1065 -0.3809 -0.8169
  202MOL    H4632608   4.757   2.339   2.830 -0.3049  0.7661 -0.3951
  202MOL    H4732609   4.745   2.321   2.999 -1.4789 -1.5502  0.4630
  202MOL    H4832610   4.487   2.396   2.864 -0.7268  0.7307  0.9789
  202MOL    H4932611   4.594   2.519   2.870 -1.0201 -0.2173 -2.0566
  202MOL    C5032612   4.397   2.508   3.086  0.7966  0.7581  0.2517
  202MOL    C5132613   4.370   2.564   3.223  0.6672  0.6678 -0.5040
  202MOL    C5232614   4.276   2.486   3.307  0.0976  0.2029  0.0929
  202MOL    O5332615   4.155   2.485   3.274 -0.0250 -0.5896 -0.1887
  202MOL    H5432616   4.326   2.428   3.066  0.9049  0.0476  2.5833
  202MOL    H5532617   4.376   2.590   3.018 -1.9146  0.4358  0.6296
  202MOL    H5632618   4.343   2.669   3.213 -1.7790 -0.0577 -1.7369
  202MOL    H5732619   4.463   2.561   3.281  0.4396 -3.5538 -0.2230
  202MOL    C5832620   4.320   2.446   3.446 -0.2180  0.1546 -0.2809
  202MOL    C5932621   4.227   2.339   3.497 -0.0773 -0.0207  0.5071
  202MOL    C6032622   4.287   2.271   3.623 -0.8117 -0.0291  0.1929
  202MOL    O6132623   4.405   2.228   3.612 -0.1238 -0.7391 -0.3270
  202MOL    H6232624   4.340   2.533   3.509  0.4986  1.3521 -2.1303
  202MOL    H6332625   4.405   2.381   3.426 -1.0569 -1.8105  2.2199
  202MOL    H6432626   4.223   2.260   3.423  0.4661 -1.1957  1.7095
  202MOL    H6532627   4.126   2.379   3.510 -0.4421 -0.5083 -0.7536
  202MOL    C6632628   4.207   2.264   3.748 -0.0217  0.4261 -0.4109
  202MOL    C6732629   4.300   2.259   3.868 -0.2300  0.5222 -0.0592
  202MOL    C6832630   4.254   2.369   3.961  0.1609 -0.3729 -0.3982
  202MOL    O6932631   4.294   2.485   3.953 -0.2157 -0.0430 -0.0697
  202MOL    H7032632   4.166   2.163   3.744 -0.1179  0.4805 -0.8797
  202MOL    H7132633   4.120   2.329   3.752  0.9855  1.8203 -0.8051
  202MOL    H7232634   4.403   2.269   3.834 -0.5882  0.0147 -1.3483
  202MOL    H7332635   4.288   2.162   3.916  0.3626  1.1581  1.4058
  202MOL    C7432636   4.143   2.322   4.058 -0.3615  0.2525  0.5184
  202MOL    C7532637   4.115   2.413   4.184  0.4874 -0.1211  0.0354
  202MOL    C7632638   3.968   2.440   4.203  0.4608  0.2753 -0.6312
  202MOL    O7732639   3.908   2.518   4.129  0.7914  0.6940  0.5740
  202MOL    H7832640   4.169   2.224   4.097  0.5875 -0.6073 -2.1622
  202MOL    H7932641   4.051   2.306   4.002  0.4938 -1.3540 -0.4627
  202MOL    H8032642   4.156   2.511   4.160 -3.7743  1.0113 -3.5577
  202MOL    H8132643   4.165   2.372   4.271  0.7007 -1.1371 -0.5613
  202MOL    C8232644   3.896   2.372   4.319  0.3273  0.1163 -0.2591
  202MOL    C8332645   3.765   2.443   4.342  0.0639 -0.0762  0.7364
  202MOL    C8432646   3.652   2.362   4.276  0.7975 -0.7295  0.5587
  202MOL    O8532647   3.650   2.339   4.150  0.0972  0.4169  0.1855
  202MOL    H8632648   3.945   2.383   4.415 -0.2527 -1.7881  0.2807
  202MOL    H8732649   3.885   2.269   4.286 -1.6354  0.1974  0.1270
  202MOL    H8832650   3.758   2.547   4.313  0.4975  0.0330  1.0193
  202MOL    H8932651   3.737   2.448   4.447 -2.1151  2.0036  0.0981
  202MOL    C9032652   3.541   2.319   4.371  0.1742 -0.1970 -0.3826
  202MOL    C9132653   3.454   2.218   4.298 -0.1062 -0.3731  0.1529
  202MOL    C9232654   3.305   2.272   4.306 -0.0156  0.0284  0.1754
  202MOL    O9332655   3.287   2.389   4.271  0.3796 -0.1416  0.2447
  202MOL    H9432656   3.483   2.409   4.393  1.1450 -0.1520  2.2232
  202MOL    H9532657   3.589   2.277   4.459  0.9509  1.6171  0.0743
  202MOL    H9632658   3.460   2.142   4.376 -1.6994 -0.9149 -0.2251
  202MOL    H9732659   3.488   2.195   4.197 -1.6672  0.4885 -0.5798
  202MOL    C9832660   3.192   2.178   4.347  0.8500 -0.7821  0.2437
  202MOL    C9932661   3.054   2.262   4.373 -0.1271  0.8547  0.3918
  202MOL   C10032662   3.033   2.328   4.508 -0.2781  0.5521 -0.0309
  202MOL   O10132663   3.122   2.333   4.590  0.3398 -0.2703  0.2683
  202MOL   H10232664   3.210   2.118   4.436 -1.3583  1.2602  2.1513
  202MOL   H10332665   3.175   2.104   4.269  0.4405  0.4961 -0.8966
  202MOL   H10432666   2.967   2.197   4.362  0.1780  0.0220  2.7248
  202MOL   H10532667   3.041   2.344   4.302 -1.6233 -0.0897 -0.4445
  202MOL   C10632668   2.896   2.386   4.534  0.2151  0.2107 -0.1855
  202MOL   C10732669   2.878   2.433   4.675 -0.7072  0.1140  0.6273
  202MOL   C10832670   2.811   2.326   4.769 -0.4646 -0.3897  0.3392
  202MOL   O10932671   2.754   2.231   4.727  0.2626 -0.1728  0.1331
  202MOL   H11032672   2.820   2.320   4.493 -0.2846  1.3975 -1.2061
  202MOL   H11132673   2.884   2.472   4.468 -1.3051  1.5292  1.7537
  202MOL   H11232674   2.817   2.523   4.680 -1.3551 -0.2341 -0.8500
  202MOL   H11332675   2.969   2.453   4.733 -0.9096  0.6172  0.7719
  202MOL   C11432676   2.817   2.355   4.917  0.0716  0.2976  0.2200
  202MOL   C11532677   2.807   2.231   5.008  0.4100 -0.3671 -0.5439
  202MOL   C11632678   2.947   2.177   5.041  0.5220  0.4000 -1.1192
  202MOL   O11732679   3.044   2.198   4.970 -0.1831  0.3159  0.6389
  202MOL   H11832680   2.726   2.412   4.932  0.7163  0.9299  1.9461
  202MOL   H11932681   2.894   2.423   4.954  0.1736 -0.2349  1.0203
  202MOL   H12032682   2.738   2.152   4.977  0.5959 -0.5056 -0.6084
  202MOL   H12132683   2.766   2.277   5.098  2.0383  1.7697 -0.8656
  202MOL   C12232684   2.960   2.092   5.173  0.4354  0.2319  1.1651
  202MOL   C12332685   3.086   2.010   5.167 -0.3730 -0.2273  0.1959
  202MOL   C12432686   3.104   1.929   5.297 -0.8493  0.2524  0.7066
  202MOL   O12532687   3.026   1.843   5.325  0.1932 -0.3724 -0.0661
  202MOL   H12632688   2.882   2.016   5.178  1.9937 -1.5835 -0.7347
  202MOL   H12732689   2.953   2.156   5.260  1.5788  1.4463  0.3842
  202MOL   H12832690   3.163   2.088   5.162 -1.7481  1.4273  3.3467
  202MOL   H12932691   3.103   1.941   5.085 -0.6393 -1.8256  1.4746
  202MOL   C13032692   3.235   1.951   5.374 -0.0358 -0.0313 -0.3872
  202MOL   C13132693   3.237   1.879   5.508 -0.3231  0.0004  0.5037
  202MOL   C13232694   3.178   1.976   5.614  0.1206 -0.4389 -0.1116
  202MOL   O13332695   3.069   1.961   5.664 -0.0737  0.6687  0.0269
  202MOL   H13432696   3.263   2.056   5.384 -2.6490  0.6391  0.3870
  202MOL   H13532697   3.308   1.898   5.314 -2.1778 -1.3556 -1.8986
  202MOL   H13632698   3.340   1.854   5.531 -0.2896 -1.4377 -1.1148
  202MOL   H13732699   3.183   1.785   5.494 -2.5465  1.2476  0.3786
  202MOL   C13832700   3.269   2.089   5.658 -0.3509 -0.2300  0.0374
  202MOL   C13932701   3.204   2.179   5.764  0.1455  0.0065  0.1462
  202MOL   C14032702   3.189   2.112   5.902 -0.0529 -0.5283 -0.2172
  202MOL   O14132703   3.275   2.034   5.947  0.6655 -0.0706  0.1830
  202MOL   H14232704   3.297   2.149   5.572  0.1085 -0.4028  0.0633
  202MOL   H14332705   3.363   2.044   5.689  0.3108  1.2692  0.2194
  202MOL   H14432706   3.112   2.231   5.737 -0.1705 -1.9146 -2.6670
  202MOL   H14532707   3.269   2.263   5.790 -0.5847  0.2455  1.2657
  202MOL   C14632708   3.060   2.161   5.982  0.3786 -0.0479  0.0092
  202MOL   C14732709   3.030   2.054   6.085  0.1749  0.6537  0.0933
  202MOL   C14832710   2.922   1.961   6.033 -0.7547  0.1428  0.0782
  202MOL   O14932711   2.868   1.974   5.918 -0.3176 -0.3107  0.0822
  202MOL   H15032712   2.975   2.168   5.914 -0.1730 -1.5433  0.5173
  202MOL   H15132713   3.081   2.259   6.025 -3.7791  0.6663  0.6262
  202MOL   H15232714   3.004   2.116   6.170  1.4393  2.4081 -0.7635
  202MOL   H15332715   3.113   1.990   6.115 -0.5363 -0.5204 -0.4034
  202MOL   C15432716   2.872   1.865   6.131 -0.1085 -0.5045  0.1148
  202MOL   C15532717   2.758   1.765   6.070 -0.6565 -0.9298  0.1986
  202MOL   C15632718   2.663   1.712   6.181 -0.6343  0.6107  0.2340
  202MOL   O15732719   2.659   1.748   6.296 -0.5800 -0.1505 -0.1933
  202MOL   H15832720   2.833   1.938   6.201  0.7885  1.2221 -1.1508
  202MOL   H15932721   2.953   1.819   6.187 -0.2032  0.0426  0.7009
  202MOL   H16032722   2.809   1.689   6.010  0.3894 -1.7318  2.0444
  202MOL   H16132723   2.693   1.820   6.002 -0.7965  0.7242  1.6463
  202MOL   H16232724   2.590   1.643   6.138 -0.8663  0.0963  1.4380
  203MOL     C132725   0.768   5.553   2.446  0.4545  0.2862  0.3736
  203MOL     C232726   0.734   5.686   2.518  0.1160  0.5134 -0.1569
  203MOL     C332727   0.787   5.705   2.660 -0.0232 -0.2103 -1.0426
  203MOL     O432728   0.715   5.695   2.767  0.2842 -0.1481  0.7618
  203MOL     H532729   0.873   5.549   2.417  0.4890  1.1621  0.3587
  203MOL     H632730   0.765   5.475   2.521 -0.1365 -0.1592 -0.1045
  203MOL     H732731   0.626   5.701   2.518  0.1946  1.1947 -1.8868
  203MOL     H832732   0.778   5.769   2.463  2.0121 -0.1638  0.2881
  203MOL     H932733   0.709   5.535   2.355 -0.3272  1.0662  0.7172
  203MOL    C1032734   0.934   5.726   2.683 -1.1000 -0.1456  0.3400
  203MOL    C1132735   1.015   5.609   2.738  0.4002 -0.5115  0.2810
  203MOL    C1232736   1.011   5.596   2.887 -0.0134 -0.2010  0.1296
  203MOL    O1332737   1.056   5.674   2.966 -0.2071  0.0491 -0.5013
  203MOL    H1432738   0.945   5.819   2.739  1.8125  1.0175 -1.9986
  203MOL    H1532739   0.980   5.749   2.587 -1.2930 -0.2683  0.2198
  203MOL    H1632740   1.120   5.630   2.718  0.3775 -0.5941  0.0755
  203MOL    H1732741   1.001   5.514   2.687 -0.6748  0.0751 -0.5754
  203MOL    C1832742   0.926   5.474   2.926 -0.6167 -0.0499  0.4314
  203MOL    C1932743   0.927   5.435   3.076  0.6174 -0.5111  0.1970
  203MOL    C2032744   0.912   5.283   3.096 -0.1650  0.5207 -0.3668
  203MOL    O2132745   0.940   5.199   3.012  0.1991 -0.7805 -0.0205
  203MOL    H2232746   0.966   5.387   2.875 -1.3640  1.9286 -3.6714
  203MOL    H2332747   0.830   5.496   2.881 -0.2740  0.9075  0.1445
  203MOL    H2432748   0.848   5.481   3.136  0.2148  0.8893 -1.3422
  203MOL    H2532749   1.016   5.475   3.125 -0.4888 -1.4773  3.0919
  203MOL    C2632750   0.853   5.249   3.223 -0.3911  0.0864 -0.5422
  203MOL    C2732751   0.915   5.119   3.290 -0.0813 -0.4529  0.3097
  203MOL    C2832752   0.869   5.108   3.424 -0.4241 -0.0612 -1.0445
  203MOL    O2932753   0.762   5.150   3.466  0.1778  0.2181  0.2261
  203MOL    H3032754   0.746   5.241   3.201  0.0087  1.0894 -3.0112
  203MOL    H3132755   0.865   5.332   3.292 -2.9592 -0.8502  1.1095
  203MOL    H3232756   1.023   5.128   3.299  0.2102 -1.2386 -2.1789
  203MOL    H3332757   0.882   5.028   3.241 -0.1093 -0.5271  0.4650
  203MOL    C3432758   0.943   5.008   3.518 -0.0804 -0.4650  0.1697
  203MOL    C3532759   0.900   4.861   3.506  0.1409 -0.2056 -0.0174
  203MOL    C3632760   0.975   4.783   3.400  0.2141  0.2168  0.8449
  203MOL    O3732761   1.063   4.835   3.334 -0.1591  0.0985 -0.2950
  203MOL    H3832762   0.919   5.036   3.621  0.7289  2.7387 -0.4780
  203MOL    H3932763   1.050   5.020   3.504  0.2922  0.8751  3.6644
  203MOL    H4032764   0.793   4.852   3.488  0.3581  0.3214 -1.6579
  203MOL    H4132765   0.922   4.812   3.601  0.2888 -1.1882 -0.5476
  203MOL    C4232766   0.921   4.632   3.378 -0.9348 -0.5608 -0.3174
  203MOL    C4332767   1.016   4.530   3.322  0.3508  0.2034 -1.0910
  203MOL    C4432768   1.058   4.421   3.420 -0.0149  0.6497  0.2870
  203MOL    O4532769   1.008   4.417   3.534 -0.5847 -0.5615 -0.5166
  203MOL    H4632770   0.836   4.629   3.309  0.1934  0.0207 -1.7463
  203MOL    H4732771   0.891   4.599   3.478 -0.9636 -0.4815 -0.2994
  203MOL    H4832772   1.105   4.579   3.281  0.9757  1.6329  1.8269
  203MOL    H4932773   0.965   4.476   3.243  0.0060 -0.7504 -0.2370
  203MOL    C5032774   1.155   4.317   3.370  0.0042  0.2921  0.5250
  203MOL    C5132775   1.271   4.315   3.465  0.3188 -0.6419  0.0335
  203MOL    C5232776   1.400   4.276   3.396  0.4246 -0.3951 -1.5333
  203MOL    O5332777   1.405   4.234   3.282  0.4939  0.6055 -0.3375
  203MOL    H5432778   1.197   4.355   3.277  1.6232 -1.2376  0.6175
  203MOL    H5532779   1.114   4.218   3.348  0.3127  0.2485  0.1415
  203MOL    H5632780   1.249   4.234   3.535  0.0783  0.7120  1.5268
  203MOL    H5732781   1.281   4.414   3.509 -1.5640  0.0369 -0.9921
  203MOL    C5832782   1.520   4.294   3.490 -0.3717  0.1945 -0.2495
  203MOL    C5932783   1.642   4.363   3.416  1.2270  1.1996 -0.4772
  203MOL    C6032784   1.775   4.312   3.458 -0.0419  0.1085 -0.2230
  203MOL    O6132785   1.878   4.320   3.384  0.2258 -0.3686 -0.2141
  203MOL    H6232786   1.544   4.205   3.549 -0.0599  1.4938  1.6414
  203MOL    H6332787   1.482   4.364   3.565 -0.4898  0.2090 -0.3237
  203MOL    H6432788   1.635   4.471   3.429 -1.1005  0.7182  3.0844
  203MOL    H6532789   1.631   4.344   3.309  2.2538  1.5742 -0.6502
  203MOL    C6632790   1.794   4.253   3.597  0.6890 -0.6812  0.0242
  203MOL    C6732791   1.943   4.209   3.620 -0.2950  0.8129 -0.1595
  203MOL    C6832792   1.960   4.193   3.772  0.2421 -0.7100 -0.6221
  203MOL    O6932793   1.942   4.286   3.854 -0.4731 -0.4908 -0.5972
  203MOL    H7032794   1.737   4.160   3.601  0.8544 -0.7952 -0.2805
  203MOL    H7132795   1.749   4.315   3.675  1.0082  0.4321 -0.6738
  203MOL    H7232796   2.012   4.287   3.589  1.1093  0.2025  1.3431
  203MOL    H7332797   1.965   4.120   3.561  2.9239 -0.2791  2.4996
  203MOL    C7432798   1.961   4.044   3.827 -0.3297 -0.2538 -0.0678
  203MOL    C7532799   1.976   4.032   3.980  0.4269 -0.0888 -0.1743
  203MOL    C7632800   2.095   3.945   4.019  0.6869  0.5982  0.2350
  203MOL    O7732801   2.172   3.886   3.931  0.2543 -0.6841 -0.2507
  203MOL    H7832802   2.037   3.990   3.771 -0.3454  0.0323 -0.3707
  203MOL    H7932803   1.871   3.989   3.799 -0.4527  0.4815 -1.1631
  203MOL    H8032804   1.881   3.985   4.005  0.4625  0.0009  0.1297
  203MOL    H8132805   1.979   4.128   4.031  0.7550 -0.1457 -0.0855
  203MOL    C8232806   2.132   3.937   4.167 -0.4448  0.9733 -0.2979
  203MOL    C8332807   2.050   3.832   4.234 -0.1282 -0.1338  0.2493
  203MOL    C8432808   1.953   3.894   4.345  0.1078  0.3421 -0.2729
  203MOL    O8532809   1.897   4.004   4.334 -0.4224 -0.2299  0.2258
  203MOL    H8632810   2.107   4.038   4.199 -0.2036  1.0186 -0.2518
  203MOL    H8732811   2.236   3.904   4.156 -0.3013  1.3813 -0.1685
  203MOL    H8832812   2.125   3.766   4.279  0.5871  1.1706  1.0084
  203MOL    H8932813   1.989   3.772   4.167  0.7932  0.8537 -1.5022
  203MOL    C9032814   1.943   3.812   4.470  0.0385  0.8295 -0.1102
  203MOL    C9132815   1.797   3.799   4.529 -0.3915  0.3268  0.1986
  203MOL    C9232816   1.783   3.819   4.679  0.2240 -0.2530  0.3061
  203MOL    O9332817   1.872   3.883   4.744 -0.3306 -0.4499 -0.1861
  203MOL    H9432818   2.011   3.852   4.545 -1.2466 -0.0741  1.5525
  203MOL    H9532819   1.982   3.712   4.453 -0.7018  0.3260  1.0693
  203MOL    H9632820   1.766   3.696   4.509  0.8966  0.0885 -0.6505
  203MOL    H9732821   1.724   3.860   4.477 -1.4163 -1.4650 -0.5180
  203MOL    C9832822   1.642   3.801   4.738 -0.2885 -0.5733  0.0960
  203MOL    C9932823   1.611   3.875   4.867 -0.1386 -0.6812  0.3498
  203MOL   C10032824   1.512   3.990   4.860  0.5251  0.5249  0.3995
  203MOL   O10132825   1.405   3.973   4.806 -0.5293 -0.0727 -0.6008
  203MOL   H10232826   1.635   3.694   4.756  1.1070 -0.7449 -0.3145
  203MOL   H10332827   1.583   3.834   4.652 -1.5950  0.6672  1.4314
  203MOL   H10432828   1.704   3.925   4.893 -1.4716  0.1470  3.8209
  203MOL   H10532829   1.574   3.800   4.938  0.4780  0.5767  2.0327
  203MOL   C10632830   1.521   4.114   4.948 -0.1348  0.7839  0.2052
  203MOL   C10732831   1.538   4.089   5.094 -0.7268  0.3502 -0.4549
  203MOL   C10832832   1.408   4.105   5.180 -0.1727 -0.2073  0.1728
  203MOL   O10932833   1.294   4.105   5.129 -0.3724 -0.1718  0.5016
  203MOL   H11032834   1.430   4.170   4.926  0.2324  0.7482 -1.4678
  203MOL   H11132835   1.603   4.176   4.911  1.6655 -2.5665 -1.6318
  203MOL   H11232836   1.597   4.178   5.119  0.2655 -0.7606  1.3037
  203MOL   H11332837   1.598   4.003   5.123  0.3098  2.3270  3.6470
  203MOL   C11432838   1.429   4.117   5.330 -0.8206 -0.6739 -0.0484
  203MOL   C11532839   1.365   4.241   5.389 -0.3334 -0.3630  0.2968
  203MOL   C11632840   1.427   4.367   5.332  0.1324 -0.4452 -0.6908
  203MOL   O11732841   1.527   4.356   5.256  0.4289 -0.4046  0.5750
  203MOL   H11832842   1.537   4.122   5.347 -0.2961 -0.0378 -3.2210
  203MOL   H11932843   1.401   4.021   5.373 -1.1976  0.0901  1.4832
  203MOL   H12032844   1.364   4.232   5.497  2.5334 -1.5396  0.2737
  203MOL   H12132845   1.263   4.247   5.351 -0.4678  1.9815  0.9081
  203MOL   C12232846   1.367   4.504   5.361  0.3151 -0.2146 -1.0530
  203MOL   C12332847   1.437   4.636   5.306  0.4432  0.0719  0.2681
  203MOL   C12432848   1.350   4.764   5.308  0.0568 -0.0605 -0.0340
  203MOL   O12532849   1.245   4.776   5.243 -0.0452  0.5817  0.2924
  203MOL   H12632850   1.358   4.503   5.470  3.5500 -0.2472 -0.7432
  203MOL   H12732851   1.262   4.501   5.331 -0.1930  1.4518  0.4180
  203MOL   H12832852   1.459   4.609   5.203  0.3653 -0.5466  0.4139
  203MOL   H12932853   1.537   4.654   5.345  0.2960  1.7792 -0.1158
  203MOL   C13032854   1.384   4.869   5.417 -0.2709  0.6910  0.4654
  203MOL   C13132855   1.304   5.000   5.412 -0.6164 -0.3474  0.4573
  203MOL   C13232856   1.380   5.096   5.503  0.0729 -0.3411 -0.3043
  203MOL   O13332857   1.399   5.071   5.619  0.6612  0.0716  0.2452
  203MOL   H13432858   1.488   4.899   5.404  0.3654 -1.0141  1.4581
  203MOL   H13532859   1.385   4.839   5.522  4.0996  0.6400  0.4699
  203MOL   H13632860   1.202   4.984   5.445 -0.5037  0.5819  1.2788
  203MOL   H13732861   1.289   5.041   5.312  0.0781  1.6470  1.1483
  203MOL   C13832862   1.421   5.228   5.442 -0.4269 -0.0459 -0.1021
  203MOL   C13932863   1.507   5.317   5.536  0.4405  0.0674  0.3358
  203MOL   C14032864   1.649   5.274   5.557 -0.0528  0.8653 -0.9867
  203MOL   O14132865   1.727   5.295   5.466  0.3654  0.3283  0.1657
  203MOL   H14232866   1.337   5.288   5.406 -0.3106  0.4984  0.5169
  203MOL   H14332867   1.482   5.215   5.353  0.4691 -0.6418  0.5926
  203MOL   H14432868   1.464   5.329   5.635  0.0383 -3.9637  0.7461
  203MOL   H14532869   1.512   5.416   5.491 -0.1554 -0.5221 -1.0774
  203MOL   C14632870   1.691   5.204   5.677 -0.7069 -0.5098  0.1137
  203MOL   C14732871   1.741   5.063   5.654 -0.2332  0.1589  0.1795
  203MOL   C14832872   1.807   4.995   5.770  0.3757  0.3291  1.2291
  203MOL   O14932873   1.835   5.067   5.867  1.0091  0.2855  0.0253
  203MOL   H15032874   1.623   5.212   5.761 -0.4613  1.7445  0.1184
  203MOL   H15132875   1.774   5.263   5.715 -2.1328  0.9780  0.9434
  203MOL   H15232876   1.812   5.073   5.572 -0.8234  1.2736 -0.2156
  203MOL   H15332877   1.659   5.007   5.610 -0.5837 -2.0153  3.4550
  203MOL   C15432878   1.856   4.847   5.756  0.1912 -0.3479  0.2356
  203MOL   C15532879   1.865   4.773   5.888 -0.0298  0.5401  0.0778
  203MOL   C15632880   1.737   4.770   5.978 -0.1082 -0.1358  0.8226
  203MOL   O15732881   1.628   4.720   5.942 -0.2594 -0.1796  0.0564
  203MOL   H15832882   1.951   4.848   5.703 -0.9210  2.0499 -1.8442
  203MOL   H15932883   1.787   4.790   5.694  1.2487 -3.3438  1.7496
  203MOL   H16032884   1.952   4.796   5.950  0.1191  0.5253 -0.1231
  203MOL   H16132885   1.879   4.673   5.847 -1.4302  0.1908  0.4527
  203MOL   H16232886   1.733   4.812   6.079 -3.1238  0.2121  0.6263
  204MOL     C132887   6.118   6.505   7.422  0.6025  0.3228 -0.7071
  204MOL     C232888   6.152   6.612   7.523  0.2304  0.1975 -0.2462
  204MOL     C332889   6.194   6.563   7.662  0.2730 -0.2659  0.2190
  204MOL     O432890   6.217   6.444   7.682 -0.4802 -0.6815  0.2197
  204MOL     H532891   6.050   6.435   7.470  0.9487 -1.2192 -2.3914
  204MOL     H632892   6.085   6.548   7.327 -0.3601  0.8224 -0.1495
  204MOL     H732893   6.060   6.666   7.546  0.2612  1.1036 -2.1240
  204MOL     H832894   6.222   6.685   7.483  1.0366  0.8486  2.3230
  204MOL     H932895   6.212   6.459   7.390 -0.1301 -0.0849 -2.3022
  204MOL    C1032896   6.216   6.672   7.760 -0.0500 -0.1906 -0.5840
  204MOL    C1132897   6.161   6.654   0.041  0.6944  0.3011  0.7292
  204MOL    C1232898   6.075   6.769   0.092 -0.1409  0.4731  0.3847
  204MOL    O1332899   6.065   6.874   0.028  0.7500  0.1117  0.1433
  204MOL    H1432900   6.169   6.762   7.720  0.5089  0.0127 -0.7811
  204MOL    H1532901   6.323   6.689   7.768  0.1989 -1.6484 -0.6695
  204MOL    H1632902   6.249   6.642   0.105  1.2885  0.2460 -0.0908
  204MOL    H1732903   6.111   6.558   0.056  0.4539  0.2575 -0.3147
  204MOL    C1832904   6.009   6.749   0.228  0.5391 -0.0729  0.4498
  204MOL    C1932905   5.885   6.845   0.228  0.3704  0.1035  0.7145
  204MOL    C2032906   5.818   6.840   0.359 -0.1412  0.2773  0.1960
  204MOL    O2132907   5.785   6.729   0.404 -0.5746  0.0611 -0.0787
  204MOL    H2232908   6.069   6.792   0.308 -1.4795  1.5717  1.1450
  204MOL    H2332909   5.981   6.645   0.244  1.3496 -0.5984 -1.4375
  204MOL    H2432910   5.814   6.807   0.155  2.1944 -1.4128 -0.3345
  204MOL    H2532911   5.906   6.946   0.195 -1.6460  0.1023 -0.6179
  204MOL    C2632912   5.782   6.974   0.427 -0.4013  0.0670 -0.1271
  204MOL    C2732913   5.653   6.957   0.514 -0.3943 -0.0176 -0.3991
  204MOL    C2832914   5.580   7.087   0.543 -0.0656 -0.5025 -0.0041
  204MOL    O2932915   5.462   7.097   0.516 -0.1267 -0.1764 -0.3107
  204MOL    H3032916   5.761   7.048   0.349 -1.1729  0.3026  0.3028
  204MOL    H3132917   5.863   7.011   0.490 -1.1368  0.3580  0.6501
  204MOL    H3232918   5.661   6.912   0.613 -0.1464 -0.5038 -0.6387
  204MOL    H3332919   5.578   6.898   0.460  0.1087 -0.9200 -0.1157
  204MOL    C3432920   5.665   7.197   0.594 -0.3065 -0.3613 -0.2631
  204MOL    C3532921   5.629   7.326   0.513 -0.0010 -0.8286  0.2840
  204MOL    C3632922   5.717   7.353   0.387 -0.5905  0.3365  0.2973
  204MOL    O3732923   5.816   7.283   0.361 -0.6465 -0.6433 -0.6122
  204MOL    H3832924   5.770   7.172   0.579  0.3335  1.0986  1.5834
  204MOL    H3932925   5.643   7.209   0.700  0.8437  1.9082 -0.2403
  204MOL    H4032926   5.648   7.408   0.582  2.4165 -1.5066  0.4767
  204MOL    H4132927   5.523   7.338   0.494  0.4483  1.8015 -0.7457
  204MOL    C4232928   5.695   7.480   0.315  0.0104  0.1386  0.5138
  204MOL    C4332929   5.807   7.528   0.217  0.0766  0.2330  0.0066
  204MOL    C4432930   5.786   7.490   0.074 -1.0132 -0.1116  0.4988
  204MOL    O4532931   5.677   7.462   0.032  0.2186  0.1043  0.2833
  204MOL    H4632932   5.692   7.564   0.384  2.0953  0.3192  0.4199
  204MOL    H4732933   5.600   7.483   0.261  0.4595  2.3439 -0.2179
  204MOL    H4832934   5.908   7.505   0.251 -0.0741  0.0398  0.3288
  204MOL    H4932935   5.793   7.636   0.223 -0.4948  0.1210  0.6730
  204MOL    C5032936   5.889   7.523   7.827 -0.1580  0.1821 -0.3993
  204MOL    C5132937   5.885   7.432   7.698 -0.7072  0.2104  0.3087
  204MOL    C5232938   5.814   7.505   7.584  0.7983  0.3872  0.4331
  204MOL    O5332939   5.880   7.554   7.497 -0.2032  0.2197  0.2696
  204MOL    H5432940   5.990   7.501   0.005 -0.0080 -1.7669 -1.9005
  204MOL    H5532941   5.882   7.624   7.785 -2.6858 -0.2605 -1.0804
  204MOL    H5632942   5.817   7.348   7.714 -1.2157  1.0381  2.7505
  204MOL    H5732943   5.985   7.406   7.663 -0.2743  1.4913  0.5579
  204MOL    C5832944   5.662   7.502   7.587 -0.2118 -0.2951 -0.1764
  204MOL    C5932945   5.607   7.533   7.450 -0.0133 -0.3080  0.0385
  204MOL    C6032946   5.471   7.466   7.428 -0.3561  0.6741  0.7869
  204MOL    O6132947   5.376   7.503   7.489  0.2262  0.0915 -0.0994
  204MOL    H6232948   5.628   7.571   7.664 -0.1869  0.3652 -0.7510
  204MOL    H6332949   5.631   7.407   7.631  0.3397 -0.4532 -0.1220
  204MOL    H6432950   5.672   7.493   7.373  1.8096  1.4165  0.6465
  204MOL    H6532951   5.585   7.639   7.440 -0.2861 -0.4659 -1.0233
  204MOL    C6632952   5.477   7.341   7.332 -0.1484  0.1817 -0.1427
  204MOL    C6732953   5.345   7.273   7.302 -0.3783 -0.2348 -0.3532
  204MOL    C6832954   5.287   7.323   7.170 -0.2524  0.1669  0.4565
  204MOL    O6932955   5.319   7.277   7.062  1.0520  0.2873  0.4558
  204MOL    H7032956   5.540   7.254   7.354 -1.3315 -0.6769 -0.0986
  204MOL    H7132957   5.515   7.383   7.239 -0.6905  2.8585  0.8123
  204MOL    H7232958   5.267   7.306   7.371  0.6406  0.2957  0.5604
  204MOL    H7332959   5.355   7.165   7.291 -1.7018 -0.4916  0.6824
  204MOL    C7432960   5.173   7.428   7.179  0.5977 -0.4978 -0.6828
  204MOL    C7532961   5.039   7.360   7.158 -0.4320  0.3346 -0.1343
  204MOL    C7632962   4.992   7.385   7.021 -0.2427 -0.6177 -0.1131
  204MOL    O7732963   4.985   7.493   6.968  0.1389 -0.5400  0.2451
  204MOL    H7832964   5.195   7.509   7.110  0.9928 -2.0864 -2.4699
  204MOL    H7932965   5.164   7.471   7.279 -3.4933 -2.1586 -0.2176
  204MOL    H8032966   4.954   7.399   7.215 -0.8216  0.8645 -1.0681
  204MOL    H8132967   5.046   7.255   7.188  0.5225  0.0933 -1.1647
  204MOL    C8232968   4.927   7.271   6.944  0.0314 -0.0740  0.4662
  204MOL    C8332969   5.016   7.208   6.834 -0.4597 -0.0063  0.6210
  204MOL    C8432970   5.119   7.100   6.888  0.0148 -0.6397 -1.0264
  204MOL    O8532971   5.082   7.019   6.966 -0.3497 -0.6333 -0.0097
  204MOL    H8632972   4.838   7.310   6.896  1.0667  0.3647 -1.1308
  204MOL    H8732973   4.891   7.189   7.006 -0.6841 -0.6302 -0.6599
  204MOL    H8832974   5.058   7.285   6.770 -1.6187 -0.3967 -0.6153
  204MOL    H8932975   4.942   7.160   6.770 -1.2028  0.1847  1.3186
  204MOL    C9032976   5.253   7.093   6.815  0.4085 -0.7150 -0.1538
  204MOL    C9132977   5.361   7.013   6.901 -0.6836  0.1531 -0.8169
  204MOL    C9232978   5.400   6.877   6.847 -0.2292  0.5236 -0.0349
  204MOL    O9332979   5.512   6.869   6.802 -0.2868  0.5593 -0.0878
  204MOL    H9432980   5.290   7.191   6.785 -1.5933 -0.1466 -0.8413
  204MOL    H9532981   5.230   7.045   6.720 -0.6591 -0.2114 -0.1520
  204MOL    H9632982   5.354   7.030   7.008 -2.8733 -1.4379 -0.6836
  204MOL    H9732983   5.443   7.079   6.871 -1.3573  1.3517 -0.0914
  204MOL    C9832984   5.302   6.766   6.871 -0.1913  0.4372  0.2394
  204MOL    C9932985   5.369   6.635   6.914  0.5282 -0.5047 -0.1471
  204MOL   C10032986   5.286   6.504   6.917 -0.5466 -0.5982  0.6275
  204MOL   O10132987   5.162   6.514   6.900 -0.3202 -0.2003 -0.3689
  204MOL   H10232988   5.251   6.752   6.776  0.7274 -1.9006  0.0708
  204MOL   H10332989   5.224   6.788   6.943  0.7836  0.1143  1.4038
  204MOL   H10432990   5.397   6.642   7.019 -0.6779 -0.1303  0.1667
  204MOL   H10532991   5.451   6.615   6.846 -0.7862  0.5684 -2.1089
  204MOL   C10632992   5.355   6.368   6.932 -0.6749 -0.8271 -0.2611
  204MOL   C10732993   5.271   6.254   6.881  0.1803  0.1191 -1.0958
  204MOL   C10832994   5.341   6.161   6.790  0.3001  0.3398 -0.1201
  204MOL   O10932995   5.379   6.201   6.680 -0.3299 -0.6789 -0.3188
  204MOL   H11032996   5.391   6.358   7.035  0.4063  1.5705 -0.3559
  204MOL   H11132997   5.443   6.373   6.867  0.6341  0.1948  1.5444
  204MOL   H11232998   5.170   6.277   6.849 -0.9565 -1.7214  1.0143
  204MOL   H11332999   5.251   6.192   6.969  0.4307  0.6316 -0.6755
  204MOL   C11433000   5.348   6.018   6.837 -0.3526  0.4937  0.7442
  204MOL   C11533001   5.478   5.950   6.784  0.0921 -0.0634  0.3455
  204MOL   C11633002   5.606   6.006   6.849 -0.6287  0.4126 -0.5728
  204MOL   O11733003   5.603   6.078   6.948  0.8900  0.8450  0.5373
  204MOL   H11833004   5.266   5.965   6.787  1.0670 -0.0377 -1.0539
  204MOL   H11933005   5.340   6.020   6.946 -0.9675  0.3357  0.7045
  204MOL   H12033006   5.492   5.955   6.676 -0.4780  1.6730  0.3343
  204MOL   H12133007   5.488   5.843   6.800  3.6823  0.2937  0.9261
  204MOL   C12233008   5.728   5.999   6.760  0.0615  0.6152  0.0657
  204MOL   C12333009   5.851   6.090   6.795  0.1586 -0.9041 -0.4560
  204MOL   C12433010   5.872   6.207   6.691 -0.2264 -0.5711 -0.1666
  204MOL   O12533011   5.779   6.269   6.644  0.2199  0.2071 -0.0301
  204MOL   H12633012   5.688   6.028   6.663 -0.0145 -0.0672 -0.1060
  204MOL   H12733013   5.761   5.895   6.757 -0.8599  0.3281 -0.1220
  204MOL   H12833014   5.940   6.028   6.803  1.0981  0.5184  0.1820
  204MOL   H12933015   5.843   6.143   6.890 -0.5238  0.9198 -1.4948
  204MOL   C13033016   6.020   6.239   6.661 -0.2101 -0.1760  0.3569
  204MOL   C13133017   6.040   6.367   6.578 -0.1231 -0.2080  0.8160
  204MOL   C13233018   6.044   6.348   6.430 -0.2074  0.0788  0.0839
  204MOL   O13333019   6.139   6.296   6.374  0.4333  0.5326  0.6237
  204MOL   H13433020   6.055   6.154   6.603 -0.8853  0.0485 -0.3846
  204MOL   H13533021   6.059   6.254   6.762  1.1762  2.8597 -0.5749
  204MOL   H13633022   6.129   6.426   6.599 -1.1943  1.4146  0.9131
  204MOL   H13733023   5.961   6.441   6.595 -1.7322 -1.5318 -0.6810
  204MOL   C13833024   5.917   6.398   6.358 -0.4762  0.1536  1.0005
  204MOL   C13933025   5.945   6.468   6.217 -0.5149  0.0993 -0.1781
  204MOL   C14033026   5.878   6.404   6.098 -0.2063 -0.4391  0.0145
  204MOL   O14133027   5.879   6.282   6.084 -0.0281  0.4044  0.0142
  204MOL   H14233028   5.856   6.467   6.415  0.1291  1.7246 -0.2086
  204MOL   H14333029   5.852   6.312   6.345 -1.2501  1.0651 -1.6063
  204MOL   H14433030   6.051   6.485   6.200 -0.6434  1.5368  0.3997
  204MOL   H14533031   5.899   6.567   6.221  0.0743  0.5864 -3.5884
  204MOL   C14633032   5.805   6.487   5.990  0.7185 -0.0397 -0.4495
  204MOL   C14733033   5.671   6.423   5.958 -0.7606  0.2321  0.0393
  204MOL   C14833034   5.544   6.503   5.993 -0.2410 -0.6794  0.4997
  204MOL   O14933035   5.537   6.556   6.101 -0.0081 -0.5181  0.5463
  204MOL   H15033036   5.878   6.496   5.910  0.5740  1.3403 -0.4357
  204MOL   H15133037   5.796   6.585   6.039 -2.5209 -0.7108  0.4095
  204MOL   H15233038   5.664   6.327   6.008 -1.3189  0.5055  0.4989
  204MOL   H15333039   5.668   6.411   5.850 -2.7380  0.6782  0.0318
  204MOL   C15433040   5.427   6.508   5.891 -0.0763 -0.6489 -0.7310
  204MOL   C15533041   5.338   6.630   5.919 -0.2318 -0.4164  0.1510
  204MOL   C15633042   5.210   6.586   5.994 -0.1765  0.4483  0.5867
  204MOL   O15733043   5.163   6.464   6.005  0.0884 -0.7548 -0.3717
  204MOL   H15833044   5.370   6.414   5.895  0.6858 -1.0614  0.8164
  204MOL   H15933045   5.461   6.523   5.789  1.8569 -1.5613 -0.2384
  204MOL   H16033046   5.320   6.681   5.824 -0.8888 -0.2589  0.3571
  204MOL   H16133047   5.386   6.713   5.972  1.3265  1.2668 -3.6856
  204MOL   H16233048   5.159   6.666   6.048  0.7211  1.5399 -0.1321
  205MOL     C133049   5.776   3.732   6.149 -0.0233 -0.7310 -0.2227
  205MOL     C233050   5.925   3.729   6.111  0.6186 -0.8080  0.3360
  205MOL     C333051   5.951   3.633   5.994  0.7792 -0.2896  0.3186
  205MOL     O433052   5.918   3.664   5.877 -0.5422  0.1971 -0.4123
  205MOL     H533053   5.715   3.717   6.061  0.8743 -0.3184 -0.9218
  205MOL     H633054   5.750   3.656   6.223 -2.2366 -0.5644 -0.7975
  205MOL     H733055   5.989   3.702   6.196  1.9827 -0.3780 -0.5384
  205MOL     H833056   5.963   3.828   6.082 -1.8265  0.0082 -0.1831
  205MOL     H933057   5.753   3.824   6.203 -0.5909 -0.8442 -0.2740
  205MOL    C1033058   6.047   3.515   6.025  0.1775 -0.3881 -0.2613
  205MOL    C1133059   6.068   3.423   5.910 -0.2732 -0.2831 -0.0154
  205MOL    C1233060   6.211   3.423   5.854  0.4327  0.0164 -0.3605
  205MOL    O1333061   6.247   3.496   5.759 -0.4340  0.1181  0.1756
  205MOL    H1433062   6.017   3.456   6.112  3.0265 -1.6359 -0.0634
  205MOL    H1533063   6.146   3.556   6.047 -0.7490  1.8029 -0.0531
  205MOL    H1633064   5.997   3.443   5.831 -0.1246 -1.6643 -0.5246
  205MOL    H1733065   6.053   3.320   5.943  1.1781 -1.0872 -1.7291
  205MOL    C1833066   6.318   3.356   5.937  0.2149 -0.5042 -0.6823
  205MOL    C1933067   6.464   3.391   5.896 -0.8110 -0.5174  0.3277
  205MOL    C2033068   6.521   3.523   5.958  0.4247 -0.3394  0.4925
  205MOL    O2133069   6.472   3.566   6.062  0.3981  0.3626 -0.4594
  205MOL    H2233070   6.321   3.247   5.926 -0.1533 -0.8087  1.9587
  205MOL    H2333071   6.291   3.391   6.037  1.3771  0.1743 -0.5952
  205MOL    H2433072   6.487   3.393   5.789 -3.1111 -2.3947 -0.2455
  205MOL    H2533073   6.536   3.317   5.931  1.0262  1.4394  0.7988
  205MOL    C2633074   6.638   3.592   5.881 -0.6017 -0.0551  0.5186
  205MOL    C2733075   6.705   3.707   5.952  1.0538 -0.3041 -0.2641
  205MOL    C2833076   6.730   3.829   5.873 -0.0098  0.0127 -0.1615
  205MOL    O2933077   6.648   3.922   5.884 -0.0342 -0.1889 -0.0008
  205MOL    H3033078   6.601   3.616   5.781  3.3123  3.1754 -0.2885
  205MOL    H3133079   6.713   3.513   5.887  1.6582  2.1097  1.8264
  205MOL    H3233080   6.801   3.675   5.995  1.3066  0.0677 -0.5490
  205MOL    H3333081   6.646   3.731   6.040  2.5820 -0.6105  0.8669
  205MOL    C3433082   6.851   3.843   5.788 -0.4882 -0.0884 -0.5887
  205MOL    C3533083   6.953   3.936   5.862 -0.2300 -0.1215 -0.0792
  205MOL    C3633084   7.011   4.036   5.762  0.1983  0.2588 -0.2748
  205MOL    O3733085   6.968   4.059   5.649  0.2839  0.0222  0.1258
  205MOL    H3833086   6.823   3.889   5.693 -0.0310  2.6248  0.5334
  205MOL    H3933087   6.892   3.743   5.773 -3.7972 -1.6267  0.1323
  205MOL    H4033088   7.031   3.881   5.913 -1.4704 -3.0243 -1.1839
  205MOL    H4133089   6.907   4.000   5.937  2.9940  0.1482  1.7548
  205MOL    C4233090   7.138   4.107   5.806  0.5874 -0.5818 -0.4405
  205MOL    C4333091   7.150   4.258   5.768  0.7527  0.1002  0.4612
  205MOL    C4433092   7.257   4.296   5.664  0.3015  0.1905 -0.2409
  205MOL    O4533093   7.285   4.209   5.580 -0.3009  0.0208  0.4445
  205MOL    H4633094   7.223   4.052   5.765  1.0159 -1.1482  1.1399
  205MOL    H4733095   7.136   4.090   5.914 -0.0432 -0.9079 -0.5036
  205MOL    H4833096   7.169   4.306   5.864  0.5652 -1.1415  1.1405
  205MOL    H4933097   7.060   4.301   5.725 -0.0228 -1.9575 -0.0395
  205MOL    C5033098   7.315   4.434   5.677 -0.0997 -0.6748  0.3312
  205MOL    C5133099   7.466   4.430   5.672  0.6066 -0.3577  0.1193
  205MOL    C5233100   7.531   4.388   5.802 -0.1940  0.5269  0.1912
  205MOL    O5333101   7.466   4.355   5.898  0.6624  0.2428 -0.0216
  205MOL    H5433102   7.281   4.483   5.768  0.5825  0.3294  0.0549
  205MOL    H5533103   7.279   4.494   5.594  0.1629 -0.1782  0.5716
  205MOL    H5633104   7.506   4.525   5.637  1.0520 -1.1945 -1.7331
  205MOL    H5733105   7.504   4.370   5.589  1.8726  0.1456  0.3342
  205MOL    C5833106   7.675   4.395   5.814  0.3700 -0.2418 -0.3116
  205MOL    C5933107   7.736   4.312   5.930 -0.0392  0.5056 -0.3595
  205MOL    C6033108   7.736   4.401   6.057  0.1080  0.3612 -0.0001
  205MOL    O6133109   7.806   4.500   6.056 -0.1052  0.0819 -0.5553
  205MOL    H6233110   7.724   4.492   5.818  2.0951 -1.0144 -2.0602
  205MOL    H6333111   7.715   4.357   5.720  1.1175  3.4918 -1.6083
  205MOL    H6433112   7.839   4.289   5.902  0.0650  0.3811  0.1229
  205MOL    H6533113   7.699   4.210   5.944  2.3917 -0.2096  1.1888
  205MOL    C6633114   7.628   4.372   6.170 -0.0998  0.0292 -0.3591
  205MOL    C6733115   7.669   4.450   6.306 -0.5044  0.4249  0.4139
  205MOL    C6833116   7.561   4.462   6.412  0.3776 -0.8697  0.4405
  205MOL    O6933117   7.460   4.390   6.402 -0.6210 -0.4713 -0.2830
  205MOL    H7033118   7.613   4.264   6.182  0.6103  0.1588  1.7948
  205MOL    H7133119   7.528   4.408   6.145 -1.0066 -1.8562  0.4350
  205MOL    H7233120   7.685   4.551   6.270 -1.9101  0.1549 -1.1011
  205MOL    H7333121   7.762   4.421   6.353 -0.5772  2.2797  1.7431
  205MOL    C7433122   7.567   4.570   6.519 -0.8636  0.0906  0.7317
  205MOL    C7533123   7.430   4.618   6.548 -0.2558 -0.6794 -0.5146
  205MOL    C7633124   7.357   4.548   6.668 -0.0300 -0.6420  0.0218
  205MOL    O7733125   7.385   4.433   6.705 -0.4790 -0.7089  0.2378
  205MOL    H7833126   7.631   4.652   6.487 -0.6345 -0.8158 -1.2242
  205MOL    H7933127   7.603   4.535   6.616 -1.1887  0.1406  0.8690
  205MOL    H8033128   7.374   4.622   6.455  0.7206  1.5226 -1.0607
  205MOL    H8133129   7.434   4.725   6.569 -3.0474 -0.8569  1.0458
  205MOL    C8233130   7.247   4.618   6.737 -0.0541 -0.2873  0.1478
  205MOL    C8333131   7.121   4.545   6.768 -0.2930  0.0936  0.7690
  205MOL    C8433132   7.014   4.558   6.660  0.1967 -0.1398  0.0356
  205MOL    O8533133   7.016   4.657   6.584  0.4092 -0.1606  0.6881
  205MOL    H8633134   7.239   4.716   6.689  0.6740 -0.2799  0.0328
  205MOL    H8733135   7.290   4.639   6.835 -1.2680  0.5435  0.5137
  205MOL    H8833136   7.092   4.572   6.869 -0.3728  2.2946  0.1925
  205MOL    H8933137   7.130   4.437   6.778  1.6350  0.3492  1.8830
  205MOL    C9033138   6.893   4.463   6.667 -0.0035  0.2461  0.3587
  205MOL    C9133139   6.778   4.530   6.732  0.6248  0.2397  0.0371
  205MOL    C9233140   6.645   4.472   6.687 -0.1089 -0.3736  0.6622
  205MOL    O9333141   6.645   4.374   6.609  0.2965  1.0703 -0.4581
  205MOL    H9433142   6.917   4.372   6.722  0.4748 -0.8452 -1.5998
  205MOL    H9533143   6.873   4.419   6.569 -0.1210  1.5475 -0.2132
  205MOL    H9633144   6.792   4.627   6.684  1.6216 -0.3530 -0.9055
  205MOL    H9733145   6.783   4.539   6.840 -1.5355  0.8352  0.1087
  205MOL    C9833146   6.531   4.517   6.767  0.3942  0.6978 -0.5472
  205MOL    C9933147   6.393   4.506   6.699  0.7954 -0.2355  0.5771
  205MOL   C10033148   6.317   4.638   6.705  0.6305  0.0938  0.0607
  205MOL   O10133149   6.367   4.738   6.756 -0.0698  0.1417 -0.0328
  205MOL   H10233150   6.563   4.620   6.784  2.2592 -0.0141  0.4030
  205MOL   H10333151   6.527   4.469   6.865  0.4163  1.1185 -0.3389
  205MOL   H10433152   6.336   4.424   6.743  0.5091  0.1914  1.0143
  205MOL   H10533153   6.396   4.489   6.592  1.6506 -4.7457  1.2256
  205MOL   C10633154   6.176   4.649   6.647  0.4844 -0.6787  0.4072
  205MOL   C10733155   6.141   4.795   6.627 -0.5369  0.3848 -0.0497
  205MOL   C10833156   5.990   4.823   6.602  0.1566  0.9135  0.6312
  205MOL   O10933157   5.906   4.743   6.641 -0.0325  0.7066  0.0601
  205MOL   H11033158   6.113   4.604   6.724 -1.5877  0.6080 -0.4773
  205MOL   H11133159   6.165   4.598   6.552  1.5727  0.1270 -0.1567
  205MOL   H11233160   6.199   4.818   6.538  1.5585 -0.8131  0.9597
  205MOL   H11333161   6.186   4.861   6.701  1.5992  0.3509 -1.2855
  205MOL   C11433162   5.952   4.952   6.536  0.0946 -0.4536 -0.2132
  205MOL   C11533163   5.806   4.993   6.522  0.4818 -0.2738  0.2546
  205MOL   C11633164   5.761   5.006   6.377  0.9070 -0.2698  0.2747
  205MOL   O11733165   5.831   4.994   6.277 -0.4744 -0.6719 -0.2864
  205MOL   H11833166   6.001   4.943   6.439  2.8616  0.7997  1.0255
  205MOL   H11933167   6.010   5.037   6.569 -1.5642  0.5752  0.1332
  205MOL   H12033168   5.781   5.089   6.568  2.5803  0.3073  0.2531
  205MOL   H12133169   5.746   4.916   6.570 -1.3728 -0.7491 -2.7241
  205MOL   C12233170   5.611   5.053   6.367 -0.6776  0.1347 -0.1664
  205MOL   C12333171   5.560   5.101   6.229  0.2716  0.8725 -0.3080
  205MOL   C12433172   5.451   5.207   6.244 -0.0526  0.4184  0.1861
  205MOL   O12533173   5.480   5.321   6.286 -0.0612  0.8952 -0.1330
  205MOL   H12633174   5.596   5.122   6.449  0.4563  1.4011 -0.9937
  205MOL   H12733175   5.543   4.972   6.394 -1.0057  0.8565  1.2013
  205MOL   H12833176   5.524   5.024   6.160 -2.0801  1.1304  0.5702
  205MOL   H12933177   5.654   5.139   6.189  1.3556  0.3331  1.6759
  205MOL   C13033178   5.314   5.152   6.217 -0.1112  0.6387 -0.1876
  205MOL   C13133179   5.216   5.262   6.168 -0.2647  0.5550 -0.3314
  205MOL   C13233180   5.065   5.225   6.196  1.1694  0.5494  0.4482
  205MOL   O13333181   5.030   5.130   6.265 -0.1644  0.6109 -0.1377
  205MOL   H13433182   5.287   5.101   6.310 -2.6582 -1.0580 -1.8191
  205MOL   H13533183   5.319   5.068   6.147 -1.1712  0.7215 -0.3593
  205MOL   H13633184   5.221   5.278   6.061 -0.2772  0.1665 -0.3897
  205MOL   H13733185   5.223   5.359   6.217  2.9644 -0.9243  2.3955
  205MOL   C13833186   4.960   5.322   6.139 -0.2376  0.7526  0.2449
  205MOL   C13933187   4.821   5.313   6.206  0.0461  0.9806  0.9807
  205MOL   C14033188   4.814   5.370   6.346 -0.3084  0.3732 -0.1326
  205MOL   O14133189   4.912   5.427   6.396  0.9432  0.3771  0.6404
  205MOL   H14233190   4.945   5.303   6.033  0.0969 -1.6430  0.5970
  205MOL   H14333191   4.996   5.425   6.142  1.8834  0.0609 -0.1799
  205MOL   H14433192   4.800   5.207   6.207  0.2324  0.9026 -1.3514
  205MOL   H14533193   4.743   5.362   6.148 -2.6059 -2.6178  1.3611
  205MOL   C14633194   4.681   5.360   6.419  0.0400  0.0505 -0.1007
  205MOL   C14733195   4.659   5.220   6.486 -0.5073  0.2718  0.5738
  205MOL   C14833196   4.696   5.210   6.632 -0.2979  0.6496  0.4085
  205MOL   O14933197   4.639   5.288   6.713 -0.6954 -0.1188 -0.2862
  205MOL   H15033198   4.600   5.374   6.347 -1.9614 -2.4225  1.5520
  205MOL   H15133199   4.681   5.444   6.488 -0.5527  1.3676 -1.6631
  205MOL   H15233200   4.723   5.146   6.437  0.7929  0.7116  1.5935
  205MOL   H15333201   4.555   5.188   6.482 -0.8593  1.3199  1.3496
  205MOL   C15433202   4.793   5.095   6.677  0.2197 -0.1228 -0.2175
  205MOL   C15533203   4.920   5.089   6.593 -0.3936 -0.1616 -0.2823
  205MOL   C15633204   5.039   5.058   6.683  0.3637 -0.1435  0.0250
  205MOL   O15733205   5.029   4.991   6.787 -0.6065  0.2050  0.4404
  205MOL   H15833206   4.735   5.004   6.691 -0.0089 -0.1135 -1.0948
  205MOL   H15933207   4.815   5.123   6.780  1.2469 -1.2412 -0.1236
  205MOL   H16033208   4.939   5.186   6.549 -0.9326  0.2102  0.2938
  205MOL   H16133209   4.915   5.014   6.514  2.6906 -1.5956  0.8062
  205MOL   H16233210   5.135   5.097   6.651 -0.3455 -0.1072 -2.1614
  206MOL     C133211   2.811   6.197   0.116  0.0236  0.2383 -0.3295
  206MOL     C233212   2.739   6.106   0.211 -0.6327 -0.7849  0.4043
  206MOL     C333213   2.743   5.958   0.160  0.1972  0.5754  0.0864
  206MOL     O433214   2.775   5.867   0.241 -0.1980 -0.3568  0.0664
  206MOL     H533215   2.911   6.158   0.095  0.6254  0.8915  1.2899
  206MOL     H633216   2.756   6.201   0.022  2.2355 -0.7322 -1.7147
  206MOL     H733217   2.638   6.146   0.225 -1.4278 -2.6046  0.0782
  206MOL     H833218   2.795   6.108   0.305 -1.1610  0.1880  0.7005
  206MOL     H933219   2.819   6.299   0.152 -0.9356  0.1954 -0.0063
  206MOL    C1033220   2.673   5.919   0.029 -0.6567 -0.3249 -0.2944
  206MOL    C1133221   2.778   5.925   7.771 -0.4973 -0.4102  0.0004
  206MOL    C1233222   2.769   5.808   7.683 -0.0461 -0.5635 -0.0690
  206MOL    O1333223   2.728   5.699   7.719 -0.6718 -0.6050 -0.2572
  206MOL    H1433224   2.590   5.983   7.857 -0.4314 -0.6016 -1.5097
  206MOL    H1533225   2.638   5.816   0.031  0.0282 -0.5855 -1.2962
  206MOL    H1633226   2.874   5.923   7.823 -1.1837 -0.0840  1.2947
  206MOL    H1733227   2.748   6.017   7.720 -3.2562 -2.6741 -2.7295
  206MOL    C1833228   2.837   5.819   7.545 -0.0182 -0.2512  0.1390
  206MOL    C1933229   2.875   5.685   7.475 -0.2016  0.3976 -0.1825
  206MOL    C2033230   2.999   5.621   7.536  0.5599  0.4669  0.0462
  206MOL    O2133231   3.060   5.686   7.620 -0.2094 -0.1272  0.2844
  206MOL    H2233232   2.923   5.885   7.559 -0.4533 -0.0313  1.8831
  206MOL    H2333233   2.767   5.874   7.482 -2.4886 -1.7079  1.5427
  206MOL    H2433234   2.899   5.706   7.371  0.3747  1.3158  0.1308
  206MOL    H2533235   2.795   5.612   7.485 -1.4917  1.3147 -3.1866
  206MOL    C2633236   3.036   5.483   7.483  0.5838 -0.6715 -0.2008
  206MOL    C2733237   3.154   5.405   7.564  0.4115 -0.3514  0.3756
  206MOL    C2833238   3.294   5.448   7.532  0.0261  0.4021 -0.0407
  206MOL    O2933239   3.321   5.491   7.421 -0.2380 -0.4085 -0.1032
  206MOL    H3033240   3.082   5.503   7.386 -1.8384 -0.7978 -1.4080
  206MOL    H3133241   2.952   5.416   7.463  0.7396 -0.3052 -2.1874
  206MOL    H3233242   3.154   5.300   7.535 -1.1578 -0.7917  1.8706
  206MOL    H3333243   3.145   5.393   7.672 -0.0323 -0.8990  0.2814
  206MOL    C3433244   3.403   5.425   7.641 -0.0497  0.4337 -0.4317
  206MOL    C3533245   3.547   5.446   7.593  0.0510 -0.1631  0.0033
  206MOL    C3633246   3.647   5.441   7.707 -0.2679 -0.2026 -0.0439
  206MOL    O3733247   3.612   5.403   7.815 -0.0834 -1.0027  0.7198
  206MOL    H3833248   3.393   5.332   7.696  0.1988  0.0845 -0.9812
  206MOL    H3933249   3.380   5.504   7.713  0.2225  1.2896 -1.2678
  206MOL    H4033250   3.549   5.546   7.549  0.5433 -0.8557 -1.6057
  206MOL    H4133251   3.579   5.381   7.512  0.7342  0.4544 -0.2331
  206MOL    C4233252   3.790   5.498   7.684 -0.2841  0.5194  0.0144
  206MOL    C4333253   3.861   5.522   7.822  0.0819 -0.7095 -0.3610
  206MOL    C4433254   3.932   5.393   0.017 -0.4363  0.2015  0.3893
  206MOL    O4533255   3.954   5.293   7.809 -0.2093 -0.1002 -0.2571
  206MOL    H4633256   3.767   5.595   7.639 -0.5545  0.9317  1.0175
  206MOL    H4733257   3.840   5.444   7.604 -0.8866 -0.7192  0.4711
  206MOL    H4833258   3.793   5.574   0.029 -0.4653  0.6996 -2.0007
  206MOL    H4933259   3.945   5.591   7.811 -1.2865  0.8427 -1.2384
  206MOL    C5033260   3.968   5.388   0.165  0.8188 -0.7732 -0.0039
  206MOL    C5133261   3.903   5.277   0.242 -0.0802  0.1405  0.6686
  206MOL    C5233262   3.815   5.333   0.350 -0.4908  0.2197  0.6227
  206MOL    O5333263   3.704   5.378   0.323 -0.4612 -0.4292 -1.3389
  206MOL    H5433264   3.927   5.481   0.203 -1.5518 -2.1498  0.9641
  206MOL    H5533265   4.074   5.391   0.190  0.2586 -1.9982  2.7204
  206MOL    H5633266   3.973   5.197   0.269  1.3428  1.0313 -0.2927
  206MOL    H5733267   3.834   5.230   0.173  1.7094 -1.9404  0.2414
  206MOL    C5833268   3.861   5.318   0.494  0.3484  0.2518 -0.3910
  206MOL    C5933269   3.738   5.324   0.593 -0.3736  0.0422  0.5847
  206MOL    C6033270   3.670   5.187   0.627  0.2083 -0.0288  0.2841
  206MOL    O6133271   3.686   5.087   0.558 -0.1362  0.4265  0.1823
  206MOL    H6233272   3.938   5.388   0.527  1.6455 -0.3859 -2.0062
  206MOL    H6333273   3.906   5.219   0.498 -0.2691  0.0034  0.4722
  206MOL    H6433274   3.658   5.393   0.569  0.2024  0.0721 -1.3675
  206MOL    H6533275   3.775   5.360   0.689  0.8048  3.3459 -1.0623
  206MOL    C6633276   3.558   5.199   0.732  0.2328  0.2763  0.0073
  206MOL    C6733277   3.435   5.105   0.693  0.4535  0.4089  0.0624
  206MOL    C6833278   3.417   4.980   0.772  0.0523 -0.0593 -0.6356
  206MOL    O6933279   3.500   4.947   0.855 -0.6617  0.4290 -0.5857
  206MOL    H7033280   3.523   5.302   0.724  0.4319  0.3018 -0.6035
  206MOL    H7133281   3.589   5.171   0.833  0.0220 -0.3164 -0.0909
  206MOL    H7233282   3.432   5.093   0.585 -0.9291 -0.8901  0.2310
  206MOL    H7333283   3.345   5.164   0.711 -0.8621 -2.2843  2.6518
  206MOL    C7433284   3.303   4.882   0.729  0.2275 -0.2206 -0.1431
  206MOL    C7533285   3.282   4.757   0.814  0.1243 -0.6917 -0.3371
  206MOL    C7633286   3.147   4.748   0.885  0.0465 -0.1059  0.1360
  206MOL    O7733287   3.041   4.783   0.839  0.4458 -0.1163  0.2256
  206MOL    H7833288   3.319   4.857   0.625 -0.5038  1.5380 -0.7033
  206MOL    H7933289   3.213   4.943   0.740  1.8145  1.8525  2.0730
  206MOL    H8033290   3.359   4.758   0.891 -3.0146 -2.6538  3.0093
  206MOL    H8133291   3.289   4.665   0.756 -0.0464  0.0977 -1.6297
  206MOL    C8233292   3.160   4.674   1.022  0.5048  0.0880  0.1174
  206MOL    C8333293   3.031   4.688   1.106 -0.3018  0.2252 -0.3969
  206MOL    C8433294   2.986   4.553   1.162 -0.0664 -0.6837 -0.0349
  206MOL    O8533295   2.921   4.473   1.093 -0.0602  0.3012 -0.5653
  206MOL    H8633296   3.245   4.722   1.070  2.0111  0.0785 -2.4075
  206MOL    H8733297   3.190   4.570   1.006  0.2273 -0.5324  3.3458
  206MOL    H8833298   2.946   4.725   1.048  0.1245  0.9282 -0.5795
  206MOL    H8933299   3.042   4.759   1.188 -0.1742 -1.8375  1.4339
  206MOL    C9033300   3.008   4.534   1.313  0.1688  0.2317 -0.2834
  206MOL    C9133301   2.962   4.389   1.349 -0.7632  0.3362 -0.2718
  206MOL    C9233302   3.077   4.286   1.355  0.1617 -0.4968  0.0434
  206MOL    O9333303   3.174   4.292   1.279 -0.3012  0.0699  0.6395
  206MOL    H9433304   2.953   4.600   1.380 -0.7074  1.8145 -2.5051
  206MOL    H9533305   3.115   4.537   1.331 -0.3380 -0.5983  3.3539
  206MOL    H9633306   2.886   4.347   1.283 -1.8037  1.0336  0.4574
  206MOL    H9733307   2.899   4.383   1.438 -1.1176  0.9902 -0.4767
  206MOL    C9833308   3.064   4.167   1.449  0.1198 -0.4234  1.0302
  206MOL    C9933309   3.203   4.102   1.490  0.2407  0.1052 -0.4791
  206MOL   C10033310   3.200   3.953   1.530  0.6353 -0.6079 -0.7262
  206MOL   O10133311   3.093   3.892   1.531 -0.7334 -0.3789 -0.2156
  206MOL   H10233312   2.999   4.093   1.403  0.7980 -1.3669  1.5797
  206MOL   H10333313   3.004   4.180   1.539 -1.4012 -2.8378  0.3820
  206MOL   H10433314   3.251   4.160   1.568 -0.8976  0.5196 -0.0817
  206MOL   H10533315   3.267   4.106   1.401 -0.4814 -1.6132 -1.0989
  206MOL   C10633316   3.326   3.881   1.565  0.4915  0.2312 -0.1062
  206MOL   C10733317   3.292   3.744   1.617  0.3585 -0.3552 -0.4890
  206MOL   C10833318   3.410   3.647   1.611  0.3339 -0.1075  0.6063
  206MOL   O10933319   3.525   3.680   1.573  0.1657  0.0148  0.0576
  206MOL   H11033320   3.375   3.934   1.647  0.6354 -1.1626  0.7176
  206MOL   H11133321   3.395   3.885   1.480 -0.2384 -1.1509 -0.7809
  206MOL   H11233322   3.211   3.705   1.554  0.8920 -1.0086 -0.7755
  206MOL   H11333323   3.241   3.754   1.712  0.2935 -2.8885 -0.2201
  206MOL   C11433324   3.378   3.512   1.654 -0.5717  0.9920 -0.8307
  206MOL   C11533325   3.405   3.408   1.541  0.3607 -0.1357  0.1971
  206MOL   C11633326   3.403   3.262   1.586  0.5291 -0.0679 -0.1448
  206MOL   O11733327   3.376   3.231   1.700  0.0849 -0.2115  0.2706
  206MOL   H11833328   3.278   3.510   1.697 -1.5266 -0.7099 -2.9972
  206MOL   H11933329   3.441   3.500   1.742 -1.7074 -1.0421 -0.2530
  206MOL   H12033330   3.494   3.429   1.482 -1.3634  1.6842 -1.8809
  206MOL   H12133331   3.336   3.417   1.457  2.2622  1.6729 -1.2161
  206MOL   C12233332   3.440   3.158   1.475 -0.3403 -0.4703 -0.3357
  206MOL   C12333333   3.453   3.019   1.512 -0.0254  0.4850 -1.0699
  206MOL   C12433334   3.424   2.924   1.394 -0.0778 -0.1122  0.1260
  206MOL   O12533335   3.362   2.953   1.284  0.0350 -0.0744  0.2447
  206MOL   H12633336   3.537   3.193   1.442  0.8011 -2.1971  1.1442
  206MOL   H12733337   3.363   3.168   1.398 -1.5059 -0.2394  0.8507
  206MOL   H12833338   3.392   2.989   1.597 -0.0527  0.5750 -1.0577
  206MOL   H12933339   3.555   3.001   1.547 -0.9493 -0.7142  1.1219
  206MOL   C13033340   3.494   2.787   1.402 -0.0705  0.1117  0.5941
  206MOL   C13133341   3.472   2.679   1.296  0.7969 -0.8849  0.0464
  206MOL   C13233342   3.598   2.638   1.227 -0.3530 -0.5457 -0.4058
  206MOL   O13333343   3.712   2.653   1.269  0.0458 -0.3173 -0.0053
  206MOL   H13433344   3.466   2.747   1.500 -0.8525  0.1208  0.3817
  206MOL   H13533345   3.598   2.812   1.424  0.3020 -0.3469 -0.5733
  206MOL   H13633346   3.412   2.728   1.219  0.9964 -2.9219 -1.4558
  206MOL   H13733347   3.413   2.595   1.335 -1.2338 -0.0188 -1.0777
  206MOL   C13833348   3.588   2.559   1.102 -0.5361  0.4786 -0.1809
  206MOL   C13933349   3.653   2.421   1.131  0.1930  1.1456 -0.0974
  206MOL   C14033350   3.564   2.304   1.083 -0.6643 -0.3876 -0.3830
  206MOL   O14133351   3.438   2.307   1.101  0.4461  0.3180 -0.4064
  206MOL   H14233352   3.629   2.616   1.019  1.0145 -1.3712 -0.7178
  206MOL   H14333353   3.482   2.544   1.081  0.0077 -0.9314 -2.0152
  206MOL   H14433354   3.666   2.419   1.239  0.3595  2.2201 -0.0942
  206MOL   H14533355   3.752   2.407   1.087  0.1269 -0.6853  0.2714
  206MOL   C14633356   3.637   2.206   0.996 -0.3971  0.5804  0.9915
  206MOL   C14733357   3.553   2.085   0.954 -0.3242  0.0745  0.2348
  206MOL   C14833358   3.598   1.947   1.012 -0.3352  0.0039 -1.0232
  206MOL   O14933359   3.664   1.944   1.118 -0.7821  0.3652  0.6458
  206MOL   H15033360   3.736   2.182   1.035  0.4682  0.5708 -1.1092
  206MOL   H15133361   3.657   2.272   0.911 -1.2995 -3.7166 -2.7763
  206MOL   H15233362   3.535   2.071   0.847  1.0980  0.1744 -0.0288
  206MOL   H15333363   3.455   2.103   0.999  0.3737  0.2378  1.7257
  206MOL   C15433364   3.546   1.819   0.950 -0.3517 -0.5764 -0.5685
  206MOL   C15533365   3.614   1.797   0.818 -1.0214 -1.2809  0.1226
  206MOL   C15633366   3.596   1.663   0.760 -1.0492 -0.2322 -0.3766
  206MOL   O15733367   3.524   1.572   0.797 -0.5277  0.0376  0.1775
  206MOL   H15833368   3.439   1.831   0.931 -0.0432  0.8008 -1.4680
  206MOL   H15933369   3.560   1.741   1.026 -2.2163  0.8514  1.3140
  206MOL   H16033370   3.720   1.819   0.835 -1.2931 -0.7636  1.2307
  206MOL   H16133371   3.571   1.870   0.750  0.7464 -2.1443 -1.9674
  206MOL   H16233372   3.662   1.657   0.672 -0.2457  1.4842  0.0808
  207MOL     C133373   0.244   4.564   5.760 -0.8133  0.5667 -0.0025
  207MOL     C233374   0.342   4.665   5.825  0.1693  0.1052 -0.2717
  207MOL     C333375   0.348   4.639   5.976 -0.0825 -0.8290  0.3983
  207MOL     O433376   0.300   4.721   6.056 -0.2009  0.3482  0.4811
  207MOL     H533377   0.149   4.548   5.812 -0.8694  3.1488  0.7447
  207MOL     H633378   0.233   4.603   5.659  2.1601  0.5664 -0.3617
  207MOL     H733379   0.299   4.764   5.811 -0.0666  0.0913  0.3427
  207MOL     H833380   0.445   4.654   5.790 -0.2746 -1.2188 -1.1568
  207MOL     H933381   0.298   4.470   5.747 -0.3586  0.9006 -0.5241
  207MOL    C1033382   0.406   4.510   6.018 -0.2995  0.2980  0.0802
  207MOL    C1133383   0.313   4.419   6.103 -0.8129  0.1071  0.5634
  207MOL    C1233384   0.313   4.458   6.248  0.2094  0.2790 -0.3681
  207MOL    O1333385   0.420   4.481   6.302  0.0714  0.5819  0.3428
  207MOL    H1433386   0.491   4.537   6.081  0.3478 -0.3049 -0.5173
  207MOL    H1533387   0.439   4.450   5.933 -3.6545 -0.6383 -0.6155
  207MOL    H1633388   0.348   4.316   6.091 -2.9972 -0.4657 -1.5261
  207MOL    H1733389   0.209   4.412   6.069 -0.1863 -0.3674 -1.3135
  207MOL    C1833390   0.183   4.498   6.322 -0.2456  0.4396  0.0799
  207MOL    C1933391   0.189   4.488   6.471 -0.1592  0.4974  0.4384
  207MOL    C2033392   0.118   4.363   6.523  0.5130 -0.1205 -0.1553
  207MOL    O2133393   0.014   4.373   6.586  0.2345  0.1537  0.0119
  207MOL    H2233394   0.101   4.443   6.275  0.2743 -0.5180  0.2843
  207MOL    H2333395   0.175   4.600   6.283 -0.9040  1.0187  1.6795
  207MOL    H2433396   0.165   4.581   6.522  2.2895  1.4410 -0.0373
  207MOL    H2533397   0.292   4.471   6.504 -0.2904  1.6475  1.4892
  207MOL    C2633398   0.184   4.232   6.490  0.1506 -0.7883 -0.2404
  207MOL    C2733399   0.080   4.120   6.472  0.5877  0.6005 -0.0427
  207MOL    C2833400   0.072   4.083   6.329  0.2067 -0.4795  0.5290
  207MOL    O2933401   0.034   4.166   6.247 -0.1335  0.6797 -0.0815
  207MOL    H3033402   0.250   4.206   6.573 -0.5272  1.5158  1.0637
  207MOL    H3133403   0.261   4.242   6.412  1.6671 -0.1940  1.3023
  207MOL    H3233404   7.837   4.142   6.503 -0.7561 -2.1948 -2.2710
  207MOL    H3333405   0.101   4.027   6.524  0.9769  1.6035  1.6305
  207MOL    C3433406   0.097   3.938   6.302 -0.1789  0.3014  0.1159
  207MOL    C3533407   0.171   3.904   6.161  0.1111  0.2335  0.6793
  207MOL    C3633408   0.083   3.872   6.039 -0.8272 -0.6054 -0.2308
  207MOL    O3733409   7.820   3.897   6.035  0.1933  0.8605  0.8500
  207MOL    H3833410   7.856   3.896   6.309 -1.0587  2.4515  0.9376
  207MOL    H3933411   0.153   3.898   6.386 -2.8034 -0.6127  1.4718
  207MOL    H4033412   0.240   3.823   6.187 -2.6038 -1.8591  1.6646
  207MOL    H4133413   0.245   3.983   6.147  2.6893 -2.2611 -0.4885
  207MOL    C4233414   0.158   3.838   5.910  0.6659 -0.6988 -0.6378
  207MOL    C4333415   0.148   3.941   5.792  0.1674 -0.0050  0.0657
  207MOL    C4433416   0.276   4.021   5.790 -0.0247 -0.0306 -0.4820
  207MOL    O4533417   0.316   4.082   5.890 -0.1007  0.0943  0.1408
  207MOL    H4633418   0.143   3.734   5.881  0.3268 -0.6717 -0.5629
  207MOL    H4733419   0.261   3.843   5.944 -0.3384  4.1900  2.0874
  207MOL    H4833420   0.064   4.010   5.799  0.3111  0.2849 -0.9850
  207MOL    H4933421   0.145   3.885   5.699  1.9302  1.0108 -0.6302
  207MOL    C5033422   0.363   4.006   5.662 -0.0572 -0.8001 -0.4879
  207MOL    C5133423   0.492   4.085   5.655  0.0514 -0.0067 -0.1079
  207MOL    C5233424   0.486   4.228   5.613  0.6097  0.0155 -0.0987
  207MOL    O5333425   0.377   4.285   5.609 -0.1103  0.1146  0.3657
  207MOL    H5433426   0.303   4.039   5.577  1.2192 -1.1752 -1.5522
  207MOL    H5533427   0.382   3.901   5.641  1.0823 -0.7535  0.2801
  207MOL    H5633428   0.565   4.026   5.600  1.4747 -0.4325  2.1876
  207MOL    H5733429   0.533   4.105   5.754  0.4656 -1.2618 -0.0276
  207MOL    C5833430   0.615   4.294   5.572  0.1248 -0.2932 -0.3306
  207MOL    C5933431   0.614   4.444   5.547 -0.3094 -0.3874 -0.2756
  207MOL    C6033432   0.683   4.527   5.654  0.5494  0.2317 -0.7882
  207MOL    O6133433   0.734   4.465   5.748 -0.3428 -0.6047 -0.6718
  207MOL    H6233434   0.648   4.241   5.483  0.2394  0.1864 -0.5778
  207MOL    H6333435   0.692   4.274   5.646 -0.1166 -0.3650 -0.0971
  207MOL    H6433436   0.515   4.485   5.526  0.7118  2.1434 -0.2879
  207MOL    H6533437   0.678   4.456   5.459  0.4174  0.1458  0.3213
  207MOL    C6633438   0.701   4.673   5.630  1.0691 -0.1642 -0.4912
  207MOL    C6733439   0.843   4.732   5.642  0.4695  0.0448 -0.2435
  207MOL    C6833440   0.854   4.874   5.596 -0.0847 -0.0985 -0.3654
  207MOL    O6933441   0.757   4.940   5.560  0.2633  0.6697  0.1811
  207MOL    H7033442   0.623   4.716   5.693  0.5187  0.4498 -1.5772
  207MOL    H7133443   0.656   4.698   5.533 -1.2745 -3.1967 -0.2851
  207MOL    H7233444   0.918   4.666   5.598  0.1538 -1.3606  1.2734
  207MOL    H7333445   0.873   4.725   5.747  0.8680  2.3297 -0.1910
  207MOL    C7433446   0.991   4.941   5.588  0.1523 -0.3630  0.5629
  207MOL    C7533447   1.007   5.067   5.680  0.3240  0.1963 -0.7330
  207MOL    C7633448   1.009   5.025   5.829 -0.5411 -0.0489 -1.0117
  207MOL    O7733449   1.018   4.907   5.871 -0.5356  0.4152 -0.0557
  207MOL    H7833450   1.012   4.963   5.483  2.1774  2.9710  1.5869
  207MOL    H7933451   1.070   4.877   5.628 -0.6166 -1.7047 -0.0419
  207MOL    H8033452   0.938   5.149   5.659 -0.2149 -0.2861 -0.8565
  207MOL    H8133453   1.105   5.111   5.659 -0.2547  1.6620 -0.4102
  207MOL    C8233454   1.009   5.140   5.926  0.0243  0.6923  0.3852
  207MOL    C8333455   0.957   5.095   6.063  0.1255 -0.3069 -0.4662
  207MOL    C8433456   0.959   5.198   6.178 -0.2406 -0.2999 -0.5128
  207MOL    O8533457   1.039   5.291   6.177  0.0254 -0.5472  0.4233
  207MOL    H8633458   0.951   5.219   5.879 -0.9190  0.3118  0.9010
  207MOL    H8733459   1.107   5.185   5.943  0.0900 -0.0686  2.1893
  207MOL    H8833460   1.003   5.003   6.099  0.6079  0.4847  1.0337
  207MOL    H8933461   0.854   5.064   6.050  0.8472 -2.6092 -0.8756
  207MOL    C9033462   0.853   5.193   6.282  0.1517  0.5691 -0.0884
  207MOL    C9133463   0.840   5.316   6.373 -0.9069  0.0058  0.0641
  207MOL    C9233464   0.882   5.309   6.516 -0.1725 -0.5851  0.4913
  207MOL    O9333465   0.941   5.212   6.564 -0.9459 -0.1275 -0.1145
  207MOL    H9433466   0.871   5.104   6.342 -0.7429  0.6357  0.2847
  207MOL    H9533467   0.755   5.176   6.236  0.0727  2.4432 -0.6481
  207MOL    H9633468   0.736   5.347   6.362 -0.6676  1.0474  0.6504
  207MOL    H9733469   0.887   5.401   6.323 -0.9646  0.3946  0.6668
  207MOL    C9833470   0.863   5.447   6.589 -0.3441  0.7414 -0.4707
  207MOL    C9933471   0.913   5.460   6.733  0.0306  0.3119  0.1949
  207MOL   C10033472   0.839   5.372   6.831 -0.2750  0.0376  0.2040
  207MOL   O10133473   0.718   5.344   6.812  0.1808  0.0281  0.1050
  207MOL   H10233474   0.756   5.468   6.590 -0.3220  0.8655 -0.5646
  207MOL   H10333475   0.912   5.523   6.527  0.4946 -0.2455 -1.0356
  207MOL   H10433476   0.912   5.562   6.772 -0.9523  0.2424  0.3632
  207MOL   H10533477   1.016   5.427   6.736  0.1949  0.5331 -2.1241
  207MOL   C10633478   0.917   5.347   6.956  0.5447  0.4977 -0.3843
  207MOL   C10733479   0.840   5.281   7.067  0.0929 -1.0784  0.3723
  207MOL   C10833480   0.939   5.276   7.187  0.7910 -0.1396 -0.0132
  207MOL   O10933481   0.942   5.378   7.256 -0.1924 -0.2831 -0.2168
  207MOL   H11033482   0.956   5.441   6.995 -1.5218  1.3305 -0.2791
  207MOL   H11133483   1.004   5.284   6.935 -0.2148 -0.9045  0.5427
  207MOL   H11233484   0.823   5.182   7.024  0.5592 -1.8717  1.9712
  207MOL   H11333485   0.749   5.332   7.098  1.2771  0.2890  1.6656
  207MOL   C11433486   0.992   5.141   7.234  0.4343 -0.0969  0.0914
  207MOL   C11533487   1.013   5.139   7.384  0.4093  0.2920  0.2377
  207MOL   C11633488   1.151   5.080   7.426 -0.4856 -0.1563 -0.1340
  207MOL   O11733489   1.161   4.999   7.515  0.4803 -0.4796  0.3571
  207MOL   H11833490   1.076   5.109   7.172 -0.1356 -1.3644 -0.0420
  207MOL   H11933491   0.911   5.070   7.218  2.0847 -2.0918  0.4070
  207MOL   H12033492   0.931   5.089   7.436  0.7278 -0.8925 -0.3668
  207MOL   H12133493   1.012   5.243   7.416 -0.2591  1.8785 -4.6114
  207MOL   C12233494   1.278   5.148   7.371 -0.0698 -0.5636 -0.1807
  207MOL   C12333495   1.393   5.157   7.473 -0.1524 -0.8619  0.5396
  207MOL   C12433496   1.450   5.294   7.482 -0.1285  0.3180  0.0552
  207MOL   O12533497   1.492   5.357   7.385  0.3042 -0.4111 -0.2192
  207MOL   H12633498   1.250   5.243   7.326  1.3875  0.7170  1.5867
  207MOL   H12733499   1.311   5.085   7.288  0.9571  0.8341 -0.8419
  207MOL   H12833500   1.470   5.081   7.462  0.3162 -0.7930  3.1835
  207MOL   H12933501   1.350   5.147   7.572 -1.5510  0.0421  0.0372
  207MOL   C13033502   1.430   5.366   7.616  0.5194  0.4297 -0.4523
  207MOL   C13133503   1.457   5.513   7.597  0.1785  0.7823  0.4902
  207MOL   C13233504   1.430   5.595   7.722  0.2075 -0.2281 -0.0854
  207MOL   O13333505   1.360   5.551   7.814 -0.1175  0.4528 -0.0059
  207MOL   H13433506   1.492   5.312   7.687 -2.9462 -2.9737  0.1283
  207MOL   H13533507   1.334   5.338   7.660  0.5136  1.1254 -0.0158
  207MOL   H13633508   1.392   5.553   7.519 -0.5567 -1.3040  0.0012
  207MOL   H13733509   1.563   5.520   7.572  0.1815  0.0648  0.2839
  207MOL   C13833510   1.484   5.733   7.727 -0.1705  0.8702  0.2522
  207MOL   C13933511   1.535   5.767   0.011 -0.0667 -0.5079  0.6899
  207MOL   C14033512   1.644   5.875   0.010 -0.1585  0.0575 -0.6337
  207MOL   O14133513   1.672   5.932   7.762  0.2273  0.2776 -0.6026
  207MOL   H14233514   1.416   5.811   7.692  0.7218  1.8422  0.6499
  207MOL   H14333515   1.571   5.732   7.661 -0.8897  1.7600 -0.7355
  207MOL   H14433516   1.578   5.684   0.065  2.5252 -0.6379 -1.4476
  207MOL   H14533517   1.455   5.806   0.075 -1.0341 -1.6883  0.2161
  207MOL   C14633518   1.714   5.913   0.142  0.0587 -0.3999  0.0778
  207MOL   C14733519   1.839   6.009   0.125  0.3675 -0.3941  0.0717
  207MOL   C14833520   1.954   5.914   0.073  0.2239 -0.3432  0.7976
  207MOL   O14933521   1.976   5.815   0.145 -0.2372  0.5970 -0.2146
  207MOL   H15033522   1.726   5.820   0.199  2.1892 -0.0635  0.2297
  207MOL   H15133523   1.643   5.970   0.202  0.0687  0.8337 -1.0638
  207MOL   H15233524   1.869   6.041   0.224 -1.7456  1.8546  0.0207
  207MOL   H15333525   1.813   6.097   0.067  1.6332 -0.3946 -0.5226
  207MOL   C15433526   2.022   5.960   7.803  0.0275 -0.1601 -0.1124
  207MOL   C15533527   2.139   5.870   7.753  0.5447 -0.4522 -0.4113
  207MOL   C15633528   2.270   5.957   7.746  0.1272 -0.3848  0.6183
  207MOL   O15733529   2.361   5.940   7.823  0.2763 -0.2906 -0.1553
  207MOL   H15833530   2.045   6.064   7.824 -1.5449  0.2964 -0.5529
  207MOL   H15933531   1.941   5.966   7.730 -0.6195  1.5902  0.7198
  207MOL   H16033532   2.122   5.834   7.652  0.3947 -1.6994  0.0435
  207MOL   H16133533   2.159   5.783   7.816  0.4521 -0.5368 -0.4987
  207MOL   H16233534   2.261   6.037   7.673 -0.5291 -0.9538  0.0693
  208MOL     C133535   4.222   2.746   0.529 -0.2692 -0.1668  0.1446
  208MOL     C233536   4.227   2.804   0.382 -0.1870 -0.1215 -1.1245
  208MOL     C333537   4.192   2.953   0.380  0.2629 -0.4059 -0.3188
  208MOL     O433538   4.171   3.025   0.477  0.1140  0.4972 -0.4346
  208MOL     H533539   4.125   2.783   0.562  0.4053  0.2464  1.6845
  208MOL     H633540   4.217   2.638   0.519 -1.3604 -0.0039 -1.2261
  208MOL     H733541   4.160   2.747   0.319 -1.8005  1.3423 -0.7681
  208MOL     H833542   4.321   2.780   0.332  0.4886  2.2369 -1.0471
  208MOL     H933543   4.300   2.777   0.599 -1.2432  2.4935  0.0861
  208MOL    C1033544   4.148   3.005   0.245  0.1835  0.0634  0.3014
  208MOL    C1133545   4.001   2.961   0.216 -0.3539  0.2917  0.0652
  208MOL    C1233546   3.922   3.063   0.142 -0.3061  0.1150 -0.1901
  208MOL    O1333547   3.983   3.143   0.064 -0.0570  0.2790  0.5035
  208MOL    H1433548   4.217   2.977   0.166 -0.1385  0.6958 -0.2138
  208MOL    H1533549   4.152   3.114   0.249  1.2672  0.1080 -1.4765
  208MOL    H1633550   3.940   2.952   0.306  0.7172 -1.0261  0.6813
  208MOL    H1733551   3.993   2.864   0.166  0.0490 -0.4116  1.3490
  208MOL    C1833552   3.771   3.065   0.163  0.0488  0.2186 -0.1508
  208MOL    C1933553   3.703   3.191   0.110  0.0533 -0.3255 -0.6929
  208MOL    C2033554   3.549   3.179   0.118 -0.3008 -0.0309  0.9411
  208MOL    O2133555   3.490   3.095   0.183  0.4949  0.3301 -0.4522
  208MOL    H2233556   3.759   3.059   0.271 -1.7088 -1.0148 -0.3844
  208MOL    H2333557   3.736   2.980   0.105  0.1908 -0.0639  0.1775
  208MOL    H2433558   3.732   3.198   0.005  2.7085 -0.8070 -0.0200
  208MOL    H2533559   3.743   3.277   0.163 -1.4544  1.2565 -2.0511
  208MOL    C2633560   3.471   3.284   0.049  0.5416 -0.9772  0.4000
  208MOL    C2733561   3.328   3.297   0.103 -0.0007 -0.0551  0.0907
  208MOL    C2833562   3.237   3.249   7.845  0.9658 -1.0739 -0.4483
  208MOL    O2933563   3.266   3.148   7.781  0.2445  0.2530 -0.2253
  208MOL    H3033564   3.486   3.260   7.803 -0.9977 -0.0612 -0.0483
  208MOL    H3133565   3.517   3.382   0.062  0.3927 -1.0134  1.2866
  208MOL    H3233566   3.303   3.398   0.137 -0.5409  0.8979 -2.9503
  208MOL    H3333567   3.309   3.230   0.187 -1.4618  0.4370  0.1732
  208MOL    C3433568   3.118   3.338   7.807  0.1594  0.5599 -0.0209
  208MOL    C3533569   3.080   3.328   7.655 -0.3636  0.0811 -0.2492
  208MOL    C3633570   3.150   3.424   7.561 -0.4843 -0.3084  0.0917
  208MOL    O3733571   3.259   3.466   7.594  0.1993  0.1065  0.1891
  208MOL    H3833572   3.128   3.439   7.846 -0.8253  1.8004 -2.8042
  208MOL    H3933573   3.034   3.303   0.007 -0.2111  0.7702 -0.4189
  208MOL    H4033574   2.973   3.350   7.650 -0.2262  0.5983 -1.0550
  208MOL    H4133575   3.084   3.228   7.613  1.8172  1.7043 -4.1220
  208MOL    C4233576   3.099   3.436   7.418 -0.0194 -0.1450 -0.2456
  208MOL    C4333577   3.208   3.416   7.316  0.6653  0.8335 -0.4926
  208MOL    C4433578   3.275   3.550   7.279  0.1336  0.4000 -0.0825
  208MOL    O4533579   3.217   3.637   7.213  0.2647  0.7486 -0.2759
  208MOL    H4633580   3.047   3.527   7.389  2.0125  0.8972 -0.7573
  208MOL    H4733581   3.022   3.360   7.405 -0.3185  0.2364 -0.6874
  208MOL    H4833582   3.170   3.374   7.223  0.7701  4.1706 -2.1124
  208MOL    H4933583   3.281   3.348   7.360 -1.9577 -2.9994 -1.8285
  208MOL    C5033584   3.419   3.570   7.326 -0.6498 -0.2443 -0.3311
  208MOL    C5133585   3.437   3.696   7.413  0.0388 -0.0708  0.2123
  208MOL    C5233586   3.515   3.666   7.540 -0.2913  0.1380 -0.1646
  208MOL    O5333587   3.576   3.559   7.555  0.0082 -0.3151 -0.0999
  208MOL    H5433588   3.486   3.561   7.241  1.7955  1.0296  1.3845
  208MOL    H5533589   3.448   3.486   7.389 -0.5682 -0.5502 -0.7767
  208MOL    H5633590   3.340   3.736   7.442 -0.0931  0.6952 -1.2309
  208MOL    H5733591   3.483   3.778   7.357  0.7830 -1.4401 -1.2386
  208MOL    C5833592   3.517   3.765   7.653 -0.5463 -1.0841 -0.4077
  208MOL    C5933593   3.582   3.711   7.786 -0.2199 -0.4798 -0.7009
  208MOL    C6033594   3.562   3.823   0.036  0.1557  0.6063 -0.4266
  208MOL    O6133595   3.470   3.904   0.032 -0.2349  0.0181  0.5113
  208MOL    H6233596   3.412   3.789   7.669 -0.4816 -0.0789 -1.4424
  208MOL    H6333597   3.551   3.859   7.610 -1.2795 -0.8046 -0.3805
  208MOL    H6433598   3.690   3.709   7.774 -0.1653 -1.3889 -0.0910
  208MOL    H6533599   3.557   3.611   7.819 -2.1396 -0.1134 -1.0029
  208MOL    C6633600   3.655   3.814   0.156 -0.6166  0.7315 -0.6634
  208MOL    C6733601   3.616   3.707   0.256  0.8595  0.2713 -0.5189
  208MOL    C6833602   3.721   3.600   0.288  0.0857 -0.2639 -0.1161
  208MOL    O6933603   3.697   3.479   0.280  0.1025 -0.3113  0.6830
  208MOL    H7033604   3.660   3.913   0.203  2.2033  0.2489  0.1219
  208MOL    H7133605   3.754   3.796   0.115  0.5494  0.6565  2.0824
  208MOL    H7233606   3.530   3.655   0.215 -0.2211  0.3302  1.6271
  208MOL    H7333607   3.583   3.750   0.351 -0.3341 -1.8545  0.0571
  208MOL    C7433608   3.856   3.639   0.333  0.4627 -0.0795  0.3226
  208MOL    C7533609   3.883   3.627   0.480  0.0451  0.6238  0.7274
  208MOL    C7633610   3.990   3.717   0.527  0.2708  0.2849  0.1083
  208MOL    O7733611   4.040   3.800   0.449  0.0423 -0.2973  0.0767
  208MOL    H7833612   3.872   3.739   0.295 -2.4062  0.3045  0.0488
  208MOL    H7933613   3.927   3.572   0.284  0.9006  1.7213 -1.5625
  208MOL    H8033614   3.892   3.525   0.517  0.7979  0.4585  0.1102
  208MOL    H8133615   3.794   3.666   0.529 -0.4608  4.2479 -2.8087
  208MOL    C8233616   4.041   3.693   0.673  0.1283 -0.2979 -0.7437
  208MOL    C8333617   4.119   3.803   0.747  0.1893 -0.0043  0.2582
  208MOL    C8433618   4.272   3.790   0.744 -0.5637  0.0991 -0.2038
  208MOL    O8533619   4.324   3.727   0.832  0.0928  0.2076 -0.1716
  208MOL    H8633620   4.100   3.602   0.675 -1.0358 -1.0916  3.2063
  208MOL    H8733621   3.954   3.659   0.730 -0.1333 -0.8806 -1.4919
  208MOL    H8833622   4.089   3.797   0.851 -0.7759  2.5298  0.1549
  208MOL    H8933623   4.098   3.900   0.702  2.2717 -1.8709 -5.1278
  208MOL    C9033624   4.342   3.856   0.624  0.3121 -1.1209 -0.1682
  208MOL    C9133625   4.493   3.845   0.616 -0.5456  0.6932  0.5661
  208MOL    C9233626   4.550   3.894   0.484  0.2662 -0.0944 -0.2757
  208MOL    O9333627   4.613   4.004   0.472  0.2238 -0.1143 -0.8560
  208MOL    H9433628   4.312   3.960   0.627  2.7360 -0.3932 -0.6168
  208MOL    H9533629   4.297   3.806   0.538  0.4232 -2.2177  0.3972
  208MOL    H9633630   4.529   3.744   0.637 -1.2099  0.3610  0.1315
  208MOL    H9733631   4.529   3.912   0.695  1.4354  1.9902 -1.3654
  208MOL    C9833632   4.524   3.814   0.361 -0.3545 -0.1524  0.4731
  208MOL    C9933633   4.572   3.879   0.228  0.2085  0.0068 -0.2469
  208MOL   C10033634   4.723   3.881   0.216  0.4572  0.8575 -0.5630
  208MOL   O10133635   4.784   3.775   0.217 -0.8768 -1.0930  0.4004
  208MOL   H10233636   4.423   3.775   0.347 -0.2942  0.3460 -1.6435
  208MOL   H10333637   4.575   3.720   0.380  0.6285  0.3803  0.5136
  208MOL   H10433638   4.537   3.982   0.214 -0.9130  0.2433  3.7819
  208MOL   H10533639   4.532   3.825   0.143  1.2027 -0.9526 -0.1085
  208MOL   C10633640   4.795   4.010   0.223  0.2515 -0.8852  0.5445
  208MOL   C10733641   4.933   4.006   0.286 -0.2586 -0.4674 -0.3730
  208MOL   C10833642   4.937   4.041   0.434 -0.5363 -0.1112  0.3709
  208MOL   O10933643   4.927   4.159   0.469 -0.5584  0.1338 -0.5031
  208MOL   H11033644   4.733   4.083   0.275  1.5401  1.5283 -1.1610
  208MOL   H11133645   4.807   4.059   0.126  1.7178 -0.2023  1.0433
  208MOL   H11233646   4.995   4.083   0.239  0.0921 -0.2690  0.4190
  208MOL   H11333647   4.991   3.914   0.278  2.1283  0.7823  1.8186
  208MOL   C11433648   4.954   3.934   0.539 -0.1512 -0.1588 -0.7910
  208MOL   C11533649   5.043   3.974   0.655 -0.0234  0.3079  0.1717
  208MOL   C11633650   5.183   3.906   0.650 -0.1394 -0.4035  0.5727
  208MOL   O11733651   5.266   3.958   0.571 -0.3386 -0.8432 -0.1999
  208MOL   H11833652   4.992   3.846   0.487  0.7694 -0.9876  1.2384
  208MOL   H11933653   4.855   3.912   0.580 -0.4944  2.0771 -0.3593
  208MOL   H12033654   4.995   3.964   0.752  0.9434  0.6710  0.6958
  208MOL   H12133655   5.059   4.082   0.662  1.4051  0.0867  0.3730
  208MOL   C12233656   5.204   3.774   0.726  0.1187 -0.3940 -0.7701
  208MOL   C12333657   5.343   3.716   0.726  0.2226 -0.1002 -0.4157
  208MOL   C12433658   5.376   3.640   0.854 -0.0133 -0.4204  0.5489
  208MOL   O12533659   5.310   3.664   0.954  0.0105 -0.1326  0.2119
  208MOL   H12633660   5.128   3.703   0.695 -0.7622  0.9590 -1.7684
  208MOL   H12733661   5.173   3.797   0.828  3.4365  1.7458 -0.1552
  208MOL   H12833662   5.406   3.804   0.724  0.3282 -0.1839 -0.9796
  208MOL   H12933663   5.355   3.652   0.638  0.7026 -0.1760 -0.2955
  208MOL   C13033664   5.486   3.533   0.851  0.2515 -0.0058 -0.0126
  208MOL   C13133665   5.442   3.392   0.891 -0.3085  0.2657  0.0165
  208MOL   C13233666   5.344   3.320   0.795 -0.2220 -0.2031 -0.2603
  208MOL   O13333667   5.297   3.373   0.692 -0.1589  0.3049 -0.1715
  208MOL   H13433668   5.557   3.565   0.928 -1.4004  0.6392  1.2685
  208MOL   H13533669   5.538   3.528   0.755  0.2955 -3.0394  0.1094
  208MOL   H13633670   5.400   3.383   0.992  2.4910 -0.5312  1.1558
  208MOL   H13733671   5.528   3.326   0.902  0.6278  1.4489 -0.0736
  208MOL   C13833672   5.304   3.180   0.837 -0.5681  0.5135 -0.2819
  208MOL   C13933673   5.238   3.102   0.718 -0.3593  0.1224 -0.2223
  208MOL   C14033674   5.225   2.952   0.745  0.0339  1.1191 -0.4536
  208MOL   O14133675   5.273   2.894   0.845 -0.3657 -0.0043  0.4113
  208MOL   H14233676   5.244   3.193   0.927  0.0322  2.6910 -0.1810
  208MOL   H14333677   5.397   3.132   0.869  1.3176  1.9009 -3.4708
  208MOL   H14433678   5.296   3.116   0.627  0.6608  0.1631  0.4248
  208MOL   H14533679   5.136   3.137   0.700 -0.1428  0.2731 -1.2107
  208MOL   C14633680   5.168   2.872   0.630  0.5610 -0.7077 -0.7896
  208MOL   C14733681   5.159   2.715   0.642  0.4721  0.2473 -0.1796
  208MOL   C14833682   5.021   2.662   0.605 -0.9400 -0.6879 -0.1891
  208MOL   O14933683   4.957   2.692   0.500 -0.2840 -0.0896  0.0147
  208MOL   H15033684   5.215   2.901   0.536 -1.2516 -2.7813 -2.3988
  208MOL   H15133685   5.068   2.916   0.631  1.1944  0.8482 -2.9864
  208MOL   H15233686   5.174   2.676   0.742 -1.4135 -1.2210 -0.4344
  208MOL   H15333687   5.231   2.665   0.577 -1.0317  0.2153 -1.8474
  208MOL   C15433688   4.965   2.548   0.692 -0.3660 -0.4813 -0.2236
  208MOL   C15533689   4.848   2.470   0.634  0.5433  0.1262  0.0095
  208MOL   C15633690   4.764   2.397   0.737 -0.2315 -0.1358  0.9502
  208MOL   O15733691   4.825   2.345   0.827 -0.1475  0.1398  0.5531
  208MOL   H15833692   4.927   2.597   0.781 -3.1371 -2.3763 -0.3096
  208MOL   H15933693   5.049   2.490   0.731  0.1269 -0.1613 -0.8041
  208MOL   H16033694   4.888   2.382   0.583 -0.0779 -1.2835  1.9073
  208MOL   H16133695   4.784   2.530   0.569  0.3477  1.0121  1.0130
  208MOL   H16233696   4.657   2.388   0.722  0.1412 -1.6422 -0.9507
  209MOL     C133697   0.210   4.708   1.603 -0.0222  0.3774  0.4700
  209MOL     C233698   0.272   4.832   1.545  0.6929 -0.7722  0.4791
  209MOL     C333699   0.426   4.830   1.552 -0.0306  0.2639  0.6017
  209MOL     O433700   0.494   4.728   1.548  0.7211  0.1081  0.3649
  209MOL     H533701   0.103   4.719   1.585  0.3377  0.2559 -1.8768
  209MOL     H633702   0.247   4.624   1.543  0.4133  0.8524  0.0716
  209MOL     H733703   0.230   4.916   1.601 -0.0727 -1.1282  0.4566
  209MOL     H833704   0.237   4.862   1.447 -1.6467 -0.0169  1.4975
  209MOL     H933705   0.237   4.709   1.709 -1.4766 -0.4996  0.8737
  209MOL    C1033706   0.487   4.966   1.565 -0.3682  0.2636 -0.4272
  209MOL    C1133707   0.638   4.975   1.559  0.0330  0.2514  0.3900
  209MOL    C1233708   0.689   5.096   1.629 -0.3075  0.2262  0.7563
  209MOL    O1333709   0.620   5.192   1.671  0.1514  0.1950 -0.2178
  209MOL    H1433710   0.457   5.004   1.663  0.6898 -0.9213  0.3865
  209MOL    H1533711   0.438   5.031   1.493  1.4209  1.2682 -0.7566
  209MOL    H1633712   0.679   4.977   1.457 -0.8865  0.3491  0.0162
  209MOL    H1733713   0.680   4.877   1.584 -0.3727 -0.9345 -3.1340
  209MOL    C1833714   0.842   5.094   1.664 -0.1733  0.1702  0.5612
  209MOL    C1933715   0.894   5.234   1.702 -0.4336 -0.0597  0.0966
  209MOL    C2033716   1.046   5.220   1.712  0.2560 -0.3059 -0.4838
  209MOL    O2133717   1.112   5.144   1.642 -0.0616 -0.4865  0.1348
  209MOL    H2233718   0.898   5.061   1.576 -0.3013  1.2330  0.0680
  209MOL    H2333719   0.858   5.026   1.747 -1.8710 -0.9398  0.0056
  209MOL    H2433720   0.830   5.261   1.787  0.6635  1.4875  0.4472
  209MOL    H2533721   0.881   5.306   1.622 -0.8414  0.6140  0.7562
  209MOL    C2633722   1.119   5.288   1.823 -0.4083 -0.0672 -0.5872
  209MOL    C2733723   1.264   5.314   1.787 -0.0885  0.1932  0.6178
  209MOL    C2833724   1.322   5.411   1.889  0.0648  0.1095  0.8335
  209MOL    O2933725   1.252   5.473   1.966  0.4372 -0.0901 -0.2703
  209MOL    H3033726   1.112   5.232   1.917  0.1882  2.8108  1.2514
  209MOL    H3133727   1.066   5.380   1.851 -2.0128 -1.1351 -0.0510
  209MOL    H3233728   1.289   5.362   1.692  2.8049 -2.2918  0.0112
  209MOL    H3333729   1.330   5.227   1.791 -0.5328 -0.1107  1.4143
  209MOL    C3433730   1.471   5.436   1.883  0.1832  0.0380  0.3532
  209MOL    C3533731   1.525   5.545   1.971 -0.8565  0.1004 -0.1611
  209MOL    C3633732   1.612   5.472   2.074 -0.0483 -0.1019  0.4135
  209MOL    O3733733   1.724   5.442   2.039 -0.4120  0.3160 -0.1004
  209MOL    H3833734   1.490   5.461   1.778  0.3260 -1.7087 -0.0498
  209MOL    H3933735   1.516   5.338   1.899 -0.2103 -0.0138  1.1591
  209MOL    H4033736   1.446   5.606   2.015  0.8924  3.4502 -1.4977
  209MOL    H4133737   1.597   5.614   1.928 -1.0275  1.5651  1.8126
  209MOL    C4233738   1.558   5.455   2.219 -0.1940  0.9170 -0.1017
  209MOL    C4333739   1.625   5.346   2.304  0.5648  0.4468  0.8853
  209MOL    C4433740   1.711   5.407   2.416 -1.2898  0.5375  0.0595
  209MOL    O4533741   1.749   5.528   2.421  0.1038  0.0173 -0.1717
  209MOL    H4633742   1.452   5.436   2.207 -0.3174  0.1942  2.0173
  209MOL    H4733743   1.569   5.546   2.278  1.6096  1.6461 -1.4947
  209MOL    H4833744   1.670   5.276   2.234  1.6473  2.3904 -0.4280
  209MOL    H4933745   1.549   5.288   2.356  1.5901 -1.2068  0.5738
  209MOL    C5033746   1.733   5.321   2.544 -0.1460 -0.6258  0.1537
  209MOL    C5133747   1.768   5.391   2.676 -0.5111  0.2121  0.5129
  209MOL    C5233748   1.917   5.363   2.717  0.3523  0.4403  0.2686
  209MOL    O5333749   1.972   5.254   2.703  0.4932 -0.2621 -0.1787
  209MOL    H5433750   1.812   5.253   2.514  1.2006  0.1178  1.9653
  209MOL    H5533751   1.639   5.266   2.556 -1.4434  1.2836 -0.9940
  209MOL    H5633752   1.688   5.362   2.744 -2.0677  2.0985 -0.4748
  209MOL    H5733753   1.760   5.497   2.654 -4.2820  0.0755  0.8964
  209MOL    C5833754   1.980   5.476   2.792  0.9403  0.4290 -0.3575
  209MOL    C5933755   2.133   5.465   2.811  0.5256 -0.1751  0.1421
  209MOL    C6033756   2.151   5.396   2.942  0.2505 -0.2763  0.0317
  209MOL    O6133757   2.128   5.453   3.048 -0.1286  0.0550  0.0222
  209MOL    H6233758   1.936   5.486   2.891 -1.1740  0.8647 -1.3212
  209MOL    H6333759   1.954   5.563   2.732 -0.2710  1.3144  1.4252
  209MOL    H6433760   2.182   5.562   2.811  0.3536 -0.0695 -1.9552
  209MOL    H6533761   2.167   5.395   2.735 -1.9506 -0.6701 -0.5651
  209MOL    C6633762   2.181   5.252   2.945  1.0003 -0.1580 -0.2624
  209MOL    C6733763   2.087   5.171   3.038  0.6615  0.3023  0.1567
  209MOL    C6833764   2.158   5.118   3.156  0.3547  0.8107  0.2592
  209MOL    O6933765   2.166   4.994   3.184  0.8769  0.0393  0.4253
  209MOL    H7033766   2.286   5.249   2.975  0.8137 -0.4309  0.3813
  209MOL    H7133767   2.196   5.205   2.848  0.1104 -1.4866  0.2171
  209MOL    H7233768   2.039   5.089   2.985  0.0227 -0.0013  1.1872
  209MOL    H7333769   1.998   5.232   3.057  0.3566 -0.2466  0.4967
  209MOL    C7433770   2.204   5.223   3.256  0.0759  0.5811  0.7881
  209MOL    C7533771   2.351   5.233   3.240 -0.0207 -0.9091  1.0726
  209MOL    C7633772   2.421   5.287   3.366 -0.5291 -0.2141 -0.5933
  209MOL    O7733773   2.424   5.222   3.471 -0.2753  0.2392 -0.1039
  209MOL    H7833774   2.169   5.207   3.358 -2.4373  2.8467  0.3510
  209MOL    H7933775   2.148   5.313   3.232 -0.2585  0.2253  0.2263
  209MOL    H8033776   2.388   5.289   3.153  0.9981 -1.9423  0.8307
  209MOL    H8133777   2.391   5.134   3.218 -0.2257 -0.3742 -1.9624
  209MOL    C8233778   2.464   5.431   3.361  0.4471 -0.2699 -0.4905
  209MOL    C8333779   2.350   5.509   3.435  0.0064 -0.2994  0.0504
  209MOL    C8433780   2.372   5.663   3.444  0.6242 -0.4609  0.2806
  209MOL    O8533781   2.457   5.724   3.381 -0.1092 -0.1766 -0.3387
  209MOL    H8633782   2.472   5.472   3.261  1.1420  0.2612 -0.2238
  209MOL    H8733783   2.565   5.451   3.396  0.9705 -1.7863 -1.1347
  209MOL    H8833784   2.342   5.472   3.537  0.0793 -0.2363  0.0791
  209MOL    H8933785   2.252   5.495   3.389 -0.1846 -0.1443  0.4074
  209MOL    C9033786   2.295   5.733   3.564  0.2578  0.0762 -0.0720
  209MOL    C9133787   2.318   5.889   3.558 -0.2140 -0.1908  0.0812
  209MOL    C9233788   2.323   5.949   3.697  0.5369 -0.6391 -0.0545
  209MOL    O9333789   2.248   5.912   3.783 -0.0096 -0.1738  0.1227
  209MOL    H9433790   2.335   5.698   3.660  0.5216  2.7763  0.8416
  209MOL    H9533791   2.188   5.712   3.563 -0.1798  1.9566 -4.4712
  209MOL    H9633792   2.245   5.935   3.492  0.0389 -1.5711 -1.1909
  209MOL    H9733793   2.417   5.908   3.516 -0.0791  0.1640  0.5499
  209MOL    C9833794   2.398   6.082   3.699  0.1948  0.8359  0.4943
  209MOL    C9933795   2.325   6.191   3.783 -0.2447  0.7457 -1.2370
  209MOL   C10033796   2.293   6.317   3.708  0.2996 -0.0809 -0.5397
  209MOL   O10133797   2.369   6.409   3.708  0.2560  0.2362  0.4721
  209MOL   H10233798   2.408   6.114   3.595  0.4125  2.0033  0.8717
  209MOL   H10333799   2.496   6.060   3.741 -0.4158  0.0216  1.5142
  209MOL   H10433800   2.393   6.211   3.866  0.4678 -1.1876 -1.3223
  209MOL   H10533801   2.236   6.153   3.833  0.3864  1.4227  0.4252
  209MOL   C10633802   2.170   6.313   3.630  0.6446  0.6052 -0.5342
  209MOL   C10733803   2.160   6.366   3.482  0.1431 -0.5754  0.1057
  209MOL   C10833804   2.140   6.258   3.376 -0.4113 -0.3189 -0.1649
  209MOL   O10933805   2.204   6.148   3.379 -0.0288 -0.3280 -0.2175
  209MOL   H11033806   2.112   6.372   3.701  0.4051  1.4500 -1.4209
  209MOL   H11133807   2.134   6.210   3.638  1.0819  0.5083  0.1890
  209MOL   H11233808   2.259   6.407   3.459 -0.3244  1.5366  1.7613
  209MOL   H11333809   2.080   6.437   3.464 -0.6242 -1.4178  0.1487
  209MOL   C11433810   2.049   6.293   3.257  0.1655  0.4196 -0.0627
  209MOL   C11533811   2.118   6.391   3.167 -0.3471 -0.2027 -0.2423
  209MOL   C11633812   2.082   6.377   3.016  0.0403 -0.7452  0.5079
  209MOL   O11733813   2.158   6.328   2.934  0.0885  0.3381  0.1423
  209MOL   H11833814   1.959   6.341   3.296  1.7675  0.1794  4.1946
  209MOL   H11933815   2.028   6.203   3.200 -0.8373  1.0807 -0.7484
  209MOL   H12033816   2.226   6.378   3.174 -0.1503  1.2299 -0.5752
  209MOL   H12133817   2.093   6.493   3.194 -0.6850  0.0774 -1.5683
  209MOL   C12233818   1.944   6.428   2.982  0.7324  0.2154  0.0105
  209MOL   C12333819   1.857   6.325   2.919 -0.2453  0.6838 -0.1090
  209MOL   C12433820   1.766   6.249   3.009 -0.5894 -0.5447 -1.1985
  209MOL   O12533821   1.767   6.272   3.131  0.4909  0.3020 -0.0442
  209MOL   H12633822   1.954   6.511   2.912 -0.9863  1.8486  1.6570
  209MOL   H12733823   1.890   6.474   3.064 -1.5297  1.2744 -2.0172
  209MOL   H12833824   1.913   6.250   2.862 -0.5144 -1.4808  2.3625
  209MOL   H12933825   1.807   6.378   2.838  0.5853 -0.4368 -1.3755
  209MOL   C13033826   1.677   6.136   2.956 -0.2723  0.0910 -0.2016
  209MOL   C13133827   1.562   6.092   3.047 -0.6356 -0.1954  0.4393
  209MOL   C13233828   1.438   6.162   3.004 -0.1298  0.2639  0.0711
  209MOL   O13333829   1.339   6.097   2.979  0.3323  0.1837 -0.6051
  209MOL   H13433830   1.740   6.052   2.929 -1.2865 -0.3177 -1.3461
  209MOL   H13533831   1.639   6.182   2.865 -0.1480 -2.0905 -1.3752
  209MOL   H13633832   1.589   6.115   3.150 -0.0487  1.1049  0.0039
  209MOL   H13733833   1.538   5.986   3.043 -1.3190 -0.0297  0.0557
  209MOL   C13833834   1.433   6.320   2.992 -0.1334  0.9335  0.3118
  209MOL   C13933835   1.290   6.369   2.964 -0.0072  0.4708  0.4006
  209MOL   C14033836   1.276   6.509   2.898  0.0111  0.7987  0.0784
  209MOL   O14133837   1.371   6.584   2.888 -0.2629  0.4932  0.1900
  209MOL   H14233838   1.503   6.356   2.916 -1.5985  1.5332 -0.7732
  209MOL   H14333839   1.467   6.358   3.088  1.7403 -0.9809  0.4422
  209MOL   H14433840   1.224   6.367   3.050  1.4547  0.6711  1.5465
  209MOL   H14533841   1.241   6.300   2.895  2.2641 -0.7691 -0.0006
  209MOL   C14633842   1.143   6.543   2.833 -0.1130  0.5753  0.1488
  209MOL   C14733843   1.129   6.696   2.815 -0.1568  0.3013  0.4115
  209MOL   C14833844   1.018   6.758   2.890  0.3354 -0.8960  0.1630
  209MOL   O14933845   1.020   6.771   3.013  0.2275 -0.6335  0.6849
  209MOL   H15033846   1.072   6.487   2.894 -0.7944 -1.6961 -2.6598
  209MOL   H15133847   1.144   6.494   2.736  0.0012 -0.3121  0.5930
  209MOL   H15233848   1.120   6.718   2.708  0.7412 -1.2255 -0.0002
  209MOL   H15333849   1.212   6.756   2.851  0.0694  0.5148 -0.4431
  209MOL   C15433850   0.901   6.810   2.809 -0.0546 -0.4696 -0.2093
  209MOL   C15533851   0.773   6.727   2.822 -0.2914 -0.7023 -0.1621
  209MOL   C15633852   0.712   6.688   2.678  0.1684  0.3507 -0.7440
  209MOL   O15733853   0.785   6.648   2.593  0.0705  0.1493 -0.0832
  209MOL   H15833854   0.923   6.839   2.706  0.5341  0.5508  0.2024
  209MOL   H15933855   0.878   6.904   2.860  0.6166  0.0375 -0.8217
  209MOL   H16033856   0.704   6.769   2.895  1.4886  0.2766  1.0043
  209MOL   H16133857   0.798   6.631   2.867  2.5830  1.2517  2.6543
  209MOL   H16233858   0.603   6.680   2.674  0.3859 -2.6183 -1.5160
  210MOL     C133859   3.482   7.426   6.344 -0.1027 -0.2433 -0.7211
  210MOL     C233860   3.543   7.479   6.218  0.4220 -0.5084  0.6253
  210MOL     C333861   3.697   7.494   6.235  0.0208  0.3052 -0.2073
  210MOL     O433862   3.739   7.542   6.342 -0.3407  0.6770  0.5100
  210MOL     H533863   3.485   7.492   6.430 -0.8281 -0.2045 -0.7208
  210MOL     H633864   3.374   7.411   6.332 -0.5097  1.4114  0.7388
  210MOL     H733865   3.515   7.582   6.196  2.1148  0.0113  0.8207
  210MOL     H833866   3.512   7.416   6.134  0.9263  1.5621 -1.1748
  210MOL     H933867   3.531   7.339   6.386  1.2856  0.8722 -0.0114
  210MOL    C1033868   3.777   7.432   6.128  0.2054  0.0185 -1.0427
  210MOL    C1133869   3.922   7.393   6.168 -0.1772  0.2236  0.3366
  210MOL    C1233870   3.958   7.250   6.137  0.0750 -0.3336  0.3269
  210MOL    O1333871   3.913   7.192   6.043  0.1353  0.0990  0.5588
  210MOL    H1433872   3.774   7.496   6.039  0.6245  0.9113 -0.4263
  210MOL    H1533873   3.725   7.339   6.108  0.1413 -0.1697 -0.0232
  210MOL    H1633874   3.953   7.426   6.268 -0.2263  2.4904 -0.3591
  210MOL    H1733875   3.991   7.445   6.101 -1.7575  0.7366 -0.9073
  210MOL    C1833876   4.058   7.185   6.235 -0.0629  0.3487  0.0899
  210MOL    C1933877   4.156   7.096   6.158 -0.2865  0.2038 -0.4844
  210MOL    C2033878   4.145   6.947   6.188  1.0223 -0.1767 -0.7479
  210MOL    O2133879   4.038   6.904   6.236  0.3056 -0.5181 -0.1844
  210MOL    H2233880   4.004   7.140   6.318 -0.4669 -0.2047 -0.4658
  210MOL    H2333881   4.118   7.263   6.281  0.1485  0.1627  0.1285
  210MOL    H2433882   4.257   7.127   6.186 -0.3854 -0.2434  0.3545
  210MOL    H2533883   4.143   7.116   6.052  2.5464  0.5921 -0.8213
  210MOL    C2633884   4.267   6.861   6.161 -0.0206 -0.1940  0.0376
  210MOL    C2733885   4.294   6.757   6.272  0.9410  0.0956 -0.0634
  210MOL    C2833886   4.261   6.624   6.216 -0.3487  0.2893  0.1610
  210MOL    O2933887   4.349   6.546   6.173  0.4895  0.3981 -0.2896
  210MOL    H3033888   4.361   6.915   6.149  1.4713 -2.0174  3.1185
  210MOL    H3133889   4.248   6.825   6.059 -0.1473  0.1447 -0.0585
  210MOL    H3233890   4.238   6.789   6.360 -2.6676 -0.0411 -2.2055
  210MOL    H3333891   4.402   6.764   6.283  1.1476  0.7104 -2.2808
  210MOL    C3433892   4.113   6.593   6.225 -0.7734 -0.1879 -0.5122
  210MOL    C3533893   4.065   6.459   6.168 -0.3367 -0.8060 -0.0383
  210MOL    C3633894   3.986   6.484   6.041 -0.3770 -0.5421 -0.5684
  210MOL    O3733895   3.866   6.495   6.051 -0.5922  0.1269  0.5900
  210MOL    H3833896   4.054   6.675   6.187 -5.9137 -2.0681  2.8627
  210MOL    H3933897   4.093   6.584   6.332  0.8017 -0.4705 -0.2201
  210MOL    H4033898   4.010   6.397   6.239 -0.3946 -0.5485  0.1416
  210MOL    H4133899   4.151   6.401   6.136  0.9116  0.9792 -0.0165
  210MOL    C4233900   4.064   6.494   5.907  0.3484 -0.1326 -0.1949
  210MOL    C4333901   3.975   6.464   5.790  0.1387 -0.4607  0.2264
  210MOL    C4433902   4.041   6.483   5.651 -0.5997  0.1989  0.0482
  210MOL    O4533903   4.160   6.478   5.625 -0.0453  0.5078 -0.3487
  210MOL    H4633904   4.148   6.426   5.897  0.7371  0.2158  0.6763
  210MOL    H4733905   4.104   6.594   5.891  0.6079 -0.1045  0.5932
  210MOL    H4833906   3.889   6.531   5.784  0.2046 -0.6411 -3.9100
  210MOL    H4933907   3.928   6.366   5.805 -3.5511  0.8007 -2.2596
  210MOL    C5033908   3.943   6.500   5.535  0.1468  0.3080 -0.2787
  210MOL    C5133909   3.959   6.392   5.426  0.4252  0.3722 -0.3116
  210MOL    C5233910   3.828   6.373   5.345  0.4917 -0.5980  0.8195
  210MOL    O5333911   3.761   6.476   5.326  0.4528  0.2115 -0.2945
  210MOL    H5433912   3.964   6.597   5.491  0.5722 -0.3403 -1.5410
  210MOL    H5533913   3.840   6.501   5.568  0.5285 -2.3740  1.1635
  210MOL    H5633914   3.981   6.294   5.470  0.0268  0.1978 -0.4983
  210MOL    H5733915   4.042   6.414   5.359  0.6853 -3.5411 -1.4282
  210MOL    C5833916   3.805   6.240   5.269 -0.9886  0.1765  0.1716
  210MOL    C5933917   3.659   6.203   5.238 -0.5788  0.6313 -0.0961
  210MOL    C6033918   3.599   6.086   5.323  0.9874 -0.8146 -0.2343
  210MOL    O6133919   3.675   6.034   5.411  0.3274 -0.0164 -0.0908
  210MOL    H6233920   3.857   6.155   5.312 -0.2704  0.6036  0.1676
  210MOL    H6333921   3.846   6.252   5.169  0.1785  1.1544  0.7452
  210MOL    H6433922   3.648   6.166   5.136 -1.2145 -0.9571  0.5289
  210MOL    H6533923   3.592   6.288   5.239 -1.8920 -0.4037  0.7998
  210MOL    C6633924   3.447   6.051   5.301 -0.4117  0.1650 -0.1302
  210MOL    C6733925   3.404   5.908   5.339  0.0172 -0.1220  0.0178
  210MOL    C6833926   3.256   5.918   5.370 -0.1201 -0.1159 -0.5435
  210MOL    O6933927   3.180   5.954   5.282 -0.6669  0.4231  0.2186
  210MOL    H7033928   3.437   6.059   5.193  2.5214  0.0795 -0.4553
  210MOL    H7133929   3.382   6.126   5.345 -0.1470 -0.6686  1.7287
  210MOL    H7233930   3.466   5.863   5.417  0.0543  1.6121  1.0222
  210MOL    H7333931   3.407   5.852   5.246  1.1197  2.2593 -1.4114
  210MOL    C7433932   3.208   5.887   5.508 -0.1849 -0.7127  0.4153
  210MOL    C7533933   3.072   5.818   5.510 -0.8619  0.2723  0.3426
  210MOL    C7633934   3.093   5.669   5.542  0.3431  0.0869 -0.0162
  210MOL    O7733935   3.192   5.630   5.594 -0.1595  0.2291 -0.4515
  210MOL    H7833936   3.197   5.984   5.557  0.2197 -0.0500 -0.7594
  210MOL    H7933937   3.293   5.842   5.558 -1.2280 -0.5255  2.3958
  210MOL    H8033938   3.021   5.823   5.414  0.7912 -1.0421 -0.6396
  210MOL    H8133939   3.011   5.851   5.594 -0.8909 -2.2438  1.3715
  210MOL    C8233940   2.978   5.573   5.512  0.3129  0.3684 -0.1846
  210MOL    C8333941   2.990   5.445   5.587 -1.0736 -0.1729  0.5448
  210MOL    C8433942   3.050   5.342   5.494 -0.0679  0.6235 -0.0038
  210MOL    O8533943   3.024   5.338   5.376 -0.6849  0.0346  0.3443
  210MOL    H8633944   2.973   5.550   5.405 -0.7287 -0.5362  0.0499
  210MOL    H8733945   2.886   5.625   5.538  0.2511  0.2799 -0.2236
  210MOL    H8833946   2.897   5.405   5.626  0.3666 -1.5096  2.7417
  210MOL    H8933947   3.041   5.461   5.682  1.0740 -0.4414 -0.5179
  210MOL    C9033948   3.155   5.258   5.556  0.0946 -0.9454 -0.5063
  210MOL    C9133949   3.290   5.329   5.518 -0.1815 -0.5397 -0.2805
  210MOL    C9233950   3.385   5.340   5.644  0.1654 -0.3438 -0.3617
  210MOL    O9333951   3.411   5.240   5.712  0.2441 -0.5534 -0.2835
  210MOL    H9433952   3.159   5.171   5.491  1.0826  0.2021 -1.9832
  210MOL    H9533953   3.139   5.230   5.661  0.3162  0.4763 -0.0770
  210MOL    H9633954   3.270   5.434   5.497  1.4304  0.2850  2.0733
  210MOL    H9733955   3.326   5.281   5.427 -0.7178 -2.5396  0.5274
  210MOL    C9833956   3.452   5.471   5.672 -0.1644 -0.2972 -1.3692
  210MOL    C9933957   3.578   5.462   5.747  0.3356  0.0209  0.3036
  210MOL   C10033958   3.705   5.486   5.667  0.0336 -0.3932 -0.3365
  210MOL   O10133959   3.702   5.523   5.550 -0.0623  0.0891  0.4083
  210MOL   H10233960   3.380   5.530   5.728  1.0846  0.1169 -0.1734
  210MOL   H10333961   3.462   5.526   5.578 -0.2215  2.3863  0.1685
  210MOL   H10433962   3.584   5.371   5.807 -4.0369 -0.5738  0.0233
  210MOL   H10533963   3.574   5.547   5.815  1.3740 -0.2583  0.7187
  210MOL   C10633964   3.838   5.443   5.732  0.7246 -0.7281 -0.9598
  210MOL   C10733965   3.962   5.443   5.638 -0.2055  0.7198  0.4525
  210MOL   C10833966   4.052   5.566   5.649  0.9993  0.2542  0.1991
  210MOL   O10933967   4.057   5.644   5.554  0.0371  0.3083  0.0199
  210MOL   H11033968   3.822   5.343   5.773 -0.1398  0.6584  2.2517
  210MOL   H11133969   3.860   5.515   5.811  3.6176  0.2993 -2.6289
  210MOL   H11233970   3.941   5.447   5.532  3.6677 -0.1788 -0.4464
  210MOL   H11333971   4.025   5.354   5.650  1.5013  1.9571  0.8843
  210MOL   C11433972   4.155   5.571   5.755  0.2519  0.2392 -0.1059
  210MOL   C11533973   4.176   5.710   5.816  0.2776 -0.3017 -0.6051
  210MOL   C11633974   4.090   5.733   5.944  0.3413 -0.5312  0.1691
  210MOL   O11733975   3.977   5.676   5.963  0.3658 -0.1908 -0.2826
  210MOL   H11833976   4.250   5.543   5.710 -0.0964  0.1791 -0.7952
  210MOL   H11933977   4.131   5.499   5.834 -1.6144  1.4556  0.4696
  210MOL   H12033978   4.148   5.793   5.750 -1.3403 -1.0536 -0.8936
  210MOL   H12133979   4.282   5.731   5.831 -0.4178  1.5335  2.0789
  210MOL   C12233980   4.144   5.841   6.034 -0.0125  0.2586 -0.2729
  210MOL   C12333981   4.057   5.869   6.155 -0.0334 -0.2487  0.2735
  210MOL   C12433982   3.988   6.004   6.165  0.0659  0.0643  0.8227
  210MOL   O12533983   4.052   6.094   6.217  0.6301 -0.1299 -0.0558
  210MOL   H12633984   4.149   5.930   5.971  0.4199  0.3306 -0.1401
  210MOL   H12733985   4.243   5.814   6.070  0.6084 -1.5459 -3.1991
  210MOL   H12833986   4.120   5.863   6.243 -0.1463 -0.5611  0.3362
  210MOL   H12933987   3.976   5.798   6.171 -1.4668  1.8675  2.6582
  210MOL   C13033988   3.850   6.025   6.117 -0.0877 -0.5430  0.0215
  210MOL   C13133989   3.796   6.174   6.123 -0.3328 -0.7793  0.0747
  210MOL   C13233990   3.657   6.197   6.055 -0.0619 -0.4574  0.0038
  210MOL   O13333991   3.607   6.105   5.993  0.1406  0.0011  0.4561
  210MOL   H13433992   3.785   5.958   6.174 -0.3084  0.9409  1.5586
  210MOL   H13533993   3.840   5.989   6.015 -1.9687  0.6270 -0.2258
  210MOL   H13633994   3.868   6.223   6.057 -1.0630  0.1879 -0.0241
  210MOL   H13733995   3.805   6.226   6.218  0.2950  0.9699 -0.9001
  210MOL   C13833996   3.589   6.334   6.054  0.7786 -0.0397  0.1607
  210MOL   C13933997   3.567   6.387   6.196  0.3448 -0.4619  0.0299
  210MOL   C14033998   3.441   6.475   6.221 -0.1877 -0.4433 -0.5776
  210MOL   O14133999   3.344   6.479   6.143  0.1399 -0.1870  0.3032
  210MOL   H14234000   3.487   6.328   6.017  0.4638 -3.1798  1.4168
  210MOL   H14334001   3.649   6.406   5.997  0.5268 -0.7323 -0.9794
  210MOL   H14434002   3.660   6.425   6.239  0.4856 -2.5312  1.6272
  210MOL   H14534003   3.543   6.313   6.272  1.8751 -0.0620  0.9321
  210MOL   C14634004   3.436   6.548   6.360  0.0528 -0.5624  0.2848
  210MOL   C14734005   3.293   6.591   6.398 -0.1798 -0.0200  0.2606
  210MOL   C14834006   3.238   6.515   6.516  0.2667  0.4631 -0.4771
  210MOL   O14934007   3.261   6.392   6.535  0.0173 -0.0537  0.7627
  210MOL   H15034008   3.489   6.642   6.343  0.4219 -0.8872 -0.3567
  210MOL   H15134009   3.476   6.491   6.444 -0.4057 -1.0179  0.1994
  210MOL   H15234010   3.225   6.560   6.318  1.0868 -0.4125 -0.6863
  210MOL   H15334011   3.286   6.698   6.419  0.2392  0.3817 -1.5041
  210MOL   C15434012   3.149   6.581   6.616 -0.6293 -0.1796 -0.0013
  210MOL   C15534013   3.161   6.509   6.759  0.0203 -0.3255  0.5598
  210MOL   C15634014   3.044   6.520   6.848 -0.3902  0.8489  0.0740
  210MOL   O15734015   2.994   6.630   6.869 -0.0091 -0.1226  0.1993
  210MOL   H15834016   3.046   6.607   6.588 -1.4238 -0.9224  2.1193
  210MOL   H15934017   3.190   6.682   6.623 -0.3179 -0.2925 -0.1926
  210MOL   H16034018   3.249   6.556   6.804 -0.5324  1.4429 -0.1420
  210MOL   H16134019   3.181   6.402   6.750 -1.3106 -0.4539 -1.2447
  210MOL   H16234020   3.023   6.428   6.901  3.2622 -0.4017 -0.5193
  211MOL     C134021   2.894   4.971   3.060  0.1007  0.7794 -0.0281
  211MOL     C234022   3.034   5.014   3.024 -0.5601  0.2145  0.4811
  211MOL     C334023   3.099   4.896   2.940  0.3081 -0.1958 -0.5326
  211MOL     O434024   3.092   4.779   2.979  0.0226 -1.3874 -0.2374
  211MOL     H534025   2.836   5.063   3.070  1.3315  1.8586 -2.6517
  211MOL     H634026   2.852   4.916   2.977 -0.2709 -1.2843  1.4814
  211MOL     H734027   3.100   5.019   3.111 -0.2143  2.1203  0.1332
  211MOL     H834028   3.037   5.108   2.969 -0.5010 -0.1492 -0.1338
  211MOL     H934029   2.886   4.921   3.157  1.0123 -1.4436 -1.0784
  211MOL    C1034030   3.185   4.937   2.824  0.3213  0.1407  0.1351
  211MOL    C1134031   3.242   4.819   2.741  0.0472 -0.4135  0.1140
  211MOL    C1234032   3.377   4.774   2.786  0.3942 -0.7594  0.7210
  211MOL    O1334033   3.441   4.829   2.877  0.3964  0.1338  0.4923
  211MOL    H1434034   3.267   5.001   2.857 -1.4316  1.4659  2.0651
  211MOL    H1534035   3.123   4.994   2.754  3.0818  0.1038 -2.4390
  211MOL    H1634036   3.255   4.840   2.635  0.9700  1.4127  0.5655
  211MOL    H1734037   3.179   4.730   2.741  0.3322 -0.6150  0.3944
  211MOL    C1834038   3.444   4.674   2.689 -0.0849 -0.0523 -0.3189
  211MOL    C1934039   3.598   4.657   2.717 -0.3788  0.1173 -0.1277
  211MOL    C2034040   3.630   4.536   2.806  0.2620  0.4078  0.0360
  211MOL    O2134041   3.539   4.467   2.850  0.6568  0.3575 -0.2242
  211MOL    H2234042   3.430   4.685   2.581  2.2128 -2.6527 -0.9679
  211MOL    H2334043   3.393   4.578   2.699 -1.3196  0.7589  1.1820
  211MOL    H2434044   3.656   4.745   2.746  2.9153 -2.4353  1.5422
  211MOL    H2534045   3.638   4.616   2.624 -0.6209 -0.6662  0.1069
  211MOL    C2634046   3.776   4.513   2.823 -0.1685 -0.0581 -0.4884
  211MOL    C2734047   3.812   4.390   2.911 -0.1770  0.4857 -0.3146
  211MOL    C2834048   3.868   4.267   2.845 -0.3020 -0.5599  1.0060
  211MOL    O2934049   3.929   4.262   2.738  0.4204  0.2527  0.1846
  211MOL    H3034050   3.823   4.602   2.866  1.0704  1.3003 -4.4781
  211MOL    H3134051   3.818   4.512   2.723  1.8571 -1.4459  0.3170
  211MOL    H3234052   3.717   4.358   2.952 -0.1547  1.3550  0.4228
  211MOL    H3334053   3.878   4.421   2.993  0.8412 -1.1949 -0.4756
  211MOL    C3434054   3.839   4.138   2.921 -0.3849  0.0257  1.0820
  211MOL    C3534055   3.902   4.012   2.854  0.4094  0.4959  0.6435
  211MOL    C3634056   3.815   3.942   2.750  0.1287  0.0487  0.3600
  211MOL    O3734057   3.701   3.979   2.727  0.1708  0.0270 -0.0842
  211MOL    H3834058   3.731   4.126   2.918 -0.5757  1.8440 -0.9794
  211MOL    H3934059   3.868   4.143   3.026  0.5053  0.4933  0.8227
  211MOL    H4034060   3.933   3.942   2.932  2.9036 -1.7104 -2.2109
  211MOL    H4134061   3.986   4.033   2.789  0.0987 -1.6598 -0.4766
  211MOL    C4234062   3.871   3.832   2.655  0.2911 -0.6305  0.4575
  211MOL    C4334063   3.756   3.744   2.602  0.2550  1.0586 -0.3267
  211MOL    C4434064   3.734   3.617   2.687  0.5954  0.2530  0.0717
  211MOL    O4534065   3.779   3.608   2.799  0.0292  1.0526  0.1390
  211MOL    H4634066   3.946   3.779   2.714  0.8860 -0.5582 -0.2169
  211MOL    H4734067   3.927   3.882   2.575  0.8149 -1.7505  0.1077
  211MOL    H4834068   3.794   3.706   2.507 -0.3179 -0.0121 -0.1233
  211MOL    H4934069   3.664   3.795   2.573  0.2729  0.2423 -1.8796
  211MOL    C5034070   3.662   3.499   2.613  0.9219  0.0821 -0.2708
  211MOL    C5134071   3.639   3.379   2.704 -0.5473  0.3313 -0.5351
  211MOL    C5234072   3.580   3.260   2.633 -0.4561 -0.0192 -0.0129
  211MOL    O5334073   3.556   3.264   2.515 -0.7476 -0.3414  0.6426
  211MOL    H5434074   3.730   3.470   2.532 -0.2091 -2.5019 -0.3477
  211MOL    H5534075   3.572   3.544   2.572  0.4389 -0.6857 -0.0607
  211MOL    H5634076   3.578   3.418   2.786  1.7757  0.6959  1.0620
  211MOL    H5734077   3.732   3.334   2.740 -0.4361  0.7135 -0.3454
  211MOL    C5834078   3.566   3.131   2.711  0.0359 -0.2793 -0.3072
  211MOL    C5934079   3.654   3.023   2.655  0.5600  0.1045  0.4018
  211MOL    C6034080   3.764   2.987   2.751  0.8140 -0.0516 -0.0164
  211MOL    O6134081   3.798   3.058   2.844 -0.2304 -0.6925  0.0149
  211MOL    H6234082   3.460   3.105   2.705  0.1336 -0.6253 -0.5379
  211MOL    H6334083   3.582   3.143   2.818 -0.7256  1.0769 -0.3400
  211MOL    H6434084   3.695   3.053   2.558 -0.6020 -0.5167 -0.3012
  211MOL    H6534085   3.603   2.929   2.632  1.6360 -0.5959  0.8400
  211MOL    C6634086   3.832   2.856   2.723 -0.5335  0.4748  0.2331
  211MOL    C6734087   3.961   2.832   2.785 -0.1480  0.3941 -0.7219
  211MOL    C6834088   4.056   2.731   2.715  0.1691  0.0950  0.6224
  211MOL    O6934089   4.045   2.713   2.598  0.0215 -0.1490 -0.1152
  211MOL    H7034090   3.862   2.843   2.619  4.4967 -2.0095  1.8041
  211MOL    H7134091   3.760   2.777   2.743  0.1923 -0.0146  0.9350
  211MOL    H7234092   3.940   2.816   2.891  2.1466  0.8033 -0.1949
  211MOL    H7334093   4.011   2.927   2.770 -0.6917  0.5613 -1.5313
  211MOL    C7434094   4.166   2.662   2.800  0.1331  0.1464 -0.2493
  211MOL    C7534095   4.262   2.562   2.720  0.8605 -0.6022 -0.2189
  211MOL    C7634096   4.394   2.620   2.684 -0.1787  0.6439  0.6417
  211MOL    O7734097   4.433   2.717   2.734  0.3412 -0.5566  0.1667
  211MOL    H7834098   4.113   2.604   2.876 -4.1056  3.4173 -0.4951
  211MOL    H7934099   4.224   2.738   2.852  0.2246 -0.7443  0.9588
  211MOL    H8034100   4.220   2.517   2.630  1.3522 -0.0135 -0.7515
  211MOL    H8134101   4.292   2.481   2.787  1.1212  0.9418  1.5758
  211MOL    C8234102   4.491   2.544   2.589  0.6559 -0.8938 -0.0919
  211MOL    C8334103   4.607   2.631   2.530  0.0031 -0.1409 -0.2576
  211MOL    C8434104   4.588   2.669   2.379 -0.5074 -0.1325  0.8134
  211MOL    O8534105   4.483   2.631   2.323 -0.8179  0.0272 -0.1812
  211MOL    H8634106   4.422   2.496   2.520 -0.1306  1.3201 -0.9171
  211MOL    H8734107   4.530   2.458   2.643  1.3335 -0.1158  0.6831
  211MOL    H8834108   4.692   2.563   2.540 -0.6898 -0.8389  0.8900
  211MOL    H8934109   4.624   2.714   2.599 -2.0984  0.0391  0.0553
  211MOL    C9034110   4.690   2.759   2.306 -0.6782 -0.4696  0.5227
  211MOL    C9134111   4.682   2.737   2.150  0.4532  0.2161 -0.9321
  211MOL    C9234112   4.682   2.870   2.078  0.0642 -0.6001 -1.1090
  211MOL    O9334113   4.571   2.921   2.059  0.0164 -0.3149  0.3444
  211MOL    H9434114   4.792   2.737   2.337 -1.2376 -0.3759  2.4735
  211MOL    H9534115   4.654   2.857   2.336  0.4605  1.1147 -2.9826
  211MOL    H9634116   4.596   2.681   2.113  0.0872 -0.0384  0.2722
  211MOL    H9734117   4.773   2.684   2.122  1.5025  0.3902  1.9431
  211MOL    C9834118   4.811   2.948   2.074 -0.1483 -0.1812  0.0213
  211MOL    C9934119   4.817   3.042   1.955 -0.5283 -0.0092  0.8861
  211MOL   C10034120   4.899   3.002   1.835  0.3882  0.0137 -0.6048
  211MOL   O10134121   4.988   2.920   1.856  0.5043  0.1933 -0.5540
  211MOL   H10234122   4.893   2.877   2.082 -0.1762 -0.0645  1.3782
  211MOL   H10334123   4.830   3.006   2.164  0.5515  1.4068 -1.1181
  211MOL   H10434124   4.844   3.145   1.981  2.6640 -0.1002 -1.6588
  211MOL   H10534125   4.716   3.051   1.915  0.0983  0.8465 -0.5298
  211MOL   C10634126   4.875   3.048   1.692 -0.4485 -0.6376 -0.2773
  211MOL   C10734127   5.002   3.076   1.608  0.3919 -0.2811 -0.6082
  211MOL   C10834128   4.995   3.023   1.466  0.0279 -0.0885 -0.2574
  211MOL   O10934129   4.888   3.001   1.412 -0.0976 -0.1993  0.0786
  211MOL   H11034130   4.806   3.133   1.693  1.9175  1.3420 -0.2146
  211MOL   H11134131   4.833   2.957   1.648  0.1600 -1.6233  1.1611
  211MOL   H11234132   5.090   3.032   1.656  0.0451 -0.7843 -0.4306
  211MOL   H11334133   5.012   3.184   1.600  3.9912 -0.4468  0.4387
  211MOL   C11434134   5.124   2.998   1.390 -0.2523  1.2136  0.7805
  211MOL   C11534135   5.153   3.115   1.297 -0.0181  0.2909 -0.2138
  211MOL   C11634136   5.291   3.188   1.326  0.6363  0.3819 -1.2301
  211MOL   O11734137   5.323   3.207   1.442  0.3606 -0.4735 -0.3002
  211MOL   H11834138   5.107   2.909   1.329  1.5820  1.7948 -0.6313
  211MOL   H11934139   5.203   2.977   1.462 -1.3025 -0.9063  1.3538
  211MOL   H12034140   5.078   3.194   1.292 -0.8316 -0.5786 -2.6415
  211MOL   H12134141   5.173   3.075   1.197  1.8989 -0.1776  0.3439
  211MOL   C12234142   5.374   3.237   1.210 -0.1827 -0.1725  0.4244
  211MOL   C12334143   5.456   3.365   1.241  0.1668  0.6011  0.1873
  211MOL   C12434144   5.602   3.343   1.248 -0.3826 -0.0109  0.2366
  211MOL   O12534145   5.680   3.400   1.175 -0.1652  0.2073  0.4807
  211MOL   H12634146   5.319   3.251   1.117  2.1239  0.5021 -0.8920
  211MOL   H12734147   5.446   3.158   1.189 -0.3284 -0.0126 -0.7063
  211MOL   H12834148   5.423   3.424   1.326  2.8184  1.9456  0.3445
  211MOL   H12934149   5.430   3.438   1.164  1.1411  0.2123 -0.5216
  211MOL   C13034150   5.646   3.264   1.372 -0.6344  0.1489 -0.7848
  211MOL   C13134151   5.794   3.209   1.353 -0.0410  0.2455 -0.1988
  211MOL   C13234152   5.905   3.278   1.439 -0.3129  0.9494 -0.8247
  211MOL   O13334153   5.883   3.374   1.515 -0.2650  0.6745 -0.4329
  211MOL   H13434154   5.580   3.177   1.374  0.7257 -0.8864  0.7515
  211MOL   H13534155   5.644   3.328   1.460  1.4885 -0.2551 -0.4199
  211MOL   H13634156   5.832   3.214   1.251 -0.6911  0.2201 -0.4470
  211MOL   H13734157   5.809   3.102   1.366  0.2937  0.3506  0.2831
  211MOL   C13834158   6.048   3.228   1.416  0.0127  0.4911  0.6474
  211MOL   C13934159   6.152   3.270   1.522  0.4986  0.6592  0.1011
  211MOL   C14034160   6.281   3.189   1.512  0.0656  0.0734  1.4441
  211MOL   O14134161   6.292   3.107   1.422  0.0989 -1.0384  0.4460
  211MOL   H14234162   6.070   3.294   1.332  0.6395 -0.3031  0.1805
  211MOL   H14334163   6.044   3.123   1.387 -3.6377  1.1088 -1.4096
  211MOL   H14434164   6.106   3.257   1.620  2.1135  0.7169  0.8822
  211MOL   H14534165   6.171   3.377   1.522 -1.2893  0.9997 -1.5727
  211MOL   C14634166   6.404   3.241   1.592 -0.7386 -0.3547  0.2489
  211MOL   C14734167   6.463   3.134   1.682 -0.3586  0.2386 -0.0948
  211MOL   C14834168   6.586   3.068   1.615  0.8138  0.0487 -0.5181
  211MOL   O14934169   6.664   3.138   1.557 -0.0248 -1.0154  0.5188
  211MOL   H15034170   6.357   3.318   1.654 -0.0701  0.0289  0.2935
  211MOL   H15134171   6.475   3.287   1.523 -2.2522  2.9323  0.7809
  211MOL   H15234172   6.385   3.067   1.720 -0.1065 -0.9945 -1.6996
  211MOL   H15334173   6.506   3.202   1.755 -0.5131  0.5331 -0.2779
  211MOL   C15434174   6.586   2.915   1.609 -0.1736 -0.6571  0.4188
  211MOL   C15534175   6.677   2.862   1.504  0.0666 -0.3660  0.6489
  211MOL   C15634176   6.604   2.806   1.386 -0.8229 -0.3584  0.1262
  211MOL   O15734177   6.631   2.700   1.340 -0.4273  0.2079 -0.5021
  211MOL   H15834178   6.489   2.867   1.598 -0.7543  0.8139 -1.1602
  211MOL   H15934179   6.615   2.887   1.710 -2.0991  1.3365  1.5649
  211MOL   H16034180   6.730   2.779   1.552  0.3850 -1.3793 -1.4043
  211MOL   H16134181   6.744   2.941   1.470 -0.6736 -0.0945 -0.1796
  211MOL   H16234182   6.511   2.862   1.374 -1.1445 -1.0778 -0.7105
  212MOL     C134183   1.555   4.508   0.825  0.2477 -0.2843  0.1208
  212MOL     C234184   1.443   4.408   0.860 -1.0434  0.4408  0.5584
  212MOL     C334185   1.308   4.458   0.848  0.3418  0.3396 -0.2263
  212MOL     O434186   1.244   4.487   0.949 -0.2769 -0.3823  0.4366
  212MOL     H534187   1.556   4.598   0.887 -0.5885 -0.7354  0.8087
  212MOL     H634188   1.651   4.460   0.837  0.4732 -0.2300 -1.3199
  212MOL     H734189   1.453   4.351   0.952  0.6306 -0.4264 -0.1411
  212MOL     H834190   1.447   4.334   0.780 -0.8699 -0.2277  1.1796
  212MOL     H934191   1.548   4.554   0.726 -2.1128 -0.8368  0.0002
  212MOL    C1034192   1.241   4.465   0.714  0.2785 -0.1645  0.1926
  212MOL    C1134193   1.136   4.581   0.716  0.6494  0.2847  0.1525
  212MOL    C1234194   0.998   4.523   0.690  0.8478  0.0190 -0.7689
  212MOL    O1334195   0.954   4.512   0.578 -0.2714  0.0048  0.1198
  212MOL    H1434196   1.203   4.363   0.701 -1.4214  0.4969 -0.2251
  212MOL    H1534197   1.312   4.499   0.638  0.1052  0.0296  0.1154
  212MOL    H1634198   1.150   4.655   0.638 -0.7572 -0.0594 -0.4512
  212MOL    H1734199   1.125   4.639   0.808  1.4192  0.0690  0.3806
  212MOL    C1834200   0.920   4.487   0.816  0.3967  0.4504 -0.0828
  212MOL    C1934201   0.773   4.536   0.800  0.2681  0.1158 -0.1281
  212MOL    C2034202   0.740   4.666   0.717  0.7348  0.0286 -0.6827
  212MOL    O2134203   0.804   4.766   0.736  0.6707 -0.0609 -0.1051
  212MOL    H2234204   0.971   4.534   0.900  0.0128  0.2069  0.2926
  212MOL    H2334205   0.934   4.380   0.830 -1.0651  0.4387  1.4648
  212MOL    H2434206   0.730   4.557   0.898 -0.8749 -1.1274 -0.3548
  212MOL    H2534207   0.721   4.458   0.745 -1.3962  1.2986 -0.2573
  212MOL    C2634208   0.632   4.662   0.618  0.4109  0.3515  0.0562
  212MOL    C2734209   0.493   4.643   0.673  0.6156  0.7399  0.3098
  212MOL    C2834210   0.402   4.550   0.592 -0.8483 -0.1048  0.2610
  212MOL    O2934211   0.380   4.436   0.633  0.7443 -0.0773  0.2376
  212MOL    H3034212   0.667   4.591   0.543  0.5316 -0.3068  0.7265
  212MOL    H3134213   0.627   4.758   0.567  1.6422  0.6664  0.5252
  212MOL    H3234214   0.446   4.740   0.692 -1.1535 -0.2065  0.9175
  212MOL    H3334215   0.499   4.595   0.770 -0.1741 -0.6582 -0.3079
  212MOL    C3434216   0.337   4.600   0.463  0.2351 -0.3279 -0.2523
  212MOL    C3534217   0.373   4.506   0.340 -0.0581  0.5579 -0.0346
  212MOL    C3634218   0.249   4.423   0.298 -0.1471 -0.2471  0.4113
  212MOL    O3734219   0.135   4.473   0.288  0.1363 -0.0769 -0.6058
  212MOL    H3834220   0.366   4.705   0.452 -0.1102 -0.0708  1.2709
  212MOL    H3934221   0.229   4.593   0.478  0.0026  0.9423 -1.2827
  212MOL    H4034222   0.451   4.436   0.370 -0.6701 -0.0444  0.1508
  212MOL    H4134223   0.415   4.575   0.266 -0.2032  1.2380  0.5137
  212MOL    C4234224   0.273   4.277   0.256  0.2396  0.2064 -0.2974
  212MOL    C4334225   0.138   4.202   0.216  0.5593  0.2679 -0.0873
  212MOL    C4434226   0.123   4.194   0.063 -0.0171 -0.3931 -0.3693
  212MOL    O4534227   0.184   4.265   7.843 -0.0898  0.2802 -0.3793
  212MOL    H4634228   0.319   4.234   0.345  0.2933  2.8391  0.9981
  212MOL    H4734229   0.348   4.269   0.177  0.3980  3.8550 -0.5907
  212MOL    H4834230   0.056   4.242   0.276 -0.5205 -2.4925  0.3535
  212MOL    H4934231   0.135   4.099   0.255 -1.4885  0.7484  1.1098
  212MOL    C5034232   0.022   4.100   0.011 -0.0691  0.1208 -0.3985
  212MOL    C5134233   0.065   3.952   0.034 -0.4441 -0.1822 -0.0128
  212MOL    C5234234   0.178   3.895   7.805  0.4512 -0.2948  0.3641
  212MOL    O5334235   0.236   3.961   7.721 -0.3765 -0.0045  0.3307
  212MOL    H5434236   0.001   4.125   7.766  2.0351  0.8296 -0.6785
  212MOL    H5534237   7.790   4.122   0.067  1.1215 -1.4563  2.2260
  212MOL    H5634238   7.834   3.893   0.022 -2.0784  2.1776  0.1572
  212MOL    H5734239   0.090   3.942   0.140 -2.4647  1.9583  0.7316
  212MOL    C5834240   0.217   3.753   7.835 -0.0057 -0.2718 -0.2471
  212MOL    C5934241   0.301   3.682   7.731 -0.5648 -0.1955  0.3119
  212MOL    C6034242   0.305   3.531   7.759  0.0738 -0.5363 -0.2603
  212MOL    O6134243   0.395   3.483   7.829 -0.1211 -0.5051  0.0489
  212MOL    H6234244   0.122   3.699   7.838 -0.1771  0.0641  0.4980
  212MOL    H6334245   0.259   3.752   0.077  0.0080  2.1602 -0.1885
  212MOL    H6434246   0.402   3.722   7.736  0.1370 -1.8001 -0.7270
  212MOL    H6534247   0.260   3.706   7.633 -0.6218  0.9222  0.6050
  212MOL    C6634248   0.194   3.444   7.700  0.2774  0.6979  0.3000
  212MOL    C6734249   0.243   3.317   7.622 -0.0645  0.2873 -0.6214
  212MOL    C6834250   0.304   3.332   7.480  1.9850  0.3221 -0.4783
  212MOL    O6934251   0.280   3.430   7.407 -0.9500  0.0717 -0.4410
  212MOL    H7034252   0.143   3.511   7.630  3.2847  1.5051 -1.1880
  212MOL    H7134253   0.121   3.423   7.778 -0.4286  2.0256  0.0135
  212MOL    H7234254   0.148   3.267   7.603  0.8470 -0.7680 -2.6173
  212MOL    H7334255   0.308   3.265   7.692 -0.7243  1.9072  1.2428
  212MOL    C7434256   0.405   3.222   7.449  0.3554 -0.0468 -0.1420
  212MOL    C7534257   0.403   3.188   7.297 -0.3131  0.8286  0.5178
  212MOL    C7634258   0.399   3.043   7.254 -0.4065  0.2331 -0.3363
  212MOL    O7734259   0.403   2.953   7.335  0.4495 -0.1821  0.6206
  212MOL    H7834260   0.363   3.139   7.506 -1.2390  0.8259 -0.0390
  212MOL    H7934261   0.504   3.248   7.488 -0.0291 -0.2433  0.9867
  212MOL    H8034262   0.475   3.247   7.241  0.5077 -0.8847 -0.2816
  212MOL    H8134263   0.320   3.241   7.250  0.1692  0.7687 -0.4116
  212MOL    C8234264   0.389   3.011   7.108 -0.3588 -0.3849 -0.7522
  212MOL    C8334265   0.510   3.066   7.035  0.7968 -0.5939 -0.3345
  212MOL    C8434266   0.495   3.194   6.962  0.1354  0.1156 -0.7632
  212MOL    O8534267   0.385   3.243   6.935  0.0739  0.5669 -0.2741
  212MOL    H8634268   0.291   3.051   7.079  0.6283  1.5836 -1.4038
  212MOL    H8734269   0.389   2.904   7.087  0.6573 -0.5105 -0.1091
  212MOL    H8834270   0.553   2.988   6.971  1.1398 -0.1660 -0.6315
  212MOL    H8934271   0.586   3.097   7.107  0.8017 -1.2931 -0.0376
  212MOL    C9034272   0.626   3.255   6.920 -0.0534 -0.1318  0.0428
  212MOL    C9134273   0.620   3.372   6.823 -0.5531  0.1713 -0.1488
  212MOL    C9234274   0.711   3.490   6.865 -0.2513 -0.7494 -0.0751
  212MOL    O9334275   0.768   3.506   6.974  0.3786  0.1831 -0.3444
  212MOL    H9434276   0.673   3.168   6.875  1.2251  0.6323 -0.1315
  212MOL    H9534277   0.695   3.275   7.002  0.5345  0.1875 -0.5239
  212MOL    H9634278   0.518   3.409   6.817 -0.4520  0.6286  0.8037
  212MOL    H9734279   0.649   3.323   6.730  0.7996  0.2040  0.2439
  212MOL    C9834280   0.722   3.603   6.764  0.4944  0.1894  0.4991
  212MOL    C9934281   0.714   3.741   6.829 -0.4988  0.4417  0.4159
  212MOL   C10034282   0.786   3.842   6.734  0.0128 -0.0742 -0.5955
  212MOL   O10134283   0.791   3.823   6.616  0.3811 -0.1989  0.6089
  212MOL   H10234284   0.635   3.600   6.699 -0.6548  2.1288  1.9159
  212MOL   H10334285   0.817   3.581   6.715  1.1965  0.0665  1.8721
  212MOL   H10434286   0.750   3.743   6.931  1.4615 -2.0644 -0.1811
  212MOL   H10534287   0.612   3.778   6.838 -0.3960  1.3630 -1.8240
  212MOL   C10634288   0.867   3.953   6.803 -0.0442 -0.2959 -0.5252
  212MOL   C10734289   0.919   4.053   6.691 -1.0415 -0.3503 -0.3728
  212MOL   C10834290   1.066   4.021   6.673 -0.0472 -0.3987 -0.1549
  212MOL   O10934291   1.110   3.907   6.672 -0.1738 -0.4128  0.2141
  212MOL   H11034292   0.946   3.917   6.869 -0.8759  0.0831  0.6870
  212MOL   H11134293   0.807   4.007   6.876 -0.8682 -1.6012 -0.2157
  212MOL   H11234294   0.906   4.159   6.713  2.2803  0.3677 -1.6093
  212MOL   H11334295   0.870   4.029   6.596  0.5844 -1.8013 -0.8832
  212MOL   C11434296   1.166   4.133   6.653 -0.0014 -0.3964  0.0182
  212MOL   C11534297   1.237   4.110   6.518  0.2073  0.1879 -0.0220
  212MOL   C11634298   1.154   4.172   6.405 -0.5679 -0.4298  0.2376
  212MOL   O11734299   1.027   4.167   6.409  0.0733 -0.1189  0.1237
  212MOL   H11834300   1.245   4.133   6.729 -0.2082 -0.7959  0.2345
  212MOL   H11934301   1.123   4.233   6.661 -1.6485 -1.1900  1.1146
  212MOL   H12034302   1.270   4.007   6.505  0.1483 -0.1635  2.3673
  212MOL   H12134303   1.331   4.165   6.515  1.1278 -1.4218 -1.2384
  212MOL   C12234304   1.228   4.260   6.303 -0.4841  0.1872 -0.1626
  212MOL   C12334305   1.282   4.388   6.368  0.8490 -1.4656  0.4408
  212MOL   C12434306   1.231   4.525   6.306  1.2501 -0.4579  0.4827
  212MOL   O12534307   1.125   4.526   6.246 -0.4031 -0.0080 -0.7283
  212MOL   H12634308   1.171   4.285   6.213 -0.3453  3.2335  0.5295
  212MOL   H12734309   1.310   4.202   6.261  0.6464  1.8969 -0.3896
  212MOL   H12834310   1.389   4.396   6.386  0.8652  2.0449 -0.9519
  212MOL   H12934311   1.232   4.389   6.465 -0.0755  1.4294 -0.0235
  212MOL   C13034312   1.301   4.659   6.331  0.5075  0.0619 -0.3511
  212MOL   C13134313   1.206   4.777   6.360  0.6036 -0.1952  0.1866
  212MOL   C13234314   1.286   4.901   6.397  0.1705  0.5453 -0.2963
  212MOL   O13334315   1.404   4.912   6.372 -0.4333  0.4534  0.0030
  212MOL   H13434316   1.361   4.684   6.244  0.6303 -2.2645 -0.9936
  212MOL   H13534317   1.368   4.635   6.414 -1.2547 -1.7583  0.5905
  212MOL   H13634318   1.126   4.756   6.432  3.3300 -2.0326  2.8204
  212MOL   H13734319   1.148   4.792   6.269  0.4370  1.6421  0.5855
  212MOL   C13834320   1.213   5.004   6.485 -0.9927  0.3117 -0.6514
  212MOL   C13934321   1.256   5.146   6.450 -0.2126  0.1148  0.5100
  212MOL   C14034322   1.364   5.212   6.539 -0.4563 -0.0535  0.3867
  212MOL   O14134323   1.398   5.173   6.652 -0.3232 -0.3282  0.4603
  212MOL   H14234324   1.232   4.989   6.591 -0.1178  1.1978 -0.6775
  212MOL   H14334325   1.105   4.996   6.485 -1.1319  2.0807  0.1532
  212MOL   H14434326   1.171   5.213   6.462 -0.1492  0.2463  0.2453
  212MOL   H14534327   1.276   5.150   6.342  3.2750  2.3958  1.1464
  212MOL   C14634328   1.440   5.329   6.479 -0.1591 -0.3032  0.5220
  212MOL   C14734329   1.589   5.318   6.501 -0.6390  0.1376 -0.3717
  212MOL   C14834330   1.653   5.406   6.606  0.2340 -0.0187  0.1801
  212MOL   O14934331   1.601   5.512   6.650  0.0469 -0.4768  0.4149
  212MOL   H15034332   1.401   5.419   6.527 -0.5319 -0.9104  1.3606
  212MOL   H15134333   1.410   5.321   6.375 -2.0662 -5.2825  1.3480
  212MOL   H15234334   1.640   5.325   6.405 -1.3679 -2.3680 -0.9806
  212MOL   H15334335   1.611   5.213   6.520  1.3494  0.4281 -0.9709
  212MOL   C15434336   1.785   5.360   6.656 -0.2761 -0.0946  0.2670
  212MOL   C15534337   1.896   5.469   6.630  0.1490 -0.3942 -0.0253
  212MOL   C15634338   2.004   5.435   6.536 -0.4762 -0.3243  0.3882
  212MOL   O15734339   2.059   5.525   6.474 -0.1239 -0.4431  0.3289
  212MOL   H15834340   1.815   5.268   6.605  0.6198  0.1949  0.2508
  212MOL   H15934341   1.792   5.334   6.761 -0.9202 -0.3995  0.2321
  212MOL   H16034342   1.940   5.503   6.724 -0.3982  0.9937 -0.2604
  212MOL   H16134343   1.854   5.551   6.572  0.9373 -0.5660 -0.8571
  212MOL   H16234344   2.032   5.330   6.531  0.5072 -0.0143 -1.0443
  213MOL     C134345   0.544   4.812   1.056 -0.3357 -0.7850  0.2013
  213MOL     C234346   0.478   4.732   1.168 -0.5321 -0.0619  0.6111
  213MOL     C334347   0.502   4.584   1.143  0.4204  0.8329 -0.8514
  213MOL     O434348   0.534   4.534   1.038 -0.3448  0.2733 -0.2692
  213MOL     H534349   0.651   4.827   1.072 -0.1764 -0.8130 -0.8327
  213MOL     H634350   0.528   4.770   0.957  0.3102 -0.1421 -0.1846
  213MOL     H734351   0.372   4.748   1.149 -0.4634  0.7830  0.9164
  213MOL     H834352   0.505   4.768   1.267 -1.8382 -0.1624  1.0187
  213MOL     H934353   0.506   4.914   1.044  0.0878 -0.8778 -2.1279
  213MOL    C1034354   0.485   4.493   1.268 -0.4547  1.2960 -0.0407
  213MOL    C1134355   0.490   4.342   1.242 -0.3489  0.0639  0.5367
  213MOL    C1234356   0.620   4.268   1.279 -0.8769 -1.0321  0.1403
  213MOL    O1334357   0.710   4.331   1.343  0.3000  0.0104  0.2919
  213MOL    H1434358   0.388   4.516   1.311  0.1072  1.2394  1.2860
  213MOL    H1534359   0.548   4.528   1.350 -0.7962  1.8093  0.0045
  213MOL    H1634360   0.482   4.318   1.136  0.9900 -1.5244  0.7629
  213MOL    H1734361   0.412   4.276   1.279 -1.3640  1.4932  0.9526
  213MOL    C1834362   0.645   4.120   1.227  0.3210 -0.3012  0.5992
  213MOL    C1934363   0.785   4.088   1.176  0.1235  0.3497 -0.1234
  213MOL    C2034364   0.823   4.188   1.066  0.4332 -0.2141 -0.0868
  213MOL    O2134365   0.736   4.243   0.993 -0.0749  0.1489 -0.1630
  213MOL    H2234366   0.578   4.108   1.141 -0.6872 -0.2542  1.3629
  213MOL    H2334367   0.614   4.056   1.310  0.6264  0.1667  1.0803
  213MOL    H2434368   0.787   3.985   1.140  1.3217  0.2861  0.0837
  213MOL    H2534369   0.857   4.098   1.257 -0.2987 -1.8566  0.5558
  213MOL    C2634370   0.971   4.225   1.047  0.1057 -0.2916 -0.3948
  213MOL    C2734371   1.025   4.327   1.156  0.0314 -0.4069  0.0576
  213MOL    C2834372   1.143   4.268   1.236  0.6667  0.4055 -0.2185
  213MOL    O2934373   1.135   4.152   1.283  0.2510  0.2570 -0.0261
  213MOL    H3034374   0.992   4.257   0.944  4.5177 -0.0007  0.5101
  213MOL    H3134375   1.029   4.133   1.038 -0.6834 -0.6105 -2.5364
  213MOL    H3234376   0.944   4.363   1.219 -0.1810 -0.5166 -0.1512
  213MOL    H3334377   1.064   4.415   1.105 -3.2611  0.0194 -1.8833
  213MOL    C3434378   1.256   4.360   1.271 -0.3254 -0.0239 -0.5555
  213MOL    C3534379   1.390   4.279   1.287 -0.0085  0.4127  0.3683
  213MOL    C3634380   1.505   4.371   1.327 -0.6844  0.3902  0.2806
  213MOL    O3734381   1.572   4.428   1.243  0.5350  0.2978  0.4384
  213MOL    H3834382   1.238   4.406   1.368 -0.0336  1.7745 -1.3135
  213MOL    H3934383   1.259   4.436   1.193 -0.1286  0.6113  0.0612
  213MOL    H4034384   1.419   4.228   1.195 -0.5878  2.0979 -0.7699
  213MOL    H4134385   1.378   4.192   1.351 -0.7677  0.8887  0.8873
  213MOL    C4234386   1.549   4.370   1.469 -0.4806  0.0460 -0.0188
  213MOL    C4334387   1.655   4.486   1.492 -0.2336 -0.1652  0.7916
  213MOL    C4434388   1.733   4.476   1.624  0.2292 -0.5838  0.0839
  213MOL    O4534389   1.766   4.364   1.671 -0.1571  0.5065  0.1654
  213MOL    H4634390   1.606   4.278   1.487 -1.0134 -0.3273 -0.2501
  213MOL    H4734391   1.471   4.379   1.544 -0.2360  0.9256  0.1418
  213MOL    H4834392   1.620   4.589   1.486 -4.1446 -1.5307 -1.6720
  213MOL    H4934393   1.732   4.488   1.416 -0.6260 -2.1026  0.3015
  213MOL    C5034394   1.756   4.607   1.695 -0.1543  0.1193 -0.0192
  213MOL    C5134395   1.875   4.687   1.629  0.0638  0.5365  0.2990
  213MOL    C5234396   1.853   4.835   1.626  0.8831 -0.8963  0.5708
  213MOL    O5334397   1.922   4.910   1.695 -0.2645  0.1357  0.7344
  213MOL    H5434398   1.776   4.583   1.800  3.0682 -3.6362 -1.3496
  213MOL    H5534399   1.656   4.648   1.682  0.6279  2.8583  2.2670
  213MOL    H5634400   1.879   4.645   1.528 -2.3645  1.3441 -0.1508
  213MOL    H5734401   1.977   4.667   1.663  0.9255  3.7945 -0.1620
  213MOL    C5834402   1.726   4.897   1.565 -0.3939  0.5573  0.6867
  213MOL    C5934403   1.759   5.032   1.493 -0.0432 -0.5409 -0.4661
  213MOL    C6034404   1.641   5.072   1.414 -0.6799  0.5695 -0.4171
  213MOL    O6134405   1.633   5.022   1.301  0.0977  0.1271  0.3381
  213MOL    H6234406   1.651   4.913   1.642  1.9528 -0.7404  3.3429
  213MOL    H6334407   1.690   4.817   1.501 -0.4287  2.3479 -1.6010
  213MOL    H6434408   1.836   5.005   1.421 -1.3932  0.3880 -2.3217
  213MOL    H6534409   1.793   5.109   1.562 -3.2073  2.3869 -1.9915
  213MOL    C6634410   1.528   5.147   1.483  0.4669 -0.2933 -0.0523
  213MOL    C6734411   1.533   5.305   1.476 -0.6095  0.4641  0.4488
  213MOL    C6834412   1.506   5.357   1.337 -0.2099 -0.6536  0.4338
  213MOL    O6934413   1.445   5.286   1.253 -0.4302 -0.0423  0.1399
  213MOL    H7034414   1.506   5.128   1.588 -1.5205 -0.9176 -0.5507
  213MOL    H7134415   1.437   5.118   1.431  2.3734 -0.7981 -3.2310
  213MOL    H7234416   1.625   5.352   1.513 -0.9566  2.5184 -1.1935
  213MOL    H7334417   1.462   5.344   1.549 -0.8865  0.5604  0.1279
  213MOL    C7434418   1.556   5.502   1.316  0.3905  0.6139 -0.1477
  213MOL    C7534419   1.659   5.504   1.205 -0.2114  0.1009 -0.8326
  213MOL    C7634420   1.810   5.496   1.254  0.1294  0.4313 -0.1214
  213MOL    O7734421   1.838   5.396   1.324 -0.9220 -0.1127  0.2163
  213MOL    H7834422   1.605   5.537   1.407  0.2324  0.3161  0.0519
  213MOL    H7934423   1.464   5.558   1.304  0.4632  0.7153 -0.2333
  213MOL    H8034424   1.648   5.602   1.158  0.4249  0.6374  0.1056
  213MOL    H8134425   1.628   5.432   1.130 -0.0854 -0.9497  0.1195
  213MOL    C8234426   1.913   5.585   1.189 -0.5128 -0.3829  0.4343
  213MOL    C8334427   1.941   5.703   1.275  0.3158 -0.0871  0.7509
  213MOL    C8434428   1.837   5.819   1.265 -0.7056  0.2667 -0.5544
  213MOL    O8534429   1.736   5.806   1.190 -0.3322  0.3174 -0.5870
  213MOL    H8634430   1.878   5.617   1.091  0.6472  3.6696  1.2292
  213MOL    H8734431   2.010   5.542   1.162 -1.7089 -1.5298 -2.1538
  213MOL    H8834432   2.042   5.742   1.263 -0.1200  1.5943  2.3426
  213MOL    H8934433   1.943   5.668   1.378  3.1511 -1.6748  0.2240
  213MOL    C9034434   1.868   5.951   1.338  0.6272  0.3436  0.4419
  213MOL    C9134435   1.760   6.058   1.334 -0.1554  0.2325 -0.8644
  213MOL    C9234436   1.758   6.154   1.456 -0.3250 -0.0379 -0.1903
  213MOL    O9334437   1.848   6.148   1.538 -0.4462 -0.1200  0.4626
  213MOL    H9434438   1.961   5.997   1.302  0.0528  2.4248  1.5339
  213MOL    H9534439   1.904   5.925   1.437  0.4591  1.4556  0.8093
  213MOL    H9634440   1.663   6.015   1.307 -0.9095  1.2960  0.1045
  213MOL    H9734441   1.783   6.105   1.238 -1.9171  0.5299 -1.1619
  213MOL    C9834442   1.633   6.226   1.494 -0.3334  0.5028  0.3961
  213MOL    C9934443   1.666   6.357   1.559 -0.2969  0.3863  0.8235
  213MOL   C10034444   1.579   6.469   1.524  0.0404 -0.4323 -0.3092
  213MOL   O10134445   1.516   6.467   1.416 -0.6327 -0.2811 -0.5074
  213MOL   H10234446   1.592   6.156   1.566 -1.1951 -1.3615 -1.8348
  213MOL   H10334447   1.559   6.218   1.414  1.5858 -0.2137 -1.3934
  213MOL   H10434448   1.763   6.392   1.525  0.7367 -0.6134  2.6632
  213MOL   H10534449   1.672   6.347   1.667  1.4339 -0.6354  0.6465
  213MOL   C10634450   1.581   6.597   1.617 -0.0798  0.3540 -0.9466
  213MOL   C10734451   1.462   6.701   1.579 -0.2475 -0.0691 -0.2717
  213MOL   C10834452   1.327   6.643   1.643 -0.0723  0.0397 -0.0216
  213MOL   O10934453   1.324   6.528   1.694 -0.1885 -0.3824  1.1422
  213MOL   H11034454   1.676   6.648   1.599  0.0943  0.3694 -0.0253
  213MOL   H11134455   1.576   6.567   1.722 -0.6919  2.5849 -0.3123
  213MOL   H11234456   1.456   6.705   1.471 -0.9987 -0.5091 -0.2472
  213MOL   H11334457   1.486   6.800   1.617  0.0375  0.0223 -0.6975
  213MOL   C11434458   1.198   6.715   1.630 -0.0127 -0.3101  0.2282
  213MOL   C11534459   1.068   6.642   1.594  0.0485 -0.1696  0.2728
  213MOL   C11634460   1.018   6.653   1.452  0.4549 -0.0996  0.3332
  213MOL   O11734461   1.076   6.721   1.372 -0.7826 -0.1429  0.4550
  213MOL   H11834462   1.217   6.806   1.572 -1.6726  0.3012  0.6371
  213MOL   H11934463   1.188   6.759   1.729  3.1154 -0.7258  0.7711
  213MOL   H12034464   0.990   6.680   1.661  2.2478 -1.9294  4.0180
  213MOL   H12134465   1.063   6.538   1.627 -1.7819  0.5895  2.5320
  213MOL   C12234466   0.877   6.599   1.432  0.1422  0.0691  0.4736
  213MOL   C12334467   0.764   6.710   1.411  0.0173 -1.0470 -0.4931
  213MOL   C12434468   0.703   6.751   1.543 -0.6983 -0.2849 -0.1641
  213MOL   O12534469   0.746   6.700   1.648 -0.2675 -0.1314  0.2039
  213MOL   H12634470   0.849   6.541   1.520 -1.0129  1.2644  0.9059
  213MOL   H12734471   0.883   6.522   1.355  2.2856 -0.0219  0.7040
  213MOL   H12834472   0.679   6.668   1.357  0.8115 -2.3454 -0.7475
  213MOL   H12934473   0.786   6.805   1.361 -2.1475 -2.0086 -3.4447
  213MOL   C13034474   0.589   6.847   1.538  0.1045  0.2008  0.2230
  213MOL   C13134475   0.463   6.789   1.477  0.1558 -0.5317  0.2039
  213MOL   C13234476   0.358   6.891   1.452  0.1468  0.6497  0.1279
  213MOL   O13334477   0.376   7.011   1.455  0.2053  1.3334  0.4555
  213MOL   H13434478   0.620   6.938   1.487 -0.1698 -0.4079 -1.0710
  213MOL   H13534479   0.557   6.886   1.634 -2.7112  1.4336 -1.1575
  213MOL   H13634480   0.421   6.711   1.540 -2.2398 -0.4389 -1.2147
  213MOL   H13734481   0.497   6.743   1.384  0.5873 -1.3037  0.7412
  213MOL   C13834482   0.223   6.830   1.420  0.4224 -0.4721  0.4650
  213MOL   C13934483   0.105   6.930   1.382 -0.4649 -0.1684 -0.0227
  213MOL   C14034484   0.024   6.971   1.509  0.5295 -0.0195 -0.1919
  213MOL   O14134485   7.762   6.955   1.505  0.3361 -0.3281 -0.2619
  213MOL   H14234486   0.199   6.771   1.509  0.7296 -3.4355 -1.3685
  213MOL   H14334487   0.245   6.770   1.333 -1.8461 -0.4338 -0.1461
  213MOL   H14434488   0.034   6.873   1.322 -1.3856 -0.8713  1.7062
  213MOL   H14534489   0.140   7.020   1.331  2.1345 -0.0898  1.7836
  213MOL   C14634490   0.084   7.057   1.617  0.0504 -0.0385 -0.9188
  213MOL   C14734491   0.028   7.030   1.752  0.5952  0.4366  0.3038
  213MOL   C14834492   0.124   6.933   1.828  0.2429  0.1780 -0.1373
  213MOL   O14934493   0.200   6.850   1.781  0.0468 -0.6930 -0.5928
  213MOL   H15034494   0.063   7.162   1.597  1.2274  0.6362  1.2270
  213MOL   H15134495   0.189   7.025   1.620 -0.1207 -0.5406 -0.0474
  213MOL   H15234496   7.792   6.978   1.754  1.3006 -1.0382 -2.6040
  213MOL   H15334497   0.017   7.117   1.817 -0.3338 -0.6340  1.6086
  213MOL   C15434498   0.122   6.936   1.980  0.4644 -0.5445 -0.0227
  213MOL   C15534499   0.264   6.937   2.030 -0.3001 -0.7503  0.3957
  213MOL   C15634500   0.331   7.080   2.031 -0.3812  1.3030  0.7099
  213MOL   O15734501   0.317   7.168   1.946 -0.3703 -0.1979 -0.3497
  213MOL   H15834502   0.073   6.843   2.011 -0.4234  0.0616  0.4205
  213MOL   H15934503   0.062   7.021   2.012  1.0639  0.2846 -1.0560
  213MOL   H16034504   0.328   6.869   1.973 -0.0906 -0.9346  0.8504
  213MOL   H16134505   0.261   6.895   2.130 -2.6283 -0.7890  0.3549
  213MOL   H16234506   0.399   7.093   2.115  1.5666  0.1692 -0.6515
  214MOL     C134507   3.488   2.929   3.787  0.5302 -0.4204  0.0356
  214MOL     C234508   3.487   3.091   3.764 -1.1492 -0.6270 -0.5785
  214MOL     C334509   3.408   3.138   3.641  0.1412 -0.0531  0.5801
  214MOL     O434510   3.378   3.063   3.546  0.4588 -0.1961  0.1073
  214MOL     H534511   3.404   2.868   3.755 -0.9003  1.0975  0.8263
  214MOL     H634512   3.576   2.903   3.728  0.1509 -0.9539 -0.2999
  214MOL     H734513   3.593   3.118   3.769 -1.0547 -1.2457  1.2678
  214MOL     H834514   3.439   3.127   3.855  3.7310  0.6479  1.6482
  214MOL     H934515   3.524   2.912   3.889  0.6372 -0.6228 -0.0360
  214MOL    C1034516   3.340   3.278   3.664 -0.5767  0.0394  0.5723
  214MOL    C1134517   3.280   3.321   3.530 -0.8645 -0.4353 -0.0335
  214MOL    C1234518   3.245   3.465   3.525 -0.7922 -0.5308  0.4502
  214MOL    O1334519   3.254   3.534   3.631 -0.6145 -0.3963 -0.0046
  214MOL    H1434520   3.416   3.353   3.686 -1.0413  0.4203  0.8824
  214MOL    H1534521   3.259   3.274   3.737 -2.0432  0.2919 -1.0183
  214MOL    H1634522   3.189   3.263   3.513 -1.0362  1.0259 -4.9588
  214MOL    H1734523   3.349   3.313   3.446 -0.7277  0.6691 -0.0388
  214MOL    C1834524   3.208   3.528   3.390 -0.6051 -0.2240 -0.0006
  214MOL    C1934525   3.223   3.682   3.387 -0.3291  0.2619 -0.5303
  214MOL    C2034526   3.100   3.769   3.392 -0.4018  0.3433 -0.2573
  214MOL    O2134527   2.994   3.736   3.343  0.0955 -0.3987 -0.0041
  214MOL    H2234528   3.105   3.505   3.361 -0.6178  0.2955 -0.3758
  214MOL    H2334529   3.261   3.483   3.306  1.3306 -1.6816  1.9566
  214MOL    H2434530   3.289   3.705   3.304  2.1418 -0.7902  1.0637
  214MOL    H2534531   3.277   3.716   3.476 -0.9452  0.8936 -0.3936
  214MOL    C2634532   3.118   3.900   3.465 -0.5656 -0.0944  0.1004
  214MOL    C2734533   2.992   3.951   3.531 -0.1989  0.9763 -0.8145
  214MOL    C2834534   2.952   3.872   3.654 -0.2758 -0.2671 -0.0709
  214MOL    O2934535   3.041   3.813   3.725 -0.3549  0.8821  0.4123
  214MOL    H3034536   3.145   3.972   3.387  0.4055  1.1713  1.5898
  214MOL    H3134537   3.195   3.899   3.542  1.2813  0.0938 -1.6993
  214MOL    H3234538   2.911   3.943   3.459 -0.5933  0.2122 -0.2979
  214MOL    H3334539   2.991   4.056   3.558  0.8047  0.4511  1.4010
  214MOL    C3434540   2.806   3.878   3.689 -0.0494  0.5572  0.1757
  214MOL    C3534541   2.768   3.748   3.763  0.9332 -0.4752  0.2436
  214MOL    C3634542   2.620   3.736   3.766  0.0265  0.3880 -0.0551
  214MOL    O3734543   2.541   3.806   3.705 -0.2120 -0.0650 -0.5099
  214MOL    H3834544   2.744   3.889   3.601 -0.7672 -0.2981  0.5645
  214MOL    H3934545   2.798   3.969   3.748 -0.6373 -0.0992  1.1387
  214MOL    H4034546   2.812   3.731   3.861 -1.9488  1.4339  1.9349
  214MOL    H4134547   2.803   3.667   3.699  1.5840 -1.2071  1.5078
  214MOL    C4234548   2.567   3.647   3.877 -0.1329 -1.1382  0.3966
  214MOL    C4334549   2.425   3.665   3.923  0.0783 -1.0657 -0.5229
  214MOL    C4434550   2.380   3.544   4.014 -0.2676  0.2795 -0.9944
  214MOL    O4534551   2.439   3.439   4.023 -0.3202  0.5235 -0.3802
  214MOL    H4634552   2.633   3.654   3.964  1.1330 -4.9731 -0.1767
  214MOL    H4734553   2.573   3.545   3.838 -1.2972 -1.1531  0.2378
  214MOL    H4834554   2.351   3.674   3.843  1.0661  1.5858 -1.1988
  214MOL    H4934555   2.412   3.753   3.985  0.8523  0.0900 -1.9542
  214MOL    C5034556   2.244   3.559   4.092 -0.3862  0.1739  0.0711
  214MOL    C5134557   2.197   3.416   4.138 -0.3678 -0.6709  0.7582
  214MOL    C5234558   2.054   3.415   4.194  0.1686 -0.1234  0.5060
  214MOL    O5334559   1.978   3.515   4.187 -0.1240 -0.0013  0.3621
  214MOL    H5434560   2.159   3.605   4.043 -1.3396 -1.7101 -0.0934
  214MOL    H5534561   2.271   3.624   4.176  0.8118 -0.3564  0.1152
  214MOL    H5634562   2.262   3.372   4.213  0.5768 -1.1971 -0.3573
  214MOL    H5734563   2.204   3.340   4.060 -1.7985  0.7519 -0.7926
  214MOL    C5834564   2.017   3.284   4.263  0.0823  0.7060 -0.2513
  214MOL    C5934565   1.977   3.308   4.416 -0.3612  0.2578  0.1881
  214MOL    C6034566   1.833   3.360   4.421 -0.0547  0.0298  0.1194
  214MOL    O6134567   1.807   3.453   4.501  0.2818 -0.4929  0.6234
  214MOL    H6234568   2.110   3.229   4.276 -0.8552 -0.8980 -0.1981
  214MOL    H6334569   1.945   3.225   4.206 -0.1355  2.4410 -1.8271
  214MOL    H6434570   2.029   3.396   4.455 -0.0262  0.5045 -0.7895
  214MOL    H6534571   1.995   3.222   4.480 -0.1755 -1.8397 -2.5983
  214MOL    C6634572   1.720   3.291   4.352 -0.0876  0.3259 -0.4502
  214MOL    C6734573   1.635   3.215   4.460 -0.1288 -0.3577 -0.2040
  214MOL    C6834574   1.525   3.132   4.397  0.3803  0.1457 -0.4137
  214MOL    O6934575   1.529   3.099   4.278  0.3958  0.7032  0.3781
  214MOL    H7034576   1.756   3.226   4.274 -0.1135  1.5784 -1.5254
  214MOL    H7134577   1.666   3.363   4.290  0.3923 -0.7455 -2.1114
  214MOL    H7234578   1.593   3.281   4.535  0.8906  0.8490 -0.6705
  214MOL    H7334579   1.702   3.136   4.495  0.1046  0.8501  2.1486
  214MOL    C7434580   1.409   3.105   4.492  0.0098  0.4290 -0.0591
  214MOL    C7534581   1.299   3.006   4.429  0.6958  0.6122 -0.1245
  214MOL    C7634582   1.162   3.002   4.496  0.7184 -0.0023  0.2599
  214MOL    O7734583   1.125   3.084   4.581  0.0663  0.6960 -0.1455
  214MOL    H7834584   1.353   3.195   4.519 -0.4957 -0.1725  0.9218
  214MOL    H7934585   1.445   3.064   4.587 -2.1170  0.6361  0.8578
  214MOL    H8034586   1.342   2.906   4.419  2.0394  0.7444  3.6361
  214MOL    H8134587   1.273   3.040   4.329 -1.5614 -1.0069 -0.1336
  214MOL    C8234588   1.082   2.883   4.445  0.3089 -0.0613  0.2062
  214MOL    C8334589   0.934   2.891   4.468 -0.0567  0.1511  0.0767
  214MOL    C8434590   0.856   2.964   4.364  0.2376  0.7014  0.2398
  214MOL    O8534591   0.908   2.990   4.257  0.5673  0.2004 -0.1510
  214MOL    H8634592   1.115   2.791   4.493  0.2180 -0.3606 -0.3005
  214MOL    H8734593   1.107   2.896   4.339 -0.7352  0.2201 -0.0144
  214MOL    H8834594   0.932   2.949   4.561  0.7311  1.1525 -0.5162
  214MOL    H8934595   0.889   2.794   4.490 -1.8110  0.9303 -0.0112
  214MOL    C9034596   0.715   3.001   4.401  0.3723  0.1628  0.0721
  214MOL    C9134597   0.622   3.020   4.284  0.5055  0.2168  0.7558
  214MOL    C9234598   0.499   2.931   4.285 -0.6480 -0.2489  0.5183
  214MOL    O9334599   0.504   2.819   4.330  0.5254 -0.2532  0.6971
  214MOL    H9434600   0.721   3.084   4.472 -0.6098  0.1176  0.2141
  214MOL    H9534601   0.682   2.923   4.470  1.1405 -0.0543  0.1996
  214MOL    H9634602   0.669   2.988   4.191  0.4114  0.2165  0.7072
  214MOL    H9734603   0.596   3.126   4.282 -1.4870 -0.1536  3.5708
  214MOL    C9834604   0.373   2.970   4.210  0.3083  0.8564 -0.0840
  214MOL    C9934605   0.368   2.911   4.070  0.1216 -0.7292 -0.8804
  214MOL   C10034606   0.226   2.908   4.016 -0.4928  0.0000 -0.3787
  214MOL   O10134607   0.123   2.943   4.073  0.0011 -0.4744  0.1118
  214MOL   H10234608   0.372   3.079   4.203  0.7965  0.8509 -0.2473
  214MOL   H10334609   0.286   2.943   4.270 -0.7590 -0.1226 -2.0224
  214MOL   H10434610   0.421   2.816   4.069 -0.5441 -1.1208  0.0862
  214MOL   H10534611   0.433   2.971   4.007  3.6667 -3.5140 -0.0198
  214MOL   C10634612   0.222   2.860   3.867 -0.2696 -0.6069  0.0834
  214MOL   C10734613   0.191   2.983   3.774 -0.0521 -0.3479  0.8056
  214MOL   C10834614   0.085   2.957   3.662 -0.1873  0.4020 -0.5484
  214MOL   O10934615   0.045   2.843   3.641  0.0316  0.3474 -0.4732
  214MOL   H11034616   0.141   2.789   3.849  0.0639 -0.7850 -0.7090
  214MOL   H11134617   0.319   2.813   3.854  0.8626  0.2281  4.7294
  214MOL   H11234618   0.282   3.028   3.734 -1.7022  1.3381 -1.1606
  214MOL   H11334619   0.161   3.063   3.842 -0.3477 -0.7277  1.1218
  214MOL   C11434620   0.026   3.072   3.578  0.1952  0.2426 -0.1829
  214MOL   C11534621   7.732   3.068   3.562  0.2995 -0.4146 -0.1306
  214MOL   C11634622   7.673   3.134   3.436  0.6814 -0.1646  0.0660
  214MOL   O11734623   7.730   3.231   3.380  0.2949  0.2581  0.7577
  214MOL   H11834624   0.068   3.065   3.478  0.1545  1.6937 -0.3220
  214MOL   H11934625   0.071   3.167   3.605  3.8170 -0.7661 -2.3628
  214MOL   H12034626   7.690   3.128   3.643  2.4298 -0.2915  0.9089
  214MOL   H12134627   7.690   2.968   3.574  1.5652 -1.0066 -0.5831
  214MOL   C12234628   7.538   3.068   3.383  0.3866 -0.4653 -0.0837
  214MOL   C12334629   7.541   3.043   3.228 -0.0189  0.1468  0.4059
  214MOL   C12434630   7.480   2.908   3.187 -0.0109  0.3904 -0.0743
  214MOL   O12534631   7.397   2.852   3.254 -0.1588 -0.6116  1.3712
  214MOL   H12634632   7.453   3.124   3.423 -1.3675 -3.5931  0.8235
  214MOL   H12734633   7.539   2.974   3.438  0.3704  1.7635  3.9280
  214MOL   H12834634   7.645   3.046   3.196  0.2177 -1.5714  0.9764
  214MOL   H12934635   7.491   3.130   3.185 -0.3860  0.1148  0.7632
  214MOL   C13034636   7.521   2.848   3.054 -0.5848 -0.1402  0.7127
  214MOL   C13134637   7.431   2.743   2.999 -0.3525 -0.2227  0.5028
  214MOL   C13234638   7.491   2.604   3.031  0.1820  0.1515  0.2972
  214MOL   O13334639   7.614   2.597   3.045 -0.2932 -0.0018 -0.0643
  214MOL   H13434640   7.625   2.815   3.052 -0.5725 -0.0828  0.2212
  214MOL   H13534641   7.529   2.933   2.986 -2.7972 -0.9754 -0.6515
  214MOL   H13634642   7.414   2.749   2.891  1.7831 -0.1574  0.1486
  214MOL   H13734643   7.332   2.752   3.043  0.2910 -1.9112  2.3576
  214MOL   C13834644   7.392   2.494   3.075  1.1723  0.8007 -0.4633
  214MOL   C13934645   7.462   2.358   3.091 -0.2887 -0.0487 -0.0651
  214MOL   C14034646   7.389   2.247   3.010 -0.7836  0.5735 -0.6472
  214MOL   O14134647   7.337   2.265   2.904  0.3252 -0.3721 -0.1234
  214MOL   H14234648   7.322   2.492   2.992 -0.9972  0.7233  1.3155
  214MOL   H14334649   7.339   2.525   3.165  1.1747  1.7629 -0.7870
  214MOL   H14434650   7.447   2.328   3.195  0.1391 -2.6681 -0.7109
  214MOL   H14534651   7.566   2.360   3.060  0.1231 -3.1851  0.9526
  214MOL   C14634652   7.377   2.111   3.078 -0.1559 -0.0599 -0.5736
  214MOL   C14734653   7.240   2.090   3.145 -0.2388 -0.2113 -0.3657
  214MOL   C14834654   7.224   2.147   3.283 -0.3132 -0.2430 -0.2390
  214MOL   O14934655   7.316   2.202   3.347 -0.1020  0.2341  0.5047
  214MOL   H15034656   7.459   2.099   3.150 -0.7387  0.4773  0.1901
  214MOL   H15134657   7.394   2.037   3.000 -3.7879 -1.3209 -0.2331
  214MOL   H15234658   7.218   1.983   3.137  0.6372 -0.2700 -2.2079
  214MOL   H15334659   7.165   2.135   3.079 -1.0902 -0.4838  0.3997
  214MOL   C15434660   7.082   2.143   3.344  0.5410 -0.3899 -0.6756
  214MOL   C15534661   7.067   2.160   3.493  0.1323 -0.5404 -0.4918
  214MOL   C15634662   7.112   2.037   3.577  0.1089 -0.0606 -0.2614
  214MOL   O15734663   7.108   1.922   3.532 -0.2659  0.1126  0.6726
  214MOL   H15834664   7.040   2.046   3.320  1.9472 -1.4462  1.0516
  214MOL   H15934665   7.017   2.217   3.298 -1.4797 -1.3839  0.5527
  214MOL   H16034666   6.969   2.186   3.532  1.3679  1.2817  1.5380
  214MOL   H16134667   7.132   2.241   3.527  0.7515 -1.4187  0.4524
  214MOL   H16234668   7.154   2.064   3.674  1.0090 -0.4619 -0.5317
  215MOL     C134669   7.476   2.363   5.028  0.0889 -0.2085  0.8533
  215MOL     C234670   7.519   2.504   4.980  0.5658 -0.8595  0.1567
  215MOL     C334671   7.597   2.505   4.851 -0.0262  0.2773  0.0716
  215MOL     O434672   7.594   2.410   4.778 -0.2779 -0.1192 -0.0900
  215MOL     H534673   7.377   2.352   4.984 -0.2635 -2.7871  2.2448
  215MOL     H634674   7.534   2.278   4.993  0.3037  0.1948  0.2259
  215MOL     H734675   7.591   2.549   5.048  1.9130 -0.5798 -1.4284
  215MOL     H834676   7.431   2.567   4.969  1.5135  0.6571  0.9787
  215MOL     H934677   7.458   2.375   5.135 -0.9248  0.7083  0.5967
  215MOL    C1034678   7.667   2.628   4.817 -0.3852 -0.4119  0.0807
  215MOL    C1134679   7.717   2.638   4.672  0.5692  0.7221 -0.3086
  215MOL    C1234680   7.836   2.741   4.663 -0.0676  0.6717  0.1762
  215MOL    O1334681   7.846   2.829   4.751 -0.8474 -0.1386  0.0823
  215MOL    H1434682   7.753   2.644   4.882 -0.2241 -0.0568 -0.2177
  215MOL    H1534683   7.604   2.712   4.847 -0.5658 -0.9574  1.2399
  215MOL    H1634684   7.642   2.696   4.619  0.5987  0.2505 -0.8723
  215MOL    H1734685   7.750   2.542   4.631 -0.2728  0.1819  0.2400
  215MOL    C1834686   0.081   2.730   4.547  0.0401  0.3687 -0.9464
  215MOL    C1934687   0.047   2.827   4.436 -0.1279 -0.1068  0.0743
  215MOL    C2034688   7.798   2.777   4.338  0.0458 -0.0049  0.4958
  215MOL    O2134689   7.772   2.661   4.320 -0.5298  0.4044  0.0635
  215MOL    H2234690   0.077   2.626   4.515  2.3301  0.8035 -2.7484
  215MOL    H2334691   0.182   2.733   4.587  0.0118 -1.3002 -0.6996
  215MOL    H2434692   0.136   2.849   4.377 -0.7633  0.8065 -0.5428
  215MOL    H2534693   0.020   2.923   4.480  1.5886 -0.4673  1.9786
  215MOL    C2634694   7.722   2.890   4.263  0.2513 -0.6809  0.5311
  215MOL    C2734695   7.663   2.846   4.128 -0.3361 -0.2778 -0.2867
  215MOL    C2834696   7.572   2.956   4.075 -0.1239 -0.8733 -1.1250
  215MOL    O2934697   7.552   3.064   4.137  0.3599 -0.2659 -0.3101
  215MOL    H3034698   7.782   2.981   4.252 -0.3534 -0.4399 -0.8572
  215MOL    H3134699   7.637   2.915   4.327 -0.8407 -1.2499 -0.6753
  215MOL    H3234700   7.607   2.753   4.136 -1.0448  0.2632  1.0255
  215MOL    H3334701   7.745   2.836   4.056 -2.1082  2.5950 -2.8684
  215MOL    C3434702   7.510   2.946   3.940  0.4648  0.8743  0.0906
  215MOL    C3534703   7.387   3.033   3.919  1.0981  0.0181 -0.0222
  215MOL    C3634704   7.365   3.029   3.769  0.8091 -0.1311 -0.3324
  215MOL    O3734705   7.424   3.112   3.701 -0.0470 -0.0780  0.1114
  215MOL    H3834706   7.492   2.839   3.931  0.6606  0.7272  1.3841
  215MOL    H3934707   7.587   2.963   3.864  2.4830 -0.9808  1.6356
  215MOL    H4034708   7.402   3.137   3.947 -2.3254  1.1457 -2.1497
  215MOL    H4134709   7.306   3.005   3.985 -0.4221  0.6222 -1.6052
  215MOL    C4234710   7.270   2.924   3.723  0.3846  0.0041 -0.4745
  215MOL    C4334711   7.268   2.917   3.567  0.2138  0.1958  0.2701
  215MOL    C4434712   7.129   2.877   3.512  0.4789  0.3853  0.8798
  215MOL    O4534713   7.055   2.954   3.453  0.0139 -0.3991  0.8162
  215MOL    H4634714   7.174   2.947   3.769  0.6217 -0.4310  0.2470
  215MOL    H4734715   7.311   2.830   3.760  1.2782  1.2577  1.8084
  215MOL    H4834716   7.345   2.852   3.527  0.3298  1.0810 -0.9847
  215MOL    H4934717   7.289   3.008   3.511 -0.1922  0.2439  0.1916
  215MOL    C5034718   7.103   2.722   3.524 -0.5547  0.2275 -0.1041
  215MOL    C5134719   6.964   2.672   3.509  0.1007 -0.2246  0.3545
  215MOL    C5234720   6.942   2.522   3.546 -0.1249 -0.1777  0.8486
  215MOL    O5334721   7.016   2.442   3.490  0.1503  0.3133  0.1997
  215MOL    H5434722   7.147   2.680   3.614 -2.2844 -0.7742  0.2992
  215MOL    H5534723   7.147   2.671   3.438 -1.3392  0.9254 -0.9374
  215MOL    H5634724   6.943   2.691   3.404  1.6216 -0.0883  0.0586
  215MOL    H5734725   6.889   2.739   3.552  2.3480  3.4319 -1.1476
  215MOL    C5834726   6.814   2.480   3.607 -0.2400 -0.5965  0.6558
  215MOL    C5934727   6.818   2.342   3.675 -0.5259  0.5700 -0.7149
  215MOL    C6034728   6.751   2.335   3.810 -0.8254 -0.1569 -0.0423
  215MOL    O6134729   6.767   2.417   3.901  0.3849  0.4230  0.3727
  215MOL    H6234730   6.745   2.482   3.523 -0.4334 -0.8803  0.8071
  215MOL    H6334731   6.786   2.558   3.678 -0.1083 -1.2121  1.3921
  215MOL    H6434732   6.922   2.321   3.700 -0.7272  0.4064 -0.0012
  215MOL    H6534733   6.782   2.266   3.606  1.7974 -0.8012 -0.4849
  215MOL    C6634734   6.651   2.220   3.832  0.2922 -0.2831  0.2527
  215MOL    C6734735   6.564   2.233   3.956 -0.3403 -0.1632 -0.0972
  215MOL    C6834736   6.415   2.249   3.942  0.2544  0.3242  0.1693
  215MOL    O6934737   6.364   2.262   3.827 -0.2165 -0.1490 -0.8948
  215MOL    H7034738   6.687   2.120   3.812  0.8867  0.3036 -1.7153
  215MOL    H7134739   6.578   2.239   3.753 -0.2603 -0.9948  0.5896
  215MOL    H7234740   6.606   2.303   4.028  1.0451 -1.5959  0.5228
  215MOL    H7334741   6.589   2.140   4.007 -0.3069  0.0204  0.2211
  215MOL    C7434742   6.335   2.249   4.067 -0.7636  0.3553 -0.3941
  215MOL    C7534743   6.183   2.240   4.042 -0.0499 -0.3961  0.6920
  215MOL    C7634744   6.099   2.296   4.157  0.2208 -0.7201 -0.0681
  215MOL    O7734745   6.155   2.350   4.258  0.0308 -0.0725  0.0693
  215MOL    H7834746   6.363   2.334   4.129 -0.4743 -0.5264  0.7082
  215MOL    H7934747   6.369   2.160   4.121  1.7973  2.7136  2.0500
  215MOL    H8034748   6.152   2.137   4.029  2.4354 -1.0998  0.0145
  215MOL    H8134749   6.166   2.300   3.952 -0.4830 -0.2946  0.8356
  215MOL    C8234750   5.953   2.268   4.141  0.0514  0.4922 -0.0506
  215MOL    C8334751   5.886   2.384   4.068 -0.0339 -0.1100 -0.4084
  215MOL    C8434752   5.792   2.330   3.964  0.1771  0.1362  0.6146
  215MOL    O8534753   5.829   2.336   3.846  0.1301  0.1066 -0.2347
  215MOL    H8634754   5.908   2.253   4.240  0.0393 -0.0716 -0.1395
  215MOL    H8734755   5.931   2.174   4.091 -2.1929  0.2787  1.2524
  215MOL    H8834756   5.957   2.453   4.021  0.4493 -1.9822 -2.5210
  215MOL    H8934757   5.826   2.447   4.133 -2.6791 -0.9404 -1.9658
  215MOL    C9034758   5.655   2.279   4.007  0.1316  0.3954 -0.1885
  215MOL    C9134759   5.605   2.159   3.916  0.0546 -0.2853  0.1615
  215MOL    C9234760   5.481   2.087   3.970  0.1253  0.2849  0.0101
  215MOL    O9334761   5.476   2.018   4.071  0.1613  0.1976 -0.2165
  215MOL    H9434762   5.604   2.375   4.006  1.5081  1.1522  0.8025
  215MOL    H9534763   5.651   2.246   4.111  1.0825 -0.5542 -0.4502
  215MOL    H9634764   5.684   2.085   3.901  0.8341  0.4372  0.6625
  215MOL    H9734765   5.577   2.199   3.818 -0.4619 -0.0472  0.4030
  215MOL    C9834766   5.348   2.110   3.886  0.4096 -0.3151 -0.0417
  215MOL    C9934767   5.228   2.127   3.984 -0.0390  0.0981  0.0770
  215MOL   C10034768   5.088   2.091   3.930  0.4185  0.0685  0.4697
  215MOL   O10134769   5.073   2.020   3.835  0.6665 -0.2735  0.4448
  215MOL   H10234770   5.341   2.029   3.814  0.9733 -1.2230  0.9327
  215MOL   H10334771   5.367   2.206   3.837  0.9426  0.7228  2.1187
  215MOL   H10434772   5.225   2.226   4.031  0.5428  0.5495 -0.8250
  215MOL   H10534773   5.240   2.057   4.067  1.3283  1.3087  0.9214
  215MOL   C10634774   4.973   2.163   4.004  0.0558 -0.4767 -0.1812
  215MOL   C10734775   4.881   2.234   3.905 -0.4686  0.3268  0.6209
  215MOL   C10834776   4.787   2.343   3.962 -0.7326  0.2914  0.5583
  215MOL   O10934777   4.777   2.362   4.081  0.5998 -0.5647 -0.1355
  215MOL   H11034778   5.013   2.243   4.066  0.8765 -1.7069  0.8725
  215MOL   H11134779   4.913   2.085   4.050 -1.8408  1.0061 -0.0644
  215MOL   H11234780   4.825   2.153   3.859 -1.1810  1.8772 -1.3218
  215MOL   H11334781   4.940   2.281   3.827  1.1976  0.3004  1.8345
  215MOL   C11434782   4.713   2.413   3.851  0.5203 -1.0513 -0.5788
  215MOL   C11534783   4.596   2.502   3.906  0.4327 -0.0037  0.6383
  215MOL   C11634784   4.627   2.647   3.947  0.0230  0.3779  0.7948
  215MOL   O11734785   4.729   2.705   3.906 -0.1020  0.4082 -1.0186
  215MOL   H11834786   4.674   2.335   3.786 -0.9615 -0.5260 -0.3495
  215MOL   H11934787   4.794   2.469   3.803  0.4621 -0.0911  0.4317
  215MOL   H12034788   4.550   2.459   3.995 -1.9005 -0.2853 -0.6389
  215MOL   H12134789   4.517   2.501   3.831 -0.7388  0.1357  1.8514
  215MOL   C12234790   4.533   2.713   4.044 -0.4463 -0.2601 -0.1279
  215MOL   C12334791   4.514   2.865   4.040 -0.1750  0.2110  0.6895
  215MOL   C12434792   4.406   2.920   4.131  0.9795  0.1690 -0.2397
  215MOL   O12534793   4.338   2.847   4.201 -0.1510 -0.1215  0.1786
  215MOL   H12634794   4.566   2.700   4.147  1.1873  1.3295 -0.4191
  215MOL   H12734795   4.432   2.678   4.024  0.1963 -2.0843 -0.2570
  215MOL   H12834796   4.505   2.900   3.937 -0.5237 -0.9146  0.3217
  215MOL   H12934797   4.609   2.909   4.070  0.1498  0.6561 -0.9142
  215MOL   C13034798   4.365   3.067   4.119 -1.5558  0.1537 -0.4639
  215MOL   C13134799   4.215   3.087   4.143  0.0089 -0.3205 -0.3571
  215MOL   C13234800   4.182   3.216   4.069  0.4440  0.3781 -0.3117
  215MOL   O13334801   4.266   3.305   4.062 -1.0568  0.0387 -0.5416
  215MOL   H13434802   4.396   3.095   4.018 -2.2701 -1.5947 -1.1803
  215MOL   H13534803   4.427   3.136   4.177 -1.5093 -0.5774  0.3603
  215MOL   H13634804   4.203   3.089   4.252  0.0596 -0.0262 -0.3551
  215MOL   H13734805   4.151   3.010   4.101  1.2885 -2.4418  1.4846
  215MOL   C13834806   4.034   3.237   4.032  0.1621 -0.0370 -0.9080
  215MOL   C13934807   3.964   3.341   4.122  0.7267  0.1393 -0.1799
  215MOL   C14034808   3.914   3.467   4.056  0.1397  0.7709  0.8243
  215MOL   O14134809   3.921   3.479   3.934 -0.1340 -0.1492 -0.2977
  215MOL   H14234810   3.973   3.147   4.032 -1.3776  1.0058 -0.9688
  215MOL   H14334811   4.024   3.262   3.927  0.6046  2.0438 -0.4822
  215MOL   H14434812   4.033   3.384   4.194  2.2051 -0.7741 -1.0192
  215MOL   H14534813   3.884   3.292   4.177 -0.6105  2.6781  0.1901
  215MOL   C14634814   3.863   3.575   4.142 -0.0720  0.3372 -0.4019
  215MOL   C14734815   3.786   3.690   4.074 -1.3210 -0.1166  0.2044
  215MOL   C14834816   3.854   3.823   4.091 -0.0305  0.0169 -0.4803
  215MOL   O14934817   3.966   3.827   4.144 -0.0681 -0.1621 -0.1867
  215MOL   H15034818   3.942   3.606   4.211 -1.3420  0.6780  0.9288
  215MOL   H15134819   3.801   3.538   4.223 -1.2988 -0.3704 -1.6593
  215MOL   H15234820   3.680   3.692   4.099 -1.5062 -0.9553 -0.5205
  215MOL   H15334821   3.787   3.683   3.966  1.8747 -2.5273  0.3152
  215MOL   C15434822   3.776   3.943   4.038  1.0935 -0.4010  0.0179
  215MOL   C15534823   3.855   4.004   3.919  0.0723  0.0155 -0.9896
  215MOL   C15634824   3.807   4.136   3.870 -0.1560  0.0070  0.1155
  215MOL   O15734825   3.729   4.201   3.935 -0.1573 -0.0154 -0.0479
  215MOL   H15834826   3.765   4.014   4.120  0.3929 -2.1279  1.4573
  215MOL   H15934827   3.676   3.917   4.005  0.9334 -1.7610  1.4887
  215MOL   H16034828   3.852   3.936   3.833  2.6073  0.8131 -1.7621
  215MOL   H16134829   3.960   4.022   3.941  1.0911 -2.1684 -3.8022
  215MOL   H16234830   3.854   4.169   3.777  1.4990  1.3179  1.3984
  216MOL     C134831   3.286   1.965   3.607 -0.5315 -0.2176 -1.0254
  216MOL     C234832   3.374   2.001   3.487  0.1151 -0.3037 -0.0035
  216MOL     C334833   3.356   2.148   3.442  0.4882  0.1587 -0.0149
  216MOL     O434834   3.267   2.219   3.497 -0.3068  0.2250  0.3093
  216MOL     H534835   3.279   1.857   3.616 -0.0968 -0.0033  2.6545
  216MOL     H634836   3.324   2.018   3.695  0.8259 -1.1311 -1.0618
  216MOL     H734837   3.349   1.932   3.406 -0.7825 -0.8979  0.7737
  216MOL     H834838   3.481   1.990   3.507  0.1137  0.5825  0.4656
  216MOL     H934839   3.184   1.998   3.586 -0.9441 -0.5599  0.3552
  216MOL    C1034840   3.433   2.197   3.319 -0.4122 -0.5136  0.0438
  216MOL    C1134841   3.418   2.347   3.285 -0.3438  0.1420 -0.7683
  216MOL    C1234842   3.477   2.444   3.388 -0.0087 -0.4934 -0.7297
  216MOL    O1334843   3.599   2.455   3.403  0.1521 -0.0316  0.4904
  216MOL    H1434844   3.424   2.133   3.231  1.7256  0.0313 -0.6068
  216MOL    H1534845   3.539   2.186   3.343 -0.6971  1.2708  2.2371
  216MOL    H1634846   3.309   2.354   3.287 -0.2489  1.2959  0.8861
  216MOL    H1734847   3.443   2.378   3.183  0.5613  0.5857 -0.4253
  216MOL    C1834848   3.393   2.542   3.464  0.3306  0.8229 -0.2300
  216MOL    C1934849   3.337   2.646   3.368 -0.6181 -0.2274  0.0306
  216MOL    C2034850   3.226   2.726   3.429 -0.2663 -0.2348 -0.2836
  216MOL    O2134851   3.203   2.729   3.551  0.7688  0.1045  0.0733
  216MOL    H2234852   3.444   2.593   3.545  2.5442 -1.7332  0.0372
  216MOL    H2334853   3.316   2.479   3.508  0.9808 -0.5269 -1.0006
  216MOL    H2434854   3.295   2.603   3.278 -1.7733  1.4876 -0.2641
  216MOL    H2534855   3.410   2.723   3.341 -1.2499 -0.5107 -2.5626
  216MOL    C2634856   3.142   2.809   3.334  0.1189  0.4387 -0.2946
  216MOL    C2734857   3.093   2.952   3.390 -1.1390 -0.3876  0.3385
  216MOL    C2834858   2.942   2.972   3.390 -0.5515  0.3403 -0.2081
  216MOL    O2934859   2.871   2.910   3.312  0.5984 -0.5374 -0.2840
  216MOL    H3034860   3.059   2.740   3.322  1.4418 -2.1799  4.3533
  216MOL    H3134861   3.193   2.821   3.239  0.1723  0.9550 -0.2060
  216MOL    H3234862   3.140   3.040   3.345  0.0533 -1.3340 -0.2780
  216MOL    H3334863   3.120   2.969   3.495  0.3791  1.0932 -0.2575
  216MOL    C3434864   2.874   3.083   3.473 -0.3611 -0.2090  0.6278
  216MOL    C3534865   2.803   3.191   3.397  1.1147 -0.2921  0.3153
  216MOL    C3634866   2.887   3.283   3.317 -0.0349 -0.2808  0.3287
  216MOL    O3734867   3.009   3.281   3.330 -0.2855 -0.1402  0.3734
  216MOL    H3834868   2.953   3.121   3.538 -0.8296 -3.5634  3.3702
  216MOL    H3934869   2.803   3.038   3.543 -0.4545 -2.2125 -0.7103
  216MOL    H4034870   2.730   3.241   3.461  0.8664  0.4698 -0.5702
  216MOL    H4134871   2.749   3.143   3.315 -1.3721  1.8723  0.6127
  216MOL    C4234872   2.815   3.378   3.224 -0.5133  0.5000 -0.2436
  216MOL    C4334873   2.754   3.490   3.310  0.1391  0.0378 -0.1222
  216MOL    C4434874   2.692   3.608   3.247  0.5360 -0.7098 -0.2482
  216MOL    O4534875   2.695   3.628   3.123  0.3771  0.5065 -0.1020
  216MOL    H4634876   2.744   3.329   3.157  0.8082  0.9596 -2.0451
  216MOL    H4734877   2.896   3.413   3.160 -1.1087 -1.5345 -2.1934
  216MOL    H4834878   2.829   3.527   3.380  0.3486  0.5489 -0.6122
  216MOL    H4934879   2.676   3.450   3.374 -0.3556  0.0937 -0.6855
  216MOL    C5034880   2.637   3.716   3.339 -0.4501  0.1615  0.6014
  216MOL    C5134881   2.532   3.812   3.290 -0.6435  0.5248  0.2935
  216MOL    C5234882   2.540   3.941   3.377  0.3279  0.4396  0.0444
  216MOL    O5334883   2.649   3.978   3.420 -0.6577 -0.1001  0.0592
  216MOL    H5434884   2.730   3.773   3.347  0.2617 -0.7692 -0.7586
  216MOL    H5534885   2.605   3.676   3.435 -0.2154  1.1549  1.0991
  216MOL    H5634886   2.439   3.760   3.310 -0.3504 -0.1500 -0.1086
  216MOL    H5734887   2.539   3.826   3.182  0.5186  0.8276  0.3977
  216MOL    C5834888   2.404   3.991   3.432 -0.1707  0.3990 -0.6687
  216MOL    C5934889   2.413   4.064   3.566  0.2107 -0.0801 -0.2684
  216MOL    C6034890   2.368   4.210   3.547 -0.1410 -0.3844  0.4724
  216MOL    O6134891   2.262   4.255   3.594 -0.6341  0.3623  0.7103
  216MOL    H6234892   2.326   3.919   3.453 -0.3818  0.7598 -0.2186
  216MOL    H6334893   2.373   4.050   3.346  0.2905 -0.6036 -1.5353
  216MOL    H6434894   2.517   4.054   3.597  0.5569  2.1724 -0.5995
  216MOL    H6534895   2.353   4.004   3.634  1.2550 -2.4671 -1.3945
  216MOL    C6634896   2.475   4.305   3.480  0.1920 -0.0669 -0.3446
  216MOL    C6734897   2.581   4.332   3.579  0.0493  0.0661  0.0021
  216MOL    C6834898   2.644   4.464   3.567 -0.4699 -0.5720  0.1421
  216MOL    O6934899   2.578   4.567   3.561 -0.4073 -0.3754 -0.6214
  216MOL    H7034900   2.424   4.394   3.444  1.2344  0.1394 -1.3400
  216MOL    H7134901   2.505   4.256   3.388  2.5002 -1.4726  1.1005
  216MOL    H7234902   2.663   4.261   3.566  0.2388  0.4528 -0.9420
  216MOL    H7334903   2.549   4.327   3.683  1.9111  3.1782  0.7882
  216MOL    C7434904   2.795   4.473   3.576 -0.1260  0.4910 -0.5251
  216MOL    C7534905   2.864   4.586   3.490 -0.0034  0.6650  0.8208
  216MOL    C7634906   2.975   4.534   3.394  0.1721  0.0548  0.4110
  216MOL    O7734907   3.002   4.412   3.381  0.1531 -0.6428  0.0604
  216MOL    H7834908   2.842   4.377   3.554 -2.0388 -0.5871  0.0406
  216MOL    H7934909   2.803   4.494   3.683 -0.7093  0.7363 -0.5259
  216MOL    H8034910   2.917   4.654   3.556 -0.4933  0.5410  1.3419
  216MOL    H8134911   2.785   4.646   3.444 -0.1629 -0.9574 -1.0985
  216MOL    C8234912   3.034   4.633   3.288 -0.3266 -0.1542 -0.3795
  216MOL    C8334913   3.168   4.590   3.228 -0.1955  0.2378  0.0076
  216MOL    C8434914   3.279   4.683   3.258  1.0813 -0.4905  0.1681
  216MOL    O8534915   3.276   4.773   3.340 -0.6648 -0.3120 -0.1522
  216MOL    H8634916   3.042   4.725   3.347 -0.5791 -1.3230  1.5150
  216MOL    H8734917   2.965   4.636   3.204  0.9854 -1.7606 -1.5404
  216MOL    H8834918   3.135   4.595   3.124 -0.8832 -1.7084  0.1054
  216MOL    H8934919   3.194   4.488   3.254 -1.2150 -0.1234 -0.3669
  216MOL    C9034920   3.411   4.659   3.178 -0.8042 -0.2943  0.1858
  216MOL    C9134921   3.501   4.781   3.183 -0.2440  0.3911  0.1069
  216MOL    C9234922   3.605   4.770   3.299  0.5392  0.1353  0.7204
  216MOL    O9334923   3.606   4.666   3.370 -0.1589 -0.0486  0.0574
  216MOL    H9434924   3.380   4.648   3.075  0.3775  1.9393 -0.4390
  216MOL    H9534925   3.460   4.568   3.211 -1.6875 -0.9234 -0.2318
  216MOL    H9634926   3.453   4.876   3.204  0.4142  0.4974  1.1599
  216MOL    H9734927   3.558   4.789   3.090 -0.6319  0.3695 -0.1342
  216MOL    C9834928   3.671   4.897   3.340  1.2050 -0.1070 -0.7828
  216MOL    C9934929   3.734   4.884   3.478 -0.5908 -0.0536 -0.3127
  216MOL   C10034930   3.802   5.015   3.519  0.2868 -0.3177 -0.4787
  216MOL   O10134931   3.866   5.085   3.439 -0.7964  1.0009 -0.2806
  216MOL   H10234932   3.589   4.968   3.345  0.9529 -0.3885 -0.9378
  216MOL   H10334933   3.737   4.935   3.262  1.8597 -0.3824 -0.3701
  216MOL   H10434934   3.816   4.813   3.464 -0.6078 -0.2577  0.6446
  216MOL   H10534935   3.666   4.850   3.555  0.0951  1.8008  1.1523
  216MOL   C10634936   3.783   5.059   3.666 -0.1869  0.1129 -0.3536
  216MOL   C10734937   3.796   5.212   3.693 -0.4797 -0.6775 -0.3046
  216MOL   C10834938   3.872   5.240   3.824  0.7449 -0.3296  0.2211
  216MOL   O10934939   3.818   5.299   3.916  0.2234  0.2989 -0.1295
  216MOL   H11034940   3.838   5.004   3.742 -0.0685  0.7899  0.0622
  216MOL   H11134941   3.678   5.037   3.688  0.3859 -0.4398  2.0095
  216MOL   H11234942   3.698   5.258   3.707 -0.6415 -1.3774  0.9276
  216MOL   H11334943   3.833   5.267   3.606 -0.0034 -1.1052 -0.3781
  216MOL   C11434944   4.014   5.182   3.839  0.0222 -0.0167  0.0925
  216MOL   C11534945   4.092   5.258   3.952  0.0112  0.0065  0.8179
  216MOL   C11634946   4.218   5.320   3.894  0.4301 -0.2923  0.1107
  216MOL   O11734947   4.205   5.412   3.807  0.1165  0.2668  0.0779
  216MOL   H11834948   4.056   5.193   3.739 -1.4384  1.0333 -0.4152
  216MOL   H11934949   4.008   5.077   3.866  0.5209 -0.3291 -0.9904
  216MOL   H12034950   4.113   5.186   4.031  1.3358 -1.0285 -0.4626
  216MOL   H12134951   4.038   5.347   3.985 -2.5901 -1.3081  0.2688
  216MOL   C12234952   4.361   5.281   3.941  0.2030 -0.9882 -0.5384
  216MOL   C12334953   4.427   5.155   3.865 -0.0808 -0.0495 -0.9020
  216MOL   C12434954   4.367   5.013   3.899 -0.3315  0.1801 -0.0267
  216MOL   O12534955   4.331   4.984   4.012 -0.1656 -0.0163  0.0272
  216MOL   H12634956   4.335   5.269   4.046 -2.1324  1.4445 -0.7903
  216MOL   H12734957   4.425   5.367   3.921 -0.0191 -0.7130 -0.0886
  216MOL   H12834958   4.529   5.147   3.903 -0.7715 -1.8280  0.6829
  216MOL   H12934959   4.451   5.173   3.760  1.5867 -0.6118 -0.6417
  216MOL   C13034960   4.338   4.922   3.774 -0.7551 -0.6318  0.4882
  216MOL   C13134961   4.272   4.786   3.814  0.0123 -0.0675  0.0107
  216MOL   C13234962   4.137   4.760   3.769  0.1992  0.1314 -0.6084
  216MOL   O13334963   4.062   4.847   3.714 -0.5111  0.6423 -0.1617
  216MOL   H13434964   4.442   4.912   3.744 -0.1627 -1.0609  2.6026
  216MOL   H13534965   4.284   4.970   3.692 -0.0795 -0.4347  0.1480
  216MOL   H13634966   4.267   4.782   3.922  1.3236 -1.2818  0.0465
  216MOL   H13734967   4.335   4.700   3.788 -0.7637 -0.7735  0.4510
  216MOL   C13834968   4.090   4.616   3.795  0.1554  0.3615 -0.4101
  216MOL   C13934969   3.950   4.568   3.741  0.3179 -0.6185  0.4115
  216MOL   C14034970   3.849   4.533   3.841 -0.4879  0.2350  0.3482
  216MOL   O14134971   3.871   4.503   3.957 -0.4886  0.9987 -0.4057
  216MOL   H14234972   4.094   4.605   3.903  0.0525  1.5703 -0.2848
  216MOL   H14334973   4.163   4.546   3.753  0.2313  0.1034  0.1559
  216MOL   H14434974   3.975   4.486   3.673  2.5618 -0.3702  0.8954
  216MOL   H14534975   3.910   4.649   3.680  1.4484 -0.0504  0.4114
  216MOL   C14634976   3.708   4.547   3.791  0.1061 -0.5014 -0.4416
  216MOL   C14734977   3.600   4.596   3.899 -0.1378 -0.3610  0.0776
  216MOL   C14834978   3.619   4.748   3.917 -0.2696 -0.4786  0.0347
  216MOL   O14934979   3.597   4.822   3.823  0.0993  0.6262 -0.4729
  216MOL   H15034980   3.671   4.448   3.766  0.5606 -0.8869  0.3813
  216MOL   H15134981   3.719   4.608   3.701  0.4017 -0.3622 -0.3115
  216MOL   H15234982   3.606   4.561   4.002 -2.1672  0.0944  0.3626
  216MOL   H15334983   3.498   4.569   3.873 -0.2062 -0.8607  0.8585
  216MOL   C15434984   3.674   4.791   4.053 -0.0440 -0.4521 -0.0990
  216MOL   C15534985   3.712   4.936   4.061  0.2792 -0.1409  0.3158
  216MOL   C15634986   3.861   4.961   4.066 -0.3440 -0.1702  0.4409
  216MOL   O15734987   3.937   4.867   4.043  1.0933 -0.4702 -0.1035
  216MOL   H15834988   3.757   4.721   4.059  1.1652  0.6447 -3.0598
  216MOL   H15934989   3.601   4.766   4.130  0.1558 -0.1383  0.1904
  216MOL   H16034990   3.655   4.993   4.134  1.1730  1.5089 -0.2529
  216MOL   H16134991   3.680   4.984   3.969  4.4267 -0.3956 -1.3686
  216MOL   H16234992   3.894   5.063   4.085 -1.1637  0.3750 -0.9867
  217MOL     C134993   2.566   0.919   3.707  0.2107  0.1224  0.3902
  217MOL     C234994   2.483   1.005   3.613  0.1140  0.8709 -0.2392
  217MOL     C334995   2.564   1.119   3.542 -0.5387  0.9957 -0.1076
  217MOL     O434996   2.679   1.105   3.516 -0.3965  0.4576  0.7563
  217MOL     H534997   2.505   0.832   3.730 -2.1739  1.8615  0.7684
  217MOL     H634998   2.656   0.874   3.663 -0.0507 -0.6007  0.5814
  217MOL     H734999   2.388   1.039   3.656  0.6387  1.9456  0.1037
  217MOL     H835000   2.457   0.948   3.524  0.0426  1.5020 -0.6286
  217MOL     H935001   2.581   0.965   3.805  0.2935 -0.8078  0.8186
  217MOL    C1035002   2.489   1.248   3.513 -0.2062  0.0124  0.4878
  217MOL    C1135003   2.571   1.344   3.420  0.4737 -0.4327 -0.5808
  217MOL    C1235004   2.681   1.421   3.491 -0.2212 -1.0726  0.1764
  217MOL    O1335005   2.714   1.393   3.608 -0.2019 -0.1596  0.4590
  217MOL    H1435006   2.456   1.294   3.606 -1.1164 -0.1428  0.2446
  217MOL    H1535007   2.406   1.234   3.444 -0.5189 -3.4299  1.4516
  217MOL    H1635008   2.511   1.414   3.360 -2.3555 -1.8863  0.4470
  217MOL    H1735009   2.638   1.303   3.345  3.2672 -0.1700  1.6953
  217MOL    C1835010   2.755   1.525   3.407  0.4555 -0.5382 -0.1156
  217MOL    C1935011   2.724   1.662   3.471  0.1294 -0.3029  0.1592
  217MOL    C2035012   2.822   1.778   3.456  0.5443  0.1662  0.0248
  217MOL    O2135013   2.923   1.775   3.384 -0.4057  0.1908  0.1942
  217MOL    H2235014   2.720   1.531   3.304  0.8370  0.0833 -0.2187
  217MOL    H2335015   2.862   1.506   3.411  1.1011  2.7902  0.6641
  217MOL    H2435016   2.713   1.645   3.578  1.1976  0.2431  0.3579
  217MOL    H2535017   2.632   1.708   3.433  0.2939 -1.1597 -1.2785
  217MOL    C2635018   2.778   1.912   3.525 -0.4897  0.1279  0.3169
  217MOL    C2735019   2.892   2.008   3.553  0.4384  0.6144  0.0728
  217MOL    C2835020   2.856   2.153   3.567 -0.3590 -0.6350  0.5485
  217MOL    O2935021   2.737   2.179   3.590  0.3786 -0.2313  0.3538
  217MOL    H3035022   2.714   1.897   3.612 -1.1029  0.7486 -0.0194
  217MOL    H3135023   2.713   1.958   3.450  0.2969  1.5720  0.4893
  217MOL    H3235024   2.968   1.994   3.476  0.6739 -2.5555  0.8130
  217MOL    H3335025   2.949   1.983   3.642  1.1377 -1.9215 -1.0301
  217MOL    C3435026   2.965   2.262   3.573 -0.6172  0.1419  0.0736
  217MOL    C3535027   2.924   2.400   3.631 -0.3244  0.3200  1.0725
  217MOL    C3635028   2.893   2.510   3.527 -0.1213 -0.1048 -0.5184
  217MOL    O3735029   2.890   2.492   3.405 -0.1691  0.0481  0.0778
  217MOL    H3835030   3.019   2.284   3.481 -2.0006 -0.6709 -0.9434
  217MOL    H3935031   3.043   2.215   3.633 -0.5905 -0.1482 -0.1879
  217MOL    H4035032   3.004   2.439   3.694 -0.1766  2.4463 -0.3780
  217MOL    H4135033   2.843   2.398   3.705 -0.8496 -0.8462  0.4727
  217MOL    C4235034   2.841   2.644   3.583 -0.0830 -0.2735 -0.3484
  217MOL    C4335035   2.689   2.639   3.595  0.3908  0.6344  0.5324
  217MOL    C4435036   2.639   2.773   3.641  0.6499  0.3300  0.3884
  217MOL    O4535037   2.687   2.830   3.739  0.7381  0.5009  0.1580
  217MOL    H4635038   2.874   2.718   3.510  1.2518 -0.6371 -0.1124
  217MOL    H4735039   2.884   2.667   3.680 -1.0491  0.4217 -0.0734
  217MOL    H4835040   2.664   2.562   3.668  0.9721  0.5913  0.6890
  217MOL    H4935041   2.650   2.624   3.495 -0.5326 -0.7759  1.0881
  217MOL    C5035042   2.531   2.844   3.555 -0.5124  0.2587  0.0374
  217MOL    C5135043   2.402   2.765   3.557 -0.0059  0.0054  0.3186
  217MOL    C5235044   2.285   2.864   3.553 -0.2034  0.1045 -0.2755
  217MOL    O5335045   2.269   2.952   3.639 -0.1360  0.3892  0.5837
  217MOL    H5435046   2.585   2.853   3.460 -0.4920  2.1770  0.2197
  217MOL    H5535047   2.524   2.947   3.589 -0.3202  0.1805  0.3131
  217MOL    H5635048   2.393   2.711   3.652 -0.6014  3.7907  2.5300
  217MOL    H5735049   2.397   2.692   3.476 -0.5156 -1.4697  1.6458
  217MOL    C5835050   2.191   2.848   3.436 -0.5518 -0.2702 -0.0633
  217MOL    C5935051   2.045   2.848   3.477  0.0251 -0.5191  0.3746
  217MOL    C6035052   1.962   2.951   3.406 -0.4021 -0.4654  0.1956
  217MOL    O6135053   1.992   2.991   3.294 -0.3489 -0.3661 -0.1624
  217MOL    H6235054   2.226   2.752   3.398  1.0988 -0.3001  1.5072
  217MOL    H6335055   2.214   2.923   3.360  1.8028  0.8897  1.7282
  217MOL    H6435056   2.028   2.869   3.583  0.3164 -1.7602  0.6770
  217MOL    H6535057   1.994   2.760   3.439 -1.9302 -0.3643  2.5406
  217MOL    C6635058   1.843   2.998   3.474 -0.0890 -0.2513 -0.0568
  217MOL    C6735059   1.866   3.111   3.573  0.1485 -0.8380  0.3794
  217MOL    C6835060   1.778   3.231   3.550 -0.6995 -0.0656  0.0108
  217MOL    O6935061   1.655   3.229   3.570 -0.0987  0.4167  0.1971
  217MOL    H7035062   1.788   2.916   3.522 -1.3264  0.5491 -0.0858
  217MOL    H7135063   1.786   3.033   3.388  0.4263 -0.0918 -0.3333
  217MOL    H7235064   1.968   3.148   3.565  0.7963 -2.7186 -0.3550
  217MOL    H7335065   1.848   3.075   3.674  0.2519  1.1786  1.1520
  217MOL    C7435066   1.841   3.347   3.481 -0.2197 -0.4227 -0.2437
  217MOL    C7535067   1.873   3.327   3.333 -0.1779  0.0054  0.5631
  217MOL    C7635068   1.835   3.437   3.234 -0.1412 -0.3443  0.4794
  217MOL    O7735069   1.755   3.525   3.277  0.0876  0.0779  0.0420
  217MOL    H7835070   1.923   3.377   3.545  0.7448 -1.3368 -1.0352
  217MOL    H7935071   1.778   3.435   3.497  1.6782  0.8008  0.6136
  217MOL    H8035072   1.836   3.233   3.292 -0.8143  0.3040  0.4368
  217MOL    H8135073   1.980   3.312   3.323 -0.1383 -0.1381  1.1819
  217MOL    C8235074   1.890   3.439   3.094 -0.4513 -0.3916  0.1528
  217MOL    C8335075   1.981   3.555   3.074 -0.2032  0.2292 -0.4330
  217MOL    C8435076   2.123   3.512   3.038 -1.0995 -0.1670 -0.3486
  217MOL    O8535077   2.152   3.396   3.037 -0.8229  0.2578  0.2625
  217MOL    H8635078   1.805   3.458   3.029 -1.0680  0.4424  1.2083
  217MOL    H8735079   1.932   3.340   3.074 -1.2248 -0.7530  0.3031
  217MOL    H8835080   1.985   3.632   3.151  2.7918  2.0142 -2.3059
  217MOL    H8935081   1.944   3.625   2.999 -0.8425  1.0972  0.6865
  217MOL    C9035082   2.229   3.625   3.012  0.7419  0.3361  0.3272
  217MOL    C9135083   2.372   3.571   3.034 -0.3151 -0.4999 -0.1359
  217MOL    C9235084   2.435   3.514   2.906  0.3066 -0.0118 -0.3131
  217MOL    O9335085   2.365   3.512   2.802  0.3217 -0.0167  0.2706
  217MOL    H9435086   2.202   3.713   3.069 -2.3021  0.3780 -1.1132
  217MOL    H9535087   2.212   3.656   2.909  0.3795  1.2305  0.6536
  217MOL    H9635088   2.375   3.499   3.116  0.6125 -1.7767 -1.2757
  217MOL    H9735089   2.432   3.658   3.062  2.0291 -1.2699 -2.6207
  217MOL    C9835090   2.578   3.466   2.910  0.0784 -0.4175 -0.3283
  217MOL    C9935091   2.610   3.385   2.778  0.1196  0.3714  0.1842
  217MOL   C10035092   2.683   3.253   2.802  0.1935 -0.3191 -0.3649
  217MOL   O10135093   2.687   3.202   2.917 -0.3517 -0.5845  0.2659
  217MOL   H10235094   2.592   3.418   3.007  3.1704  0.2540 -0.4047
  217MOL   H10335095   2.644   3.552   2.903 -0.2018 -0.1953 -0.2202
  217MOL   H10435096   2.664   3.446   2.706  0.5163  0.8950  0.9147
  217MOL   H10535097   2.519   3.356   2.725  0.5571 -0.4766 -0.1134
  217MOL   C10635098   2.772   3.194   2.685 -0.5177 -0.5472 -0.0615
  217MOL   C10735099   2.729   3.049   2.643 -0.5316  0.4577 -0.3841
  217MOL   C10835100   2.623   3.044   2.531 -0.1073  0.2754 -0.0964
  217MOL   O10935101   2.610   3.137   2.457  0.3927  0.0201 -0.0648
  217MOL   H11035102   2.875   3.200   2.720 -0.5433  0.7536 -0.1841
  217MOL   H11135103   2.773   3.262   2.600 -0.5011 -0.0620  0.3230
  217MOL   H11235104   2.682   2.998   2.727  2.4706  0.4607  1.3559
  217MOL   H11335105   2.822   2.997   2.622 -0.3572  0.8704 -0.6386
  217MOL   C11435106   2.523   2.924   2.522 -0.5687 -0.2504 -0.3264
  217MOL   C11535107   2.450   2.891   2.654 -1.0666  0.0010  0.7059
  217MOL   C11635108   2.499   2.758   2.711 -0.0626 -0.0257  0.1648
  217MOL   O11735109   2.601   2.764   2.779 -0.1282 -0.2532 -0.3030
  217MOL   H11835110   2.573   2.835   2.485 -1.6331 -1.4033  0.9800
  217MOL   H11935111   2.458   2.938   2.436 -0.3297 -0.3222 -0.5176
  217MOL   H12035112   2.344   2.880   2.633 -0.6479  0.3186 -1.6107
  217MOL   H12135113   2.461   2.966   2.734 -2.6955 -1.3068  2.1978
  217MOL   C12235114   2.410   2.635   2.693  0.2352 -0.3008  0.4278
  217MOL   C12335115   2.493   2.510   2.736 -0.4377 -1.1331  0.2658
  217MOL   C12435116   2.413   2.423   2.827  0.8099  0.0998  0.2241
  217MOL   O12535117   2.322   2.450   2.904  0.0475 -0.8848  0.3092
  217MOL   H12635118   2.340   2.628   2.610  0.4103  2.6211 -0.0439
  217MOL   H12735119   2.337   2.657   2.772  0.2494  0.1138  0.3256
  217MOL   H12835120   2.574   2.550   2.797 -0.4570  1.8854 -1.5812
  217MOL   H12935121   2.541   2.451   2.659  1.9747 -0.8925  1.5215
  217MOL   C13035122   2.447   2.275   2.825  0.3744  0.4899 -0.3159
  217MOL   C13135123   2.328   2.181   2.832  0.0675  0.2149  0.2090
  217MOL   C13235124   2.366   2.048   2.769  0.7256  0.3564 -0.1079
  217MOL   O13335125   2.447   1.970   2.818  0.1918  0.8031 -0.1600
  217MOL   H13435126   2.529   2.246   2.892  2.5167  1.2022 -2.5597
  217MOL   H13535127   2.488   2.254   2.726 -0.1064 -1.9717 -0.0421
  217MOL   H13635128   2.242   2.225   2.780  0.9707 -0.8593 -2.3017
  217MOL   H13735129   2.312   2.182   2.939  2.6311  2.4185  0.6165
  217MOL   C13835130   2.286   2.003   2.645 -0.1610  0.1116 -0.0018
  217MOL   C13935131   2.321   1.856   2.614  0.5697 -0.7628  0.2901
  217MOL   C14035132   2.270   1.824   2.469  0.4693  0.0269 -0.5446
  217MOL   O14135133   2.178   1.749   2.449 -0.0560  0.0254  0.5419
  217MOL   H14235134   2.319   2.074   2.569 -0.7917 -0.0054 -0.3849
  217MOL   H14335135   2.179   2.019   2.656 -0.1702  0.1064 -0.0880
  217MOL   H14435136   2.278   1.792   2.691  1.2110 -2.2634 -0.5529
  217MOL   H14535137   2.430   1.855   2.606  0.5573 -0.5533  0.0916
  217MOL   C14635138   2.338   1.895   2.349  0.5035 -0.2770  0.2098
  217MOL   C14735139   2.295   1.845   2.210  0.9300  0.2057 -0.8763
  217MOL   C14835140   2.203   1.945   2.145  0.5054  0.2798 -0.3028
  217MOL   O14935141   2.236   2.058   2.105 -0.0826  0.0832 -0.1707
  217MOL   H15035142   2.445   1.901   2.368  0.5054 -2.9460  1.2653
  217MOL   H15135143   2.309   2.000   2.357 -2.2835 -0.8892 -1.2779
  217MOL   H15235144   2.233   1.756   2.212 -2.1413  2.2934  1.2800
  217MOL   H15335145   2.377   1.829   2.140  1.6499 -3.2380  0.6374
  217MOL   C15435146   2.056   1.913   2.138  0.0068  0.4406  0.1184
  217MOL   C15535147   1.970   2.025   2.095  0.7797 -0.2806  0.4221
  217MOL   C15635148   1.915   2.100   2.210  0.0703 -0.0251 -0.2444
  217MOL   O15735149   1.962   2.101   2.329 -0.1212  0.9859  0.3194
  217MOL   H15835150   2.024   1.886   2.239 -1.6310  1.0249 -0.2323
  217MOL   H15935151   2.044   1.832   2.066 -0.1872  0.7160 -0.1575
  217MOL   H16035152   1.883   1.985   2.043 -1.2786  1.3636  2.4884
  217MOL   H16135153   1.991   2.102   2.021 -0.0112 -0.3898  0.0807
  217MOL   H16235154   1.822   2.155   2.196 -0.8144 -1.2873  0.6590
  218MOL     C135155   1.915   0.538   3.778  0.0509 -0.7825  0.4178
  218MOL     C235156   1.789   0.458   3.824  0.4231  0.5755 -0.0696
  218MOL     C335157   1.800   0.366   3.949  0.6343  0.0457  0.0757
  218MOL     O435158   1.893   0.361   4.027  0.9863  0.4980  0.1240
  218MOL     H535159   1.904   0.579   3.678 -1.0124  0.1202  0.8992
  218MOL     H635160   1.935   0.618   3.848 -3.3766 -0.6317  1.3011
  218MOL     H735161   1.766   0.402   3.734  3.6530 -0.5026 -0.2861
  218MOL     H835162   1.697   0.514   3.839 -1.3900 -2.0982 -0.8720
  218MOL     H935163   2.009   0.482   3.782 -0.1100 -0.9560  1.8816
  218MOL    C1035164   1.678   0.265   3.966  0.5953 -0.4901  0.0336
  218MOL    C1135165   1.745   0.122   4.003  0.0055  0.5127  0.2703
  218MOL    C1235166   1.723   0.062   4.147 -0.3956 -0.5995 -0.1666
  218MOL    O1335167   1.670   0.131   4.236 -0.4054  0.5757 -0.0182
  218MOL    H1435168   1.610   0.248   3.883 -2.3222  0.8672  2.0500
  218MOL    H1535169   1.618   0.297   4.051  0.5752  0.6105 -0.3923
  218MOL    H1635170   1.853   0.117   3.986  0.1042  0.0509  1.0239
  218MOL    H1735171   1.702   0.053   3.930  0.4717 -1.6748  2.0033
  218MOL    C1835172   1.755   7.775   4.168  0.1178  0.6906  0.2755
  218MOL    C1935173   1.636   7.685   4.223 -0.5697 -0.2646 -0.1972
  218MOL    C2035174   1.664   7.627   4.365 -0.6508  0.1633 -0.9168
  218MOL    O2135175   1.777   7.611   4.407 -0.6062  0.6672  0.2991
  218MOL    H2235176   1.826   7.767   4.251  0.4330  2.5909  0.2001
  218MOL    H2335177   1.797   7.731   4.077  0.0506  1.8808 -0.3370
  218MOL    H2435178   1.600   7.605   4.158  0.7460 -0.3896 -0.7940
  218MOL    H2535179   1.550   7.751   4.235 -1.2357 -0.7044 -2.3573
  218MOL    C2635180   1.541   7.590   4.448  0.1047  0.2839  0.5792
  218MOL    C2735181   1.503   7.695   4.544 -0.1944 -0.2710 -0.5056
  218MOL    C2835182   1.369   7.760   4.509  0.3846 -0.3486  0.0238
  218MOL    O2935183   1.305   7.728   4.410 -0.1232  0.2337 -0.1038
  218MOL    H3035184   1.557   7.501   4.509  1.5498  0.6007  0.6851
  218MOL    H3135185   1.462   7.562   4.379 -0.0715 -1.7879  1.5857
  218MOL    H3235186   1.572   7.780   4.551 -0.0632 -0.3614 -0.6907
  218MOL    H3335187   1.489   7.648   4.641  0.5632 -2.2204 -1.3290
  218MOL    C3435188   1.335   0.023   4.593  0.5971 -0.1754  0.0480
  218MOL    C3535189   1.190   0.071   4.573  0.4520 -0.2453  0.4278
  218MOL    C3635190   1.182   0.218   4.522 -1.0950 -0.7985 -0.7949
  218MOL    O3735191   1.281   0.286   4.516 -0.2985  0.2403 -0.1200
  218MOL    H3835192   1.408   0.100   4.571  2.4475 -2.7394 -3.1586
  218MOL    H3935193   1.363   0.003   4.697  2.1095 -2.4996 -0.7640
  218MOL    H4035194   1.133   0.061   4.666 -0.6879 -0.1257 -0.2521
  218MOL    H4135195   1.133   0.017   4.498 -0.7990  1.6742 -0.0264
  218MOL    C4235196   1.047   0.278   4.502  0.1283 -0.3803 -0.0847
  218MOL    C4335197   1.040   0.428   4.468 -0.1873  0.1454  0.0356
  218MOL    C4435198   0.909   0.495   4.513 -0.0166  0.5307 -0.3840
  218MOL    O4535199   0.808   0.430   4.547 -0.2955  0.4582 -0.1925
  218MOL    H4635200   0.982   0.269   4.590 -0.2117 -0.1816 -0.3117
  218MOL    H4735201   1.001   0.222   4.420  1.0456 -3.2533  1.3065
  218MOL    H4835202   1.065   0.433   4.361 -0.6386 -1.4610 -0.1651
  218MOL    H4935203   1.127   0.476   4.514 -1.4848  1.1664  1.4405
  218MOL    C5035204   0.910   0.650   4.510 -0.2509 -0.3190 -0.2448
  218MOL    C5135205   0.818   0.709   4.613  0.4511  0.0061 -0.2350
  218MOL    C5235206   0.899   0.813   4.696  0.6940 -0.0316 -0.7815
  218MOL    O5335207   0.951   0.911   4.651 -0.1060  0.1287  0.3240
  218MOL    H5435208   0.880   0.690   4.413  2.0451 -1.5095 -1.4760
  218MOL    H5535209   1.010   0.686   4.532 -0.3285  1.2877 -2.3151
  218MOL    H5635210   0.764   0.635   4.673 -1.0305 -1.4044 -3.2186
  218MOL    H5735211   0.737   0.760   4.563 -0.0261  0.8073  1.3157
  218MOL    C5835212   0.883   0.800   4.850  0.0212  0.3403  0.0456
  218MOL    C5935213   0.886   0.649   4.907  0.4115  0.0155 -0.2686
  218MOL    C6035214   0.748   0.590   4.950 -0.0592 -0.3416  0.3160
  218MOL    O6135215   0.645   0.610   4.889 -0.7198 -0.5130 -0.0279
  218MOL    H6235216   0.780   0.829   4.869 -0.4699 -1.0402 -0.4834
  218MOL    H6335217   0.924   0.877   4.915  0.8870  2.0178 -2.4284
  218MOL    H6435218   0.949   0.657   4.996  0.1410  1.0129 -0.1569
  218MOL    H6535219   0.941   0.576   4.849  2.5189  2.0920 -0.9921
  218MOL    C6635220   0.747   0.509   5.084  0.6773  0.6915 -0.1112
  218MOL    C6735221   0.603   0.510   5.136 -0.0680  0.0956 -0.8503
  218MOL    C6835222   0.591   0.475   5.283 -0.0431 -0.2097 -0.0415
  218MOL    O6935223   0.683   0.440   5.351 -0.5186 -0.4516  0.7450
  218MOL    H7035224   0.810   0.547   5.165  0.0639  1.6444 -0.0686
  218MOL    H7135225   0.774   0.404   5.075  0.6177  0.5756  0.9936
  218MOL    H7235226   0.551   0.422   5.097  0.3493 -1.4970  2.0586
  218MOL    H7335227   0.542   0.596   5.107 -0.8516  0.1665  0.9276
  218MOL    C7435228   0.448   0.482   5.332  0.1299  0.7190 -0.0517
  218MOL    C7535229   0.412   0.370   5.438 -0.3566  0.5860  0.4598
  218MOL    C7635230   0.384   0.235   5.374  0.5607  0.3881 -0.2180
  218MOL    O7735231   0.403   0.207   5.255 -0.2358  0.1142 -0.2212
  218MOL    H7835232   0.377   0.472   5.250 -1.0520 -0.2254  1.0511
  218MOL    H7935233   0.423   0.581   5.371 -2.6289 -0.4434  1.2734
  218MOL    H8035234   0.325   0.413   5.487 -0.5264  1.5737 -0.6824
  218MOL    H8135235   0.497   0.366   5.506 -1.2924  2.6968  1.7727
  218MOL    C8235236   0.317   0.137   5.472 -0.4255  0.9161 -0.0132
  218MOL    C8335237   0.420   0.061   5.560  0.1844  0.1681  0.2352
  218MOL    C8435238   0.443   0.107   5.700  0.1624  0.0548  0.3936
  218MOL    O8535239   0.366   0.195   5.745 -0.0484 -0.7631  0.8625
  218MOL    H8635240   0.255   0.067   5.417 -2.3553  1.3578  1.5306
  218MOL    H8735241   0.238   0.191   5.526 -1.4677  0.4348 -1.0366
  218MOL    H8835242   0.513   0.042   5.508 -0.6860 -0.0756 -1.2610
  218MOL    H8935243   0.368   7.825   5.575  1.2245 -0.5462 -0.6669
  218MOL    C9035244   0.556   0.047   5.783 -0.2908 -0.0876  0.0364
  218MOL    C9135245   0.552   0.087   5.930  0.1890  0.1571  0.2012
  218MOL    C9235246   0.632   0.212   5.956 -0.2297 -0.7430 -0.3179
  218MOL    O9335247   0.748   0.189   5.974 -0.1006  0.4347 -0.5134
  218MOL    H9435248   0.651   0.083   5.743  1.5205 -0.7562  3.5419
  218MOL    H9535249   0.553   7.799   5.764  0.5518  0.1808 -1.7342
  218MOL    H9635250   0.589   0.004   5.990  1.3667 -2.0998 -3.4786
  218MOL    H9735251   0.449   0.105   5.960  0.1665  1.3271 -0.5162
  218MOL    C9835252   0.565   0.350   5.977  0.3914 -0.2868  0.5244
  218MOL    C9935253   0.653   0.469   5.944 -0.6064  0.3794  0.4605
  218MOL   C10035254   0.639   0.494   5.794 -0.3905  0.0234  0.0174
  218MOL   O10135255   0.566   0.433   5.721  0.0990 -0.2110 -0.6381
  218MOL   H10235256   0.534   0.358   6.081  1.0416  2.1268  0.5500
  218MOL   H10335257   0.465   0.348   5.932 -0.3385 -0.2238  2.1182
  218MOL   H10435258   0.756   0.443   5.968 -0.2204 -0.2109 -1.6959
  218MOL   H10535259   0.617   0.557   5.997  0.0994  0.2016  1.2505
  218MOL   C10635260   0.716   0.611   5.742  0.0287 -0.5028 -0.4525
  218MOL   C10735261   0.665   0.669   5.606  0.0109 -0.0998 -0.4414
  218MOL   C10835262   0.618   0.816   5.600  0.2775 -0.2259  0.7458
  218MOL   O10935263   0.644   0.899   5.690 -0.9387 -0.2621  0.4071
  218MOL   H11035264   0.823   0.591   5.745  0.1631  0.3699  0.6843
  218MOL   H11135265   0.702   0.685   5.821 -0.4803 -0.8542 -0.2123
  218MOL   H11235266   0.583   0.608   5.568 -0.1419  0.3901 -0.9045
  218MOL   H11335267   0.741   0.663   5.528 -0.2885  0.3805 -0.7662
  218MOL   C11435268   0.521   0.854   5.489  0.9794  0.2414 -0.5361
  218MOL   C11535269   0.480   1.005   5.484  0.1112  0.0273  0.0979
  218MOL   C11635270   0.354   1.041   5.569  0.5320 -0.6107 -0.2186
  218MOL   O11735271   0.299   0.971   5.656 -0.4068  0.4544  0.5566
  218MOL   H11835272   0.440   0.781   5.490  1.3668 -0.1885  0.3541
  218MOL   H11935273   0.571   0.829   5.396 -0.9699  1.1204 -1.8551
  218MOL   H12035274   0.480   1.031   5.378 -0.1166 -0.3886 -0.0049
  218MOL   H12135275   0.559   1.071   5.521 -0.2650  0.5983 -0.0999
  218MOL   C12235276   0.273   1.174   5.542 -0.0660  0.3930  0.2185
  218MOL   C12335277   0.194   1.232   5.653 -0.2678 -0.2131 -0.3937
  218MOL   C12435278   0.266   1.331   5.733  0.2398 -0.5257  0.1696
  218MOL   O12535279   0.281   1.448   5.693  0.0282  0.5033 -0.1456
  218MOL   H12635280   0.200   1.134   5.472 -0.5474 -0.2429  1.0728
  218MOL   H12735281   0.343   1.239   5.490  0.2297  0.4350  0.6680
  218MOL   H12835282   0.159   1.157   5.724 -2.2357  1.3504  0.3237
  218MOL   H12935283   0.109   1.287   5.613  1.2952  2.2597 -0.4368
  218MOL   C13035284   0.308   1.294   5.876 -0.1576  0.2195  0.7502
  218MOL   C13135285   0.469   1.281   5.877 -0.1317  0.2331 -0.6093
  218MOL   C13235286   0.537   1.366   5.980 -0.0844 -0.2250  0.6252
  218MOL   O13335287   0.608   1.451   5.938  0.0404 -0.3769  0.4516
  218MOL   H13435288   0.263   1.197   5.897 -1.5454  0.5233 -0.7829
  218MOL   H13535289   0.278   1.377   5.941 -0.3076  0.8723 -0.1476
  218MOL   H13635290   0.502   1.314   5.779 -0.0341 -0.2231 -0.7334
  218MOL   H13735291   0.506   1.179   5.891  0.1792  0.3475 -0.6151
  218MOL   C13835292   0.496   1.345   6.130 -0.0820  0.3151  0.1497
  218MOL   C13935293   0.591   1.416   6.223 -0.1647  1.2792 -0.3421
  218MOL   C14035294   0.536   1.551   6.261 -0.6926  0.5605 -0.7230
  218MOL   O14135295   0.418   1.583   6.258  0.0089 -0.1160 -0.2814
  218MOL   H14235296   0.498   1.238   6.152  0.5033  0.2725 -0.0936
  218MOL   H14335297   0.393   1.375   6.150  0.2751  0.8308  1.1910
  218MOL   H14435298   0.693   1.432   6.189  0.0937  3.1866  1.2310
  218MOL   H14535299   0.599   1.361   6.316 -0.3253 -1.4885 -1.9120
  218MOL   C14635300   0.638   1.653   6.304 -0.7398  1.0079 -0.0436
  218MOL   C14735301   0.579   1.770   6.388 -0.4291 -1.0334  0.3478
  218MOL   C14835302   0.516   1.866   6.283  0.6182 -0.2131 -0.0736
  218MOL   O14935303   0.593   1.916   6.202 -0.0480 -0.0141 -0.0910
  218MOL   H15035304   0.684   1.704   6.220 -0.2139  1.5440  0.5572
  218MOL   H15135305   0.713   1.596   6.359  0.9173  1.4534 -1.8018
  218MOL   H15235306   0.662   1.810   6.447 -1.5659 -0.7143  1.7430
  218MOL   H15335307   0.502   1.723   6.449 -1.6671 -2.3062 -2.1077
  218MOL   C15435308   0.367   1.895   6.296 -0.0303 -0.0140 -0.2427
  218MOL   C15535309   0.329   1.967   6.162  0.1176  0.0053  0.7656
  218MOL   C15635310   0.176   1.962   6.143  0.3187 -0.2373 -0.6033
  218MOL   O15735311   0.105   1.910   6.232  0.3085  0.3058  0.0889
  218MOL   H15835312   0.328   1.952   6.380 -2.5774  0.1630 -1.4863
  218MOL   H15935313   0.321   1.796   6.303 -3.5334  1.6640  1.7083
  218MOL   H16035314   0.372   1.913   6.078  1.6810  0.9942  0.9196
  218MOL   H16135315   0.364   2.070   6.157 -1.9939  0.6573 -2.0101
  218MOL   H16235316   0.133   2.002   6.052 -0.6527 -0.0637 -0.0795
  219MOL     C135317   7.717   1.199   3.770 -0.4258 -0.1442 -0.2332
  219MOL     C235318   7.772   1.304   3.684 -0.0199  0.6209  0.8269
  219MOL     C335319   7.777   1.283   3.535 -0.3065  0.1395 -0.3906
  219MOL     O435320   7.794   1.172   3.490  0.8657  0.4526 -0.3132
  219MOL     H535321   7.760   1.104   3.740  2.2002  1.6942 -2.5371
  219MOL     H635322   7.744   1.208   3.875 -0.0927 -0.1351 -0.3203
  219MOL     H735323   0.014   1.319   3.721  0.6948  0.4340 -0.9908
  219MOL     H835324   7.724   1.400   3.705  0.0616  1.2948 -1.8393
  219MOL     H935325   7.610   1.178   3.759 -0.7944  1.6673 -0.2756
  219MOL    C1035326   7.738   1.398   3.445  0.2069  0.2002 -0.3465
  219MOL    C1135327   7.798   1.407   3.304 -0.6019 -0.2126  0.4046
  219MOL    C1235328   7.825   1.553   3.266 -0.4900 -0.6866 -0.9385
  219MOL    O1335329   7.737   1.633   3.235 -0.3883  0.1257 -0.2234
  219MOL    H1435330   7.747   1.496   3.493  0.3198  0.1428 -0.2497
  219MOL    H1535331   7.630   1.390   3.447  0.1731  0.8563  1.5771
  219MOL    H1635332   7.733   1.354   3.234 -2.9196  4.7945 -1.4305
  219MOL    H1735333   0.032   1.351   3.287 -1.4308 -1.6659  0.5172
  219MOL    C1835334   0.108   1.598   3.249  0.5723  0.1455  0.8027
  219MOL    C1935335   0.140   1.733   3.187 -0.6063  0.7099 -0.8942
  219MOL    C2035336   0.284   1.748   3.142  0.1298 -0.0874 -0.2548
  219MOL    O2135337   0.374   1.673   3.176  0.0894 -0.3864 -0.2234
  219MOL    H2235338   0.139   1.514   3.186  1.1559  1.8768 -1.2684
  219MOL    H2335339   0.171   1.592   3.338  0.0981 -1.2091  1.0578
  219MOL    H2435340   0.116   1.814   3.256  1.0468  1.0510 -0.7058
  219MOL    H2535341   0.081   1.752   3.098  0.2610 -0.8357 -1.8100
  219MOL    C2635342   0.309   1.864   3.038 -0.0978  0.2875  0.8934
  219MOL    C2735343   0.436   1.946   3.073  0.1662  0.2953 -0.0350
  219MOL    C2835344   0.417   2.100   3.085  0.4814 -0.2787 -0.0393
  219MOL    O2935345   0.312   2.152   3.112 -0.2035  0.1223  0.1534
  219MOL    H3035346   0.218   1.923   3.041  0.7106  1.7143 -1.3297
  219MOL    H3135347   0.299   1.810   2.944 -0.4002  0.8613  0.5898
  219MOL    H3235348   0.523   1.919   3.014  0.2717 -1.2187  0.7991
  219MOL    H3335349   0.460   1.927   3.178 -0.2433 -1.7638 -0.2895
  219MOL    C3435350   0.541   2.189   3.075 -0.6290  0.9050  0.0123
  219MOL    C3535351   0.505   2.337   3.068 -0.3000  0.2544  0.2441
  219MOL    C3635352   0.636   2.413   3.043  0.5225 -0.1406  0.0329
  219MOL    O3735353   0.717   2.396   2.948  0.2708 -0.4028 -0.4647
  219MOL    H3835354   0.585   2.155   2.981 -1.9876 -0.8212 -0.0415
  219MOL    H3935355   0.614   2.165   3.152  0.0064  1.4124 -0.4270
  219MOL    H4035356   0.471   2.364   3.168  0.0043  2.2072 -0.1726
  219MOL    H4135357   0.428   2.363   2.996  0.8874 -1.2693 -1.6365
  219MOL    C4235358   0.663   2.514   3.158  0.0084  0.2521  0.1685
  219MOL    C4335359   0.784   2.605   3.136  0.4173 -0.3190 -0.1717
  219MOL    C4435360   0.779   2.728   3.049  0.5507  0.5202 -0.4740
  219MOL    O4535361   0.688   2.741   2.962  0.3832 -0.0920 -0.2415
  219MOL    H4635362   0.680   2.468   3.256 -1.4310  1.5695  1.0584
  219MOL    H4735363   0.573   2.573   3.175  0.2748  0.7948 -0.3193
  219MOL    H4835364   0.870   2.550   3.099 -1.3326 -2.1355 -1.6130
  219MOL    H4935365   0.803   2.645   3.236  0.5483  0.2957 -0.4396
  219MOL    C5035366   0.872   2.840   3.066 -0.4796  0.5000  0.3144
  219MOL    C5135367   0.959   2.857   2.945 -0.0349 -0.5233 -0.8606
  219MOL    C5235368   1.068   2.954   2.956 -0.0703 -0.7140 -0.2823
  219MOL    O5335369   1.120   2.980   3.062 -0.1417  0.1654 -0.4381
  219MOL    H5435370   0.925   2.810   3.157 -0.8440 -1.6123 -0.1310
  219MOL    H5535371   0.803   2.922   3.083 -1.1375 -0.0747  0.4655
  219MOL    H5635372   0.889   2.885   2.866  1.7976  0.9007 -2.0272
  219MOL    H5735373   1.003   2.762   2.916  1.0727 -0.4914  0.7141
  219MOL    C5835374   1.121   3.020   2.830  0.8179  0.1569  0.1337
  219MOL    C5935375   1.204   3.149   2.859 -0.0132  0.6884 -0.2017
  219MOL    C6035376   1.357   3.125   2.858  0.0994  0.6944 -0.2344
  219MOL    O6135377   1.400   3.014   2.820  0.4269 -0.5964 -0.0616
  219MOL    H6235378   1.034   3.047   2.770 -0.9886  0.1158  2.6592
  219MOL    H6335379   1.178   2.945   2.775  2.8960 -0.4165  2.9483
  219MOL    H6435380   1.186   3.190   2.959 -0.4599 -0.4615  0.1930
  219MOL    H6535381   1.189   3.230   2.788 -3.2041  1.1763  0.8973
  219MOL    C6635382   1.448   3.234   2.903 -0.4634 -0.1470  0.7990
  219MOL    C6735383   1.593   3.192   2.924  0.7645 -0.0932  0.5328
  219MOL    C6835384   1.624   3.107   3.051  0.1108 -0.0023  0.0307
  219MOL    O6935385   1.578   3.150   3.157  0.2664 -0.1091  0.3085
  219MOL    H7035386   1.396   3.269   2.992 -0.6203  0.3881  0.4961
  219MOL    H7135387   1.453   3.307   2.823  2.4412  0.7012  1.6555
  219MOL    H7235388   1.663   3.276   2.918 -0.1053  0.5327 -1.3944
  219MOL    H7335389   1.626   3.129   2.841  0.4282 -0.7096  0.8688
  219MOL    C7435390   1.718   2.990   3.041  0.2269  0.0950  0.6681
  219MOL    C7535391   1.656   2.852   3.011  0.8750 -0.3298 -0.1370
  219MOL    C7635392   1.648   2.817   2.857 -0.0691  0.2304 -0.3031
  219MOL    O7735393   1.683   2.890   2.764  0.1364 -0.3660 -0.0796
  219MOL    H7835394   1.760   2.986   3.142  0.6555  3.3326  0.6961
  219MOL    H7935395   1.789   3.021   2.964  0.7159 -1.7213  0.3684
  219MOL    H8035396   1.557   2.847   3.057 -0.1202  2.0924 -1.8492
  219MOL    H8135397   1.723   2.782   3.060  0.5695 -1.3327 -1.1313
  219MOL    C8235398   1.585   2.682   2.834  0.0062 -0.4332 -0.3516
  219MOL    C8335399   1.445   2.695   2.775  0.1346 -0.6807 -0.1228
  219MOL    C8435400   1.366   2.565   2.772 -0.1899  0.0794  0.0660
  219MOL    O8535401   1.427   2.456   2.803 -0.2458  0.4088 -0.0859
  219MOL    H8635402   1.579   2.611   2.917  2.6244 -0.0726  0.1893
  219MOL    H8735403   1.649   2.621   2.771 -0.2866  1.4298 -2.5059
  219MOL    H8835404   1.443   2.737   2.675  2.5684 -2.4426 -0.9675
  219MOL    H8935405   1.378   2.760   2.832  0.4051  0.9999 -1.6852
  219MOL    C9035406   1.213   2.570   2.751 -0.1634  0.3305  0.1619
  219MOL    C9135407   1.148   2.431   2.795 -0.9430 -0.4897 -0.1820
  219MOL    C9235408   1.094   2.419   2.936  0.4791 -0.9757  0.7063
  219MOL    O9335409   1.111   2.508   3.016  0.1865 -0.4586  0.5312
  219MOL    H9435410   1.197   2.582   2.644 -4.8368 -0.8925  0.6128
  219MOL    H9535411   1.181   2.655   2.810 -0.1801 -0.9402  2.0439
  219MOL    H9635412   1.215   2.349   2.771  0.1330  0.4672 -0.4536
  219MOL    H9735413   1.070   2.405   2.723 -0.4035  0.0488 -0.9718
  219MOL    C9835414   1.035   2.281   2.967 -0.1969 -0.4352  0.4076
  219MOL    C9935415   1.011   2.255   3.115 -0.0662  0.2490  0.0826
  219MOL   C10035416   1.133   2.181   3.174  0.8337  0.0260 -0.4594
  219MOL   O10135417   1.225   2.128   3.114 -0.4362  0.1322 -0.3505
  219MOL   H10235418   1.095   2.200   2.926  0.3482  0.0857  0.1792
  219MOL   H10335419   0.939   2.279   2.915  1.6260  1.2617 -3.2529
  219MOL   H10435420   0.936   2.175   3.114  0.3593 -0.1706  1.1906
  219MOL   H10535421   0.979   2.345   3.167  2.9594  0.8195  1.0249
  219MOL   C10635422   1.122   2.161   3.325 -0.6122  0.1899 -0.6676
  219MOL   C10735423   1.249   2.106   3.389 -0.7799  0.3893 -0.4731
  219MOL   C10835424   1.227   2.007   3.502  0.1628 -0.0933  0.9415
  219MOL   O10935425   1.224   2.051   3.620  0.4599 -0.1003 -0.4013
  219MOL   H11035426   1.038   2.096   3.350 -1.1860  1.4457  0.7692
  219MOL   H11135427   1.085   2.257   3.359 -0.3403 -0.5301  1.8184
  219MOL   H11235428   1.312   2.192   3.415  1.6070 -1.9607  1.7598
  219MOL   H11335429   1.316   2.053   3.321  1.8499 -2.1560  3.8937
  219MOL   C11435430   1.248   1.857   3.472 -0.1556  0.2713 -0.3272
  219MOL   C11535431   1.380   1.797   3.526 -0.0097  0.0751 -0.4647
  219MOL   C11635432   1.350   1.748   3.665  0.7145  0.5330  0.4031
  219MOL   O11735433   1.276   1.650   3.684 -0.2513  0.7713 -0.2919
  219MOL   H11835434   1.261   1.839   3.365  1.8820  0.1335 -0.0879
  219MOL   H11935435   1.161   1.799   3.499  0.1257 -0.3682 -0.7705
  219MOL   H12035436   1.455   1.876   3.538 -0.4434  0.3903  0.1907
  219MOL   H12135437   1.405   1.718   3.455 -0.6442 -0.0830 -0.5183
  219MOL   C12235438   1.392   1.840   3.785 -0.2410 -0.1130  0.2797
  219MOL   C12335439   1.426   1.761   3.911 -0.1787  0.1354 -0.4567
  219MOL   C12435440   1.572   1.739   3.920 -0.4506 -0.8725 -0.5681
  219MOL   O12535441   1.647   1.830   3.957  0.1787 -0.0713  0.0475
  219MOL   H12635442   1.314   1.915   3.800 -1.2579 -0.9954 -0.5383
  219MOL   H12735443   1.476   1.901   3.752  1.2181 -0.9505  2.3306
  219MOL   H12835444   1.374   1.665   3.919 -1.8383  1.2076  2.2106
  219MOL   H12935445   1.399   1.818   4.000  0.2841 -1.3392  0.6647
  219MOL   C13035446   1.639   1.602   3.894 -0.9217  0.0818  0.5328
  219MOL   C13135447   1.793   1.603   3.879 -0.1737 -0.8375  0.6849
  219MOL   C13235448   1.832   1.684   3.760  0.0848  0.1154  0.3484
  219MOL   O13335449   1.752   1.727   3.678  0.5027 -0.2791  0.4301
  219MOL   H13435450   1.590   1.586   3.798 -0.2353  0.0542  0.1849
  219MOL   H13535451   1.602   1.527   3.964 -1.5380 -0.9088 -0.8365
  219MOL   H13635452   1.839   1.504   3.873  0.0860 -0.6822  0.0352
  219MOL   H13735453   1.841   1.642   3.968 -0.3259  0.9661 -0.0151
  219MOL   C13835454   1.980   1.720   3.754 -0.1857  0.2994  0.6700
  219MOL   C13935455   2.011   1.859   3.810 -0.3161  0.4505 -0.8107
  219MOL   C14035456   2.061   1.859   3.956  0.3071 -0.0140  0.3969
  219MOL   O14135457   2.089   1.760   4.018  0.4169  0.2933 -0.0746
  219MOL   H14235458   2.020   1.716   3.652  2.7620  0.9514  1.7398
  219MOL   H14335459   2.043   1.648   3.806  0.1122  0.9571  1.2327
  219MOL   H14435460   1.926   1.927   3.807  0.1595  0.9803 -2.6805
  219MOL   H14535461   2.083   1.914   3.749 -0.0147  0.4958 -0.4219
  219MOL   C14635462   2.069   2.005   4.014  0.0973 -0.0528  0.7347
  219MOL   C14735463   2.174   2.026   4.126 -0.4305 -0.6319  0.4268
  219MOL   C14835464   2.178   2.170   4.171  0.0546  0.6249  0.0891
  219MOL   O14935465   2.242   2.252   4.104 -0.3867  0.5972 -0.3385
  219MOL   H15035466   1.979   2.031   4.070 -0.1971 -0.8578  0.6478
  219MOL   H15135467   2.080   2.086   3.942 -1.2568 -0.5906 -0.1005
  219MOL   H15235468   2.272   1.995   4.089 -0.5216 -2.6933  1.7893
  219MOL   H15335469   2.145   1.966   4.213 -1.1462 -1.3721 -0.3120
  219MOL   C15435470   2.109   2.212   4.295  0.3535 -0.6729  0.0137
  219MOL   C15535471   2.097   2.369   4.310 -0.2985  0.4678  0.0582
  219MOL   C15635472   2.048   2.424   4.445 -0.0844 -0.0508  0.3423
  219MOL   O15735473   2.106   2.393   4.550 -0.3980 -0.4087  0.6994
  219MOL   H15835474   2.153   2.158   4.379 -0.3462 -0.9601  0.2045
  219MOL   H15935475   2.009   2.170   4.287  0.8406 -1.8837  0.3234
  219MOL   H16035476   2.027   2.414   4.240 -1.4779 -0.0534  0.8954
  219MOL   H16135477   2.189   2.419   4.280  0.5837 -1.5619 -0.6950
  219MOL   H16235478   1.963   2.492   4.436 -0.2115 -0.4010 -1.2617
  220MOL     C135479   0.793   3.719   5.878 -0.3194 -0.1726 -0.1579
  220MOL     C235480   0.649   3.772   5.878 -0.5239  0.3582  0.8511
  220MOL     C335481   0.551   3.691   5.959  0.6971 -0.1831  0.4533
  220MOL     O435482   0.475   3.615   5.895 -0.1294 -0.0835 -0.1424
  220MOL     H535483   0.845   3.744   5.786 -1.1854  0.3222 -0.5182
  220MOL     H635484   0.847   3.742   5.970 -0.0198 -0.6870 -0.1979
  220MOL     H735485   0.618   3.771   5.773 -0.9071  0.2402  0.9645
  220MOL     H835486   0.643   3.877   5.902 -2.7998  0.8364 -1.5261
  220MOL     H935487   0.785   3.611   5.862  0.2946 -0.3085  0.3788
  220MOL    C1035488   0.551   3.691   6.108  0.2149  0.2660  0.2150
  220MOL    C1135489   0.557   3.545   6.164 -0.2286  0.0954  0.2175
  220MOL    C1235490   0.474   3.520   6.292 -0.1325  0.2735  0.0574
  220MOL    O1335491   0.462   3.600   6.381  0.5866 -0.2150 -0.6458
  220MOL    H1435492   0.467   3.753   6.138  0.0959  0.2858 -0.1623
  220MOL    H1535493   0.630   3.747   6.159  0.2064  1.0010 -0.5646
  220MOL    H1635494   0.662   3.526   6.187  0.1947  0.7796 -1.1107
  220MOL    H1735495   0.547   3.471   6.085 -0.9409  1.3824 -0.9208
  220MOL    C1835496   0.397   3.384   6.305  0.5488 -0.0315 -0.9725
  220MOL    C1935497   0.323   3.367   6.442  0.1871  1.2269 -0.1480
  220MOL    C2035498   0.188   3.443   6.452  0.1776 -0.6572 -0.2501
  220MOL    O2135499   0.118   3.468   6.358 -0.2600  0.3247  0.6767
  220MOL    H2235500   0.478   3.311   6.304  0.2823 -0.3278 -1.2224
  220MOL    H2335501   0.337   3.356   6.219  0.5215  1.2268 -1.3698
  220MOL    H2435502   0.389   3.390   6.526 -1.1836  1.5931  0.8398
  220MOL    H2535503   0.306   3.265   6.476  0.9845  2.1857  3.3678
  220MOL    C2635504   0.145   3.517   6.587  0.0164  0.3069 -0.1092
  220MOL    C2735505   0.137   3.418   6.705 -0.9346 -0.0914 -0.2604
  220MOL    C2835506   0.068   3.477   6.832  0.5157 -0.8181  0.0090
  220MOL    O2935507   0.021   3.594   6.832  0.1918  0.0226 -0.1277
  220MOL    H3035508   0.043   3.556   6.580  0.2614  0.8836 -0.3806
  220MOL    H3135509   0.191   3.611   6.614  2.9128 -0.7965 -1.0665
  220MOL    H3235510   0.236   3.383   6.734 -1.3518 -0.7369  0.3934
  220MOL    H3335511   0.078   3.329   6.686 -2.5316  0.7673  0.6261
  220MOL    C3435512   0.038   3.383   6.953 -0.0694  0.2105 -0.5312
  220MOL    C3535513   0.072   3.449   7.092 -0.0660 -0.0707  0.0515
  220MOL    C3635514   7.815   3.430   7.186  0.5942 -0.5980  0.0952
  220MOL    O3735515   7.711   3.367   7.149 -0.1085 -0.0483 -0.1933
  220MOL    H3835516   0.086   3.285   6.949  0.8768  0.6910 -0.9964
  220MOL    H3935517   7.790   3.361   6.945 -0.1836  0.9743 -1.2578
  220MOL    H4035518   0.087   3.556   7.086 -0.8679 -0.0459 -1.8510
  220MOL    H4135519   0.160   3.394   7.125 -1.5782 -2.3491  0.3936
  220MOL    C4235520   7.820   3.501   7.322 -0.5690 -0.4661 -0.0712
  220MOL    C4335521   7.708   3.483   7.424  0.2638  0.7344  0.2291
  220MOL    C4435522   7.690   3.600   7.519  0.4064 -0.2430 -0.5484
  220MOL    O4535523   7.752   3.702   7.504 -0.3916 -0.0278 -0.4671
  220MOL    H4635524   7.818   3.608   7.299 -1.8527  0.0619  2.3435
  220MOL    H4735525   0.061   3.485   7.363 -0.3310  2.1615  0.4636
  220MOL    H4835526   7.735   3.401   7.491 -0.6145  0.9638  0.8615
  220MOL    H4935527   7.611   3.466   7.377  1.3526 -3.2276 -0.7597
  220MOL    C5035528   7.598   3.578   7.637  0.0868 -0.7537 -0.9242
  220MOL    C5135529   7.581   3.711   7.722  0.2826  0.4006  0.2911
  220MOL    C5235530   7.502   3.708   7.842 -0.1868 -0.3303  0.2060
  220MOL    O5335531   7.402   3.643   7.845  0.2221 -0.2957  0.9245
  220MOL    H5435532   7.643   3.499   7.697 -3.2756 -2.2023 -0.1824
  220MOL    H5535533   7.502   3.534   7.609 -0.9821  0.5009  0.6759
  220MOL    H5635534   7.532   3.790   7.665 -1.5176 -0.9030 -0.0095
  220MOL    H5735535   7.684   3.741   7.742  1.6228 -2.0965 -2.4496
  220MOL    C5835536   7.537   3.787   0.109  0.4813 -0.3284 -0.4217
  220MOL    C5935537   7.470   3.918   0.121  0.0496  0.1658  0.1175
  220MOL    C6035538   7.549   4.025   0.207  0.4568 -0.1973  0.3182
  220MOL    O6135539   7.659   4.000   0.250 -0.1068  0.1748  0.3939
  220MOL    H6235540   7.645   3.804   0.106 -0.0925  3.4683 -1.7332
  220MOL    H6335541   7.514   3.724   0.195  0.4800 -1.9613 -1.5911
  220MOL    H6435542   7.371   3.911   0.167 -0.6083 -1.6381 -1.4902
  220MOL    H6535543   7.472   3.949   0.017  1.4159  0.1546  0.1303
  220MOL    C6635544   7.479   4.154   0.241 -0.2404 -0.7096  0.9773
  220MOL    C6735545   7.547   4.262   0.324 -0.5229 -0.0995 -0.4793
  220MOL    C6835546   7.533   4.409   0.280 -0.2135  0.5366  0.1646
  220MOL    O6935547   7.480   4.431   0.174 -0.0807 -0.1241 -0.3626
  220MOL    H7035548   7.378   4.137   0.279 -0.6188 -0.5559  0.0431
  220MOL    H7135549   7.466   4.187   0.138  0.8559  0.3031  1.1538
  220MOL    H7235550   7.654   4.246   0.331 -1.0358 -3.4087  0.7393
  220MOL    H7335551   7.522   4.257   0.429 -1.4401 -0.1354 -0.6954
  220MOL    C7435552   7.604   4.517   0.369  0.0321 -0.5034  0.4867
  220MOL    C7535553   7.558   4.662   0.338 -0.2071  0.4762 -0.1713
  220MOL    C7635554   7.547   4.754   0.460  0.5316 -0.2399  0.4705
  220MOL    O7735555   7.586   4.720   0.572 -0.3403 -0.1256 -0.6983
  220MOL    H7835556   7.711   4.508   0.350  0.4512  0.9455  2.0017
  220MOL    H7935557   7.582   4.492   0.473 -0.3668 -1.7682  0.1012
  220MOL    H8035558   7.462   4.650   0.287 -0.3471  1.9408 -0.2628
  220MOL    H8135559   7.624   4.701   0.261 -1.7358 -0.8928 -2.2223
  220MOL    C8235560   7.485   4.893   0.430  0.4042  0.0899  0.6503
  220MOL    C8335561   7.471   4.981   0.556 -0.3139  0.0057  0.7163
  220MOL    C8435562   7.329   4.988   0.605 -0.5269 -0.0329  0.6333
  220MOL    O8535563   7.262   5.085   0.571  0.3925 -0.5893  0.3848
  220MOL    H8635564   7.393   4.875   0.375  0.8844  1.0093 -0.4965
  220MOL    H8735565   7.552   4.946   0.361 -2.8125 -1.7314 -4.1020
  220MOL    H8835566   7.510   5.078   0.525 -1.4739 -0.0411 -0.9347
  220MOL    H8935567   7.534   4.948   0.639  0.9085  0.8588  0.1380
  220MOL    C9035568   7.269   4.863   0.674  0.0324 -0.5186  0.1276
  220MOL    C9135569   7.151   4.797   0.606  0.3623 -0.0865 -0.4813
  220MOL    C9235570   7.077   4.703   0.693  0.4794 -0.1468 -0.2842
  220MOL    O9335571   7.077   4.703   0.818 -0.1403  0.5850 -0.5844
  220MOL    H9435572   7.246   4.895   0.776  2.4894  0.6836  0.3366
  220MOL    H9535573   7.348   4.789   0.690  1.0420  0.4193 -0.5107
  220MOL    H9635574   7.185   4.738   0.521  2.7070 -0.9567  1.0422
  220MOL    H9735575   7.077   4.876   0.588 -0.2495 -0.7486 -0.9112
  220MOL    C9835576   6.976   4.613   0.619  0.3666 -0.4611 -0.0868
  220MOL    C9935577   6.952   4.469   0.678 -0.2169  0.3942  0.1934
  220MOL   C10035578   7.075   4.378   0.666 -0.1048 -0.4980 -0.7425
  220MOL   O10135579   7.178   4.413   0.608 -0.4395 -0.7881  0.0417
  220MOL   H10235580   7.014   4.595   0.519  0.5535  2.0120 -0.4919
  220MOL   H10335581   6.884   4.671   0.607  0.2322 -0.7083 -0.2580
  220MOL   H10435582   6.863   4.417   0.641  1.2054 -1.4767 -0.6914
  220MOL   H10535583   6.937   4.479   0.785  0.8691  2.2145  0.1928
  220MOL   C10635584   7.060   4.233   0.725 -0.1051  0.0061  0.4021
  220MOL   C10735585   7.164   4.145   0.654 -0.6755 -0.0320  0.3335
  220MOL   C10835586   7.296   4.130   0.726 -1.0245  0.0240 -0.0236
  220MOL   O10935587   7.323   4.194   0.828 -0.2961  0.8014  0.2876
  220MOL   H11035588   6.961   4.197   0.698 -0.8703  2.4834 -0.1713
  220MOL   H11135589   7.071   4.234   0.833  1.1619  0.3271  0.2793
  220MOL   H11235590   7.191   4.162   0.550  0.0629 -0.9778  0.3711
  220MOL   H11335591   7.114   4.049   0.662 -1.6014  0.4987  1.1510
  220MOL   C11435592   7.403   4.029   0.682 -0.7026  0.5610 -0.0629
  220MOL   C11535593   7.469   3.957   0.797  0.4482  0.4426 -0.1937
  220MOL   C11635594   7.404   3.826   0.834  0.5220  0.1728 -0.3295
  220MOL   O11735595   7.372   3.745   0.750 -0.2333  0.2334 -0.3382
  220MOL   H11835596   7.471   4.085   0.617 -1.4751  2.5394  0.7997
  220MOL   H11935597   7.366   3.953   0.613  0.6116  0.0497 -0.2198
  220MOL   H12035598   7.473   4.019   0.887  0.6311 -2.2951  1.7529
  220MOL   H12135599   7.572   3.928   0.774 -0.0938 -0.5822 -1.3843
  220MOL   C12235600   7.393   3.798   0.975  0.2185 -0.5135  0.2405
  220MOL   C12335601   7.322   3.912   1.050 -0.2464 -0.3153  0.2855
  220MOL   C12435602   7.410   3.967   1.158  0.8638 -0.2476  0.0294
  220MOL   O12535603   7.418   3.908   1.267 -0.4995 -0.3887 -0.2363
  220MOL   H12635604   7.493   3.781   1.014  1.1249  2.1248 -0.8499
  220MOL   H12735605   7.342   3.701   0.973  1.7877 -1.3696  0.5189
  220MOL   H12835606   7.235   3.859   1.088 -1.3860  0.6783 -0.8747
  220MOL   H12935607   7.292   3.989   0.979 -2.4653 -1.2051  0.2112
  220MOL   C13035608   7.477   4.101   1.142 -0.3747 -0.0386 -0.0083
  220MOL   C13135609   7.630   4.111   1.192 -0.0240  0.0326 -0.1932
  220MOL   C13235610   7.728   4.108   1.070 -0.9724  0.7949  0.2399
  220MOL   O13335611   7.687   4.111   0.954 -0.4886  0.3745 -0.3101
  220MOL   H13435612   7.421   4.183   1.188 -0.6729 -0.7661  0.9367
  220MOL   H13535613   7.475   4.137   1.039 -2.5584 -0.7906 -0.2455
  220MOL   H13635614   7.655   4.042   1.274 -0.9665 -2.2087 -1.7261
  220MOL   H13735615   7.640   4.205   1.246  1.2181 -1.5911  2.5474
  220MOL   C13835616   0.015   4.099   1.091  0.5849 -0.4852 -0.3770
  220MOL   C13935617   0.098   4.168   0.970  0.2450 -0.4269  0.1220
  220MOL   C14035618   0.239   4.118   0.969 -0.3520 -0.0144  0.4234
  220MOL   O14135619   0.285   4.054   1.058 -0.4787  0.3169  0.0240
  220MOL   H14235620   0.043   3.996   1.112  0.4804 -0.6069 -0.8427
  220MOL   H14335621   0.058   4.141   1.182 -0.9167  0.9331 -0.2916
  220MOL   H14435622   0.098   4.277   0.980  1.4845 -0.2358 -1.7496
  220MOL   H14535623   0.055   4.132   0.877  1.4614 -0.7592 -0.3132
  220MOL   C14635624   0.320   4.131   0.835 -0.7469 -0.1758  0.5449
  220MOL   C14735625   0.477   4.097   0.842 -0.1960  0.4750  0.0579
  220MOL   C14835626   0.534   4.039   0.715  0.3287 -0.2617  0.2893
  220MOL   O14935627   0.493   3.935   0.662  0.3460 -0.6631  0.1964
  220MOL   H15035628   0.306   4.232   0.796  1.9598  0.1727  0.4000
  220MOL   H15135629   0.284   4.060   0.762 -0.7393  1.7164 -1.3395
  220MOL   H15235630   0.482   4.009   0.907  0.2343 -0.5991 -1.4103
  220MOL   H15335631   0.539   4.175   0.886  0.1159  0.6982 -0.7814
  220MOL   C15435632   0.658   4.113   0.667  1.1292  0.1018 -0.4616
  220MOL   C15535633   0.765   4.013   0.620 -0.0720  0.7852  0.0812
  220MOL   C15635634   0.902   4.073   0.653  0.1725  0.2088 -0.2826
  220MOL   O15735635   0.941   4.057   0.766 -0.4727  0.4686  0.4432
  220MOL   H15835636   0.679   4.178   0.752 -1.4025  0.4991 -0.1107
  220MOL   H15935637   0.628   4.189   0.595  0.9086 -0.2047 -0.6951
  220MOL   H16035638   0.758   3.975   0.518 -0.9171  2.5526 -0.5596
  220MOL   H16135639   0.750   3.930   0.688 -0.8951 -0.1717 -1.2377
  220MOL   H16235640   0.966   4.134   0.590  0.1749  1.2796  0.7367
  221MOL     C135641   6.203   1.438   6.564  0.1145  0.6388  0.8970
  221MOL     C235642   6.085   1.519   6.544 -0.1932  0.6171  0.1767
  221MOL     C335643   5.965   1.449   6.484 -0.1803  0.1244  0.4875
  221MOL     O435644   5.967   1.330   6.470  0.7958  0.2006 -0.0610
  221MOL     H535645   6.172   1.349   6.620  1.7991 -0.9647 -0.6315
  221MOL     H635646   6.235   1.417   6.462  0.2274  0.6590  0.9281
  221MOL     H735647   6.104   1.615   6.495 -0.4485  0.1777 -0.8062
  221MOL     H835648   6.038   1.545   6.639  1.4251 -3.5043  2.2475
  221MOL     H935649   6.277   1.496   6.619  0.2380  1.6667 -0.3414
  221MOL    C1035650   5.842   1.534   6.450 -0.0131  0.2405  0.6926
  221MOL    C1135651   5.767   1.483   6.323  0.3100 -0.0242  0.4346
  221MOL    C1235652   5.678   1.360   6.350 -0.6660 -0.2047  0.8532
  221MOL    O1335653   5.597   1.360   6.445 -0.4062 -0.2862  0.2668
  221MOL    H1435654   5.880   1.632   6.421  4.0864 -1.8057 -1.3278
  221MOL    H1535655   5.763   1.532   6.525 -0.2929 -0.0764  0.3899
  221MOL    H1635656   5.842   1.454   6.250 -0.2332 -0.7504  0.1678
  221MOL    H1735657   5.717   1.564   6.270  1.7656 -0.4610 -1.6685
  221MOL    C1835658   5.713   1.231   6.270  0.2549 -0.0034  0.4680
  221MOL    C1935659   5.701   1.101   6.365 -0.3459 -0.6354  0.2760
  221MOL    C2035660   5.809   0.997   6.334 -0.2521 -0.5342 -0.3258
  221MOL    O2135661   5.811   0.934   6.232  0.3505  0.1490  0.1587
  221MOL    H2235662   5.812   1.246   6.228 -0.1175 -0.1436 -0.4830
  221MOL    H2335663   5.648   1.229   6.182  2.9464  2.5453 -1.6417
  221MOL    H2435664   5.603   1.054   6.365 -2.1646  2.9287 -0.4112
  221MOL    H2535665   5.713   1.135   6.468 -0.2644 -0.2414  0.1374
  221MOL    C2635666   5.921   0.991   6.436 -0.4104 -0.3160 -0.6045
  221MOL    C2735667   6.045   0.928   6.370  0.2223  0.2895 -0.0383
  221MOL    C2835668   6.182   0.974   6.417 -0.9505 -0.1036  0.2196
  221MOL    O2935669   6.195   1.061   6.501 -0.5482  0.1608  0.3573
  221MOL    H3035670   5.868   0.936   6.514  2.0890 -0.8538  0.7833
  221MOL    H3135671   5.937   1.086   6.488  1.0492 -0.4194 -0.8449
  221MOL    H3235672   6.047   0.958   6.266 -0.3117  0.9179  0.1296
  221MOL    H3335673   6.046   0.819   6.372 -0.8751  0.2606 -0.8525
  221MOL    C3435674   6.294   0.894   6.360 -0.1662  0.3130  0.0069
  221MOL    C3535675   6.284   0.741   6.394 -0.3264  0.2513 -0.0153
  221MOL    C3635676   6.396   0.701   6.500  1.2615 -0.3571  0.2450
  221MOL    O3735677   6.486   0.769   6.548  0.0014  0.5150  0.4587
  221MOL    H3835678   6.389   0.924   6.404  0.3970 -0.9756 -0.3065
  221MOL    H3935679   6.288   0.914   6.253  1.7409  0.3133 -0.1143
  221MOL    H4035680   6.298   0.677   6.307  0.4483  4.3483 -3.0681
  221MOL    H4135681   6.188   0.714   6.438 -1.1676  1.4117 -1.0865
  221MOL    C4235682   6.384   0.552   6.543  0.5705  0.0782 -0.0955
  221MOL    C4335683   6.258   0.532   6.640  0.1857  0.1037 -0.0388
  221MOL    C4435684   6.293   0.453   6.763  0.2994  0.4023 -0.1454
  221MOL    O4535685   6.240   0.479   6.870 -0.2159  0.2492  0.3391
  221MOL    H4635686   6.474   0.527   6.599  0.6695  0.5840 -0.0229
  221MOL    H4735687   6.369   0.492   6.453 -2.0255  1.6433 -0.7746
  221MOL    H4835688   6.180   0.478   6.586  2.5271 -1.7722 -1.6311
  221MOL    H4935689   6.218   0.627   6.676 -1.8735 -1.7275  2.7094
  221MOL    C5035690   6.376   0.323   6.749  0.2441 -0.4049 -0.3338
  221MOL    C5135691   6.319   0.211   6.836  0.1095 -0.6153  0.3973
  221MOL    C5235692   6.353   0.077   6.784  0.3855  0.2604 -0.1008
  221MOL    O5335693   6.445   0.048   6.718 -0.0317 -0.0928  0.2581
  221MOL    H5435694   6.481   0.344   6.773 -0.8013  2.2645  2.2051
  221MOL    H5535695   6.373   0.302   6.642 -1.9179 -0.2114 -0.3290
  221MOL    H5635696   6.212   0.226   6.845  0.3767  0.7162  1.6374
  221MOL    H5735697   6.356   0.225   6.938 -1.3091 -0.1853  0.8727
  221MOL    C5835698   6.257   7.827   6.812  0.5008 -0.4508  0.0207
  221MOL    C5935699   6.324   7.685   6.801 -0.0780  0.4927  0.3584
  221MOL    C6035700   6.405   7.644   6.916  0.2631  0.4717  0.1635
  221MOL    O6135701   6.370   7.666   7.033  0.1597 -0.5559 -0.2432
  221MOL    H6235702   6.163   7.825   6.758  0.6448  1.1385 -0.3352
  221MOL    H6335703   6.230   7.842   6.916  0.6570 -0.4792  0.0657
  221MOL    H6435704   6.389   7.669   6.715  0.4516 -0.4216  0.9088
  221MOL    H6535705   6.243   7.612   6.799 -1.9251  2.5311  0.1130
  221MOL    C6635706   6.529   7.559   6.887 -0.2416  0.4204  0.2270
  221MOL    C6735707   6.626   7.552   7.010  0.2007  0.0940 -0.5030
  221MOL    C6835708   6.755   7.633   6.988  0.0000 -0.4021 -0.1223
  221MOL    O6935709   6.757   7.754   6.980 -0.0741 -0.0304  0.3243
  221MOL    H7035710   6.577   7.611   6.805  0.1356  2.9383  1.9793
  221MOL    H7135711   6.505   7.456   6.858  0.7713 -0.1127  1.2055
  221MOL    H7235712   6.659   7.449   7.016  0.5458  0.2690  0.6902
  221MOL    H7335713   6.575   7.573   7.104 -0.2302 -0.3209 -0.6434
  221MOL    C7435714   6.888   7.560   6.982 -0.2440 -0.5063  0.0794
  221MOL    C7535715   6.907   7.463   6.863 -0.2582  0.3159 -0.0725
  221MOL    C7635716   6.942   7.321   6.911  0.5370 -0.8736  0.1102
  221MOL    O7735717   6.947   7.299   7.036  0.2127 -0.4450  0.7237
  221MOL    H7835718   6.908   7.509   7.077 -1.9379 -0.4067  0.5158
  221MOL    H7935719   6.961   7.640   6.976  0.5833 -1.1730  1.1421
  221MOL    H8035720   6.985   7.498   6.796 -1.6377  2.9415 -0.3869
  221MOL    H8135721   6.818   7.450   6.800  0.9752 -1.0251 -1.5741
  221MOL    C8235722   6.971   7.218   6.802 -0.4155  0.3276 -0.4015
  221MOL    C8335723   7.077   7.122   6.850  0.4878 -0.4062 -0.2077
  221MOL    C8435724   7.091   6.988   6.782 -0.4226  1.0507  0.1786
  221MOL    O8535725   7.010   6.949   6.697  0.3359 -0.2562  0.0362
  221MOL    H8635726   7.006   7.260   6.707 -2.2497  0.2462 -1.1402
  221MOL    H8735727   6.873   7.182   6.771 -1.4159  2.6131 -0.0558
  221MOL    H8835728   7.045   7.096   6.951 -1.0452  0.5217 -0.4329
  221MOL    H8935729   7.175   7.166   6.871  0.0001  0.3689  0.5103
  221MOL    C9035730   7.207   6.901   6.817 -0.1141  0.4433 -0.9514
  221MOL    C9135731   7.231   6.787   6.720 -0.0470  0.5957  0.1407
  221MOL    C9235732   7.377   6.753   6.686 -0.1379 -0.1473  0.7337
  221MOL    O9335733   7.471   6.791   6.760  0.1709 -0.6859 -0.2803
  221MOL    H9435734   7.190   6.853   6.913 -1.5474  1.0498 -0.8914
  221MOL    H9535735   7.298   6.957   6.838 -1.3156  2.6130 -1.4029
  221MOL    H9635736   7.170   6.797   6.630  0.9601 -0.9156 -0.7320
  221MOL    H9735737   7.197   6.695   6.769  0.8469 -1.1314 -2.3514
  221MOL    C9835738   7.396   6.678   6.551  0.2517  0.3429  0.6118
  221MOL    C9935739   7.537   6.655   6.495  0.2742 -0.2351  0.3196
  221MOL   C10035740   7.544   6.585   6.354 -0.8400 -0.6194  0.1158
  221MOL   O10135741   7.445   6.548   6.295  0.0972  0.1590 -0.2038
  221MOL   H10235742   7.333   6.727   6.476  0.8274 -0.6158 -0.5216
  221MOL   H10335743   7.369   6.573   6.560  0.7883  0.3048  1.8932
  221MOL   H10435744   7.587   6.584   6.560  0.9775  0.2413  0.3048
  221MOL   H10535745   7.581   6.755   6.497 -1.7669  0.6618  2.2673
  221MOL   C10635746   7.678   6.539   6.302  0.0753 -0.3732 -0.3993
  221MOL   C10735747   7.719   6.610   6.174 -0.3829 -0.1948 -0.2307
  221MOL   C10835748   7.848   6.688   6.182 -0.0419  0.5391  0.7509
  221MOL   O10935749   0.031   6.744   6.280 -0.1603  0.3195  0.2009
  221MOL   H11035750   7.677   6.430   6.289  0.8574 -0.5862  1.1183
  221MOL   H11135751   7.747   6.566   6.382 -0.9424  3.0567 -0.6027
  221MOL   H11235752   7.640   6.672   6.132 -0.2282  0.0746 -0.1182
  221MOL   H11335753   7.714   6.531   6.099 -2.5019  0.0842 -0.4336
  221MOL   C11435754   0.078   6.686   6.063  0.1354  0.0142  0.3799
  221MOL   C11535755   0.201   6.594   6.088 -0.7122  0.4446 -0.6637
  221MOL   C11635756   0.189   6.453   6.035 -0.7762 -0.8105 -0.1162
  221MOL   O11735757   0.080   6.417   5.991 -0.4510  0.1547 -0.1534
  221MOL   H11835758   0.105   6.791   6.055  0.2982 -0.0190  0.4989
  221MOL   H11935759   0.032   6.673   5.965  2.5330 -1.3679 -0.6025
  221MOL   H12035760   0.224   6.598   6.195 -1.9691 -1.4670 -0.3155
  221MOL   H12135761   0.280   6.641   6.029  0.2049  0.2351  0.3573
  221MOL   C12235762   0.314   6.361   6.030  0.5788 -0.7812 -0.2333
  221MOL   C12335763   0.277   6.211   6.049 -0.1446 -1.0238 -0.6940
  221MOL   C12435764   0.279   6.168   6.201 -0.1809  0.1501 -0.5818
  221MOL   O12535765   0.383   6.170   6.266 -0.2760 -0.0128 -0.7416
  221MOL   H12635766   0.388   6.399   6.100 -0.5090 -0.0529  0.5373
  221MOL   H12735767   0.359   6.387   5.935  2.8937  0.8236  1.2536
  221MOL   H12835768   0.353   6.152   5.998 -1.1619 -3.1822  0.2248
  221MOL   H12935769   0.193   6.186   5.985 -0.8335 -1.0315  0.2032
  221MOL   C13035770   0.145   6.139   6.277 -0.1077 -0.7401  1.0320
  221MOL   C13135771   0.154   6.184   6.426 -0.1318  0.2971 -0.5689
  221MOL   C13235772   0.130   6.337   6.451 -0.3469 -0.9049 -0.2227
  221MOL   O13335773   0.076   6.404   6.364  0.1200 -0.5285  0.0073
  221MOL   H13435774   0.130   6.031   6.281  2.5524 -1.2100 -0.7898
  221MOL   H13535775   0.062   6.181   6.221  1.6457  0.2236 -0.8815
  221MOL   H13635776   0.250   6.165   6.475  0.2528  1.9922 -0.6115
  221MOL   H13735777   0.078   6.145   6.493 -2.5124  0.7129 -2.9408
  221MOL   C13835778   0.164   6.389   6.588 -0.1114  0.1397 -0.4791
  221MOL   C13935779   0.200   6.540   6.593 -0.3977 -0.0956  0.4932
  221MOL   C14035780   0.087   6.632   6.631 -0.4313 -1.1561 -0.8074
  221MOL   O14135781   7.840   6.588   6.659 -0.0240 -0.3150  0.1169
  221MOL   H14235782   0.245   6.326   6.624 -3.3777 -2.7627  2.1784
  221MOL   H14335783   0.074   6.365   6.646 -2.2058  0.4551 -3.5007
  221MOL   H14435784   0.226   6.577   6.494 -1.2792 -0.5143  0.0915
  221MOL   H14535785   0.285   6.542   6.661  1.0288  0.2829 -1.2549
  221MOL   C14635786   0.117   6.786   6.645  0.3057 -0.5647 -0.5257
  221MOL   C14735787   7.847   6.878   6.647 -1.4189 -0.0947 -0.2163
  221MOL   C14835788   7.821   6.942   6.782  0.3175 -0.0733  0.5549
  221MOL   O14935789   0.042   6.930   6.874  0.1337 -0.0336 -0.0415
  221MOL   H15035790   0.165   6.816   6.552 -0.0310  1.2785 -0.1311
  221MOL   H15135791   0.187   6.813   6.725  1.4779 -1.4455 -1.2423
  221MOL   H15235792   7.760   6.819   6.619  1.6750 -4.1725 -1.7799
  221MOL   H15335793   7.852   6.966   6.583 -0.7813  1.0602  1.3878
  221MOL   C15435794   7.699   7.033   6.795 -0.1559  0.2994 -0.0225
  221MOL   C15535795   7.660   7.036   6.946 -0.0675  0.4076  0.3235
  221MOL   C15635796   7.507   7.039   6.967 -0.4558 -1.1329 -0.2861
  221MOL   O15735797   7.450   7.116   6.892 -0.0659 -0.1867 -0.1796
  221MOL   H15835798   7.624   6.985   6.733  0.3074 -1.4197  0.7101
  221MOL   H15935799   7.724   7.133   6.759  0.3007  0.0314 -0.4582
  221MOL   H16035800   7.716   7.099   7.015 -0.5971  1.1797  0.0546
  221MOL   H16135801   7.686   6.939   6.988 -0.4193  1.2116  2.4814
  221MOL   H16235802   7.458   6.989   7.051  0.7222 -2.4228 -0.3429
  222MOL     C135803   2.686   0.925   7.416 -0.2859 -0.2606 -0.6416
  222MOL     C235804   2.771   0.816   7.481 -0.6033  0.1847  0.1347
  222MOL     C335805   2.887   0.864   7.568  0.7029  0.1650 -0.0741
  222MOL     O435806   2.957   0.960   7.526  0.1168  0.3401 -0.2155
  222MOL     H535807   2.758   0.991   7.368  0.6092  0.3013  1.4153
  222MOL     H635808   2.605   0.887   7.354  1.1235  1.6560 -3.7567
  222MOL     H735809   2.818   0.759   7.401 -1.0041 -0.1367  0.1281
  222MOL     H835810   2.711   0.744   7.537  0.0209  0.6134  1.3696
  222MOL     H935811   2.632   0.972   7.499 -0.9356  0.2221 -1.3274
  222MOL    C1035812   2.913   0.787   7.703  0.2396 -0.2399 -0.3691
  222MOL    C1135813   2.988   0.871   7.811 -0.8634 -0.6660  0.6176
  222MOL    C1235814   3.136   0.871   7.801 -0.6629  0.7887  0.2204
  222MOL    O1335815   3.203   0.769   7.778  0.3727  0.0300 -0.2002
  222MOL    H1435816   2.980   0.704   7.681 -0.1156 -0.5524 -0.2621
  222MOL    H1535817   2.816   0.743   7.723  0.3118  0.2677  1.1186
  222MOL    H1635818   2.966   0.835   0.052 -1.2753 -2.1361  0.0140
  222MOL    H1735819   2.952   0.974   7.801  1.7326  0.2541  0.3242
  222MOL    C1835820   3.208   1.003   7.793 -0.3773  0.1005  0.3289
  222MOL    C1935821   3.349   0.996   7.851 -0.5775 -0.1116  0.2310
  222MOL    C2035822   3.422   1.121   0.038 -0.0111 -0.5076 -0.3649
  222MOL    O2135823   3.417   1.227   7.830  0.4209  0.3573 -0.6564
  222MOL    H2235824   3.152   1.072   7.856  0.5682  1.2527 -0.0927
  222MOL    H2335825   3.213   1.042   7.692 -3.5842  1.3960  0.6129
  222MOL    H2435826   3.418   0.934   7.793 -1.2590 -2.2326  1.6133
  222MOL    H2535827   3.336   0.938   0.084 -0.1245 -1.6980 -0.6806
  222MOL    C2635828   3.527   1.115   0.157 -0.3063 -0.1217 -0.2880
  222MOL    C2735829   3.570   1.263   0.201  0.0492 -0.1460 -0.2866
  222MOL    C2835830   3.706   1.308   0.147  0.3265  0.8730  0.6550
  222MOL    O2935831   3.793   1.216   0.138  0.3291  0.1638  0.4866
  222MOL    H3035832   3.604   1.045   0.126 -0.1327  0.2970 -0.8005
  222MOL    H3135833   3.485   1.055   0.239 -1.7315 -1.0271 -1.6403
  222MOL    H3235834   3.578   1.269   0.309 -1.0608 -0.3539 -0.1925
  222MOL    H3335835   3.499   1.344   0.184  1.1916  0.9209 -0.0770
  222MOL    C3435836   3.729   1.450   0.101 -0.7964 -0.5500  0.5374
  222MOL    C3535837   3.761   1.474   7.812 -0.2382 -0.4992 -0.0737
  222MOL    C3635838   3.912   1.509   7.800  0.2594  1.0251  0.3233
  222MOL    O3735839   3.951   1.621   7.827  0.5662  0.5185  0.3751
  222MOL    H3835840   3.807   1.494   0.165 -0.2941  0.8274 -0.9916
  222MOL    H3935841   3.638   1.507   0.115 -0.8960 -0.2857 -1.1574
  222MOL    H4035842   3.706   1.559   7.773  0.1345 -0.7175 -1.1073
  222MOL    H4135843   3.733   1.395   7.741  0.6782 -0.3341 -0.6310
  222MOL    C4235844   4.003   1.398   7.752  0.7553  0.3429  0.2090
  222MOL    C4335845   4.131   1.372   7.843 -0.2686 -0.5449 -0.3201
  222MOL    C4435846   4.217   1.245   7.810 -0.1993 -0.0293  0.1613
  222MOL    O4535847   4.174   1.169   7.723 -0.9053 -0.1042 -0.7151
  222MOL    H4635848   4.043   1.435   7.658  0.4086 -3.7099 -1.6649
  222MOL    H4735849   3.943   1.309   7.732 -0.9463  1.3169  0.8323
  222MOL    H4835850   4.092   1.360   0.085 -2.1781 -2.0754 -1.2081
  222MOL    H4935851   4.199   1.457   7.842  0.2205 -0.9126  0.9785
  222MOL    C5035852   4.349   1.225   0.012  0.2542  0.3413 -0.2679
  222MOL    C5135853   4.419   1.099   7.814 -0.5001 -0.3840  0.6505
  222MOL    C5235854   4.523   1.136   7.711  0.4142  0.2772  0.3269
  222MOL    O5335855   4.519   1.232   7.638 -0.1231 -0.5331 -0.1906
  222MOL    H5435856   4.335   1.218   0.120 -1.8974 -1.7694 -0.6253
  222MOL    H5535857   4.401   1.320   0.010 -1.5627  1.3447 -1.8728
  222MOL    H5635858   4.341   1.033   7.776 -1.7282  2.5896 -2.1981
  222MOL    H5735859   4.474   1.050   0.035  0.1668  1.4968  1.3681
  222MOL    C5835860   4.636   1.042   7.686 -0.6503 -0.2980 -0.5635
  222MOL    C5935861   4.716   1.066   7.558  0.6016  0.4789 -0.3469
  222MOL    C6035862   4.832   1.163   7.560 -0.0760  0.0679  0.0915
  222MOL    O6135863   4.889   1.206   7.654 -0.1998 -0.1374  0.1454
  222MOL    H6235864   4.604   0.938   7.683  1.4138 -0.9528 -0.1658
  222MOL    H6335865   4.688   1.051   7.782  0.7696  2.5208 -1.5618
  222MOL    H6435866   4.647   1.080   7.474 -1.9650  2.8597  2.0493
  222MOL    H6535867   4.763   0.971   7.529  2.1890  0.9352  0.6671
  222MOL    C6635868   4.881   1.198   7.420  0.4467  0.6442 -0.2740
  222MOL    C6735869   4.797   1.295   7.339  0.1804 -1.0241 -0.7825
  222MOL    C6835870   4.876   1.346   7.219 -1.7875  0.2712  0.7643
  222MOL    O6935871   4.996   1.375   7.215  0.1312 -0.8393  0.2938
  222MOL    H7035872   4.899   1.114   7.354 -3.3940 -0.7234  0.2939
  222MOL    H7135873   4.986   1.224   7.429  0.5881 -0.8087  2.8021
  222MOL    H7235874   4.764   1.381   7.398 -0.7029 -0.4048 -2.1310
  222MOL    H7335875   4.707   1.242   7.308 -0.3936 -0.0369 -0.8168
  222MOL    C7435876   4.793   1.369   7.099  0.3669 -0.1441 -0.3172
  222MOL    C7535877   4.861   1.438   6.979  0.3073  0.2185 -0.6065
  222MOL    C7635878   4.841   1.586   6.968 -0.1780  0.1195  0.8830
  222MOL    O7735879   4.797   1.657   7.058  0.3473  0.3481  0.2282
  222MOL    H7835880   4.710   1.434   7.127 -0.6170 -1.4450 -0.1593
  222MOL    H7935881   4.738   1.277   7.079  0.7498 -0.2396 -0.9391
  222MOL    H8035882   4.820   1.403   6.884  1.8320 -1.8663 -0.5390
  222MOL    H8135883   4.967   1.421   6.993 -0.2389 -2.8219  0.1459
  222MOL    C8235884   4.881   1.653   6.836 -0.0049 -0.1732 -0.4492
  222MOL    C8335885   4.955   1.785   6.856  0.2234  0.5020 -0.1151
  222MOL    C8435886   5.086   1.796   6.773  0.3721  0.6237  0.0318
  222MOL    O8535887   5.090   1.745   6.660 -0.5089  0.2042  0.3606
  222MOL    H8635888   4.792   1.665   6.775 -0.5844  0.8017  0.5685
  222MOL    H8735889   4.917   1.572   6.772  4.1747  1.9238 -0.8785
  222MOL    H8835890   4.986   1.807   6.958 -0.5307  0.5372  0.1092
  222MOL    H8935891   4.885   1.861   6.820 -0.8371  0.6772  2.1738
  222MOL    C9035892   5.201   1.873   6.830 -0.2364  0.1365  0.3154
  222MOL    C9135893   5.228   1.999   6.747  0.0696 -0.1460 -0.0499
  222MOL    C9235894   5.173   2.120   6.817 -0.2876  0.3712 -0.5164
  222MOL    O9335895   5.138   2.121   6.936 -0.2648  0.1356  0.2914
  222MOL    H9435896   5.290   1.809   6.831 -1.0109 -1.0013 -1.3532
  222MOL    H9535897   5.184   1.887   6.937  1.5172  0.2087  0.5990
  222MOL    H9635898   5.183   1.984   6.649  3.0815 -0.2693 -1.4547
  222MOL    H9735899   5.336   2.007   6.743 -0.0841  1.9869 -0.4680
  222MOL    C9835900   5.143   2.233   6.719  0.9862  0.3804 -0.5098
  222MOL    C9935901   5.035   2.338   6.757  0.7225 -0.0332 -0.5550
  222MOL   C10035902   4.970   2.410   6.639 -0.4972 -0.2645  0.0895
  222MOL   O10135903   5.021   2.390   6.529  0.1968  0.0992  0.2035
  222MOL   H10235904   5.140   2.196   6.617  1.2793 -0.4523 -0.2155
  222MOL   H10335905   5.234   2.293   6.725  0.0741  1.6574  1.0866
  222MOL   H10435906   5.069   2.412   6.829  0.8515 -1.3036  0.7045
  222MOL   H10535907   4.957   2.273   6.797  1.4144  0.6749  2.0327
  222MOL   C10635908   4.865   2.512   6.681  0.3673  0.5793  0.0490
  222MOL   C10735909   4.783   2.578   6.566  0.1802  0.4780  0.1080
  222MOL   C10835910   4.821   2.724   6.568  0.7465 -0.1706 -0.4432
  222MOL   O10935911   4.754   2.804   6.627  0.3225  0.1433  0.2448
  222MOL   H11035912   4.910   2.573   6.759  1.2305  1.4623 -1.1233
  222MOL   H11135913   4.788   2.467   6.744 -1.2294  0.0080 -2.2433
  222MOL   H11235914   4.679   2.553   6.585  0.7378 -1.5546  0.6409
  222MOL   H11335915   4.806   2.544   6.465  2.4336  1.2476  0.3242
  222MOL   C11435916   4.948   2.768   6.495  0.6483  0.0833  0.2011
  222MOL   C11535917   4.932   2.769   6.342 -0.0497  0.1281 -0.4227
  222MOL   C11635918   5.052   2.722   6.259 -0.5227  0.5571 -0.7007
  222MOL   O11735919   5.157   2.687   6.309 -0.0840  0.1182 -0.2562
  222MOL   H11835920   5.019   2.693   6.531  0.6604 -0.8023 -1.5933
  222MOL   H11935921   4.972   2.867   6.533  0.3045  0.1747  0.1803
  222MOL   H12035922   4.907   2.870   6.309 -0.1691 -0.4970 -2.2980
  222MOL   H12135923   4.836   2.724   6.316 -0.5835  1.5780 -0.9766
  222MOL   C12235924   5.022   2.703   6.109  0.1379 -0.3751  0.1262
  222MOL   C12335925   5.137   2.667   6.018 -0.7047 -0.7521 -0.0901
  222MOL   C12435926   5.189   2.781   5.933  0.4941 -0.1755  0.3634
  222MOL   O12535927   5.147   2.895   5.938 -0.6043  0.1663 -0.3854
  222MOL   H12635928   4.968   2.787   6.065  0.2547 -0.3989 -0.0644
  222MOL   H12735929   4.950   2.621   6.106  4.0076 -3.9019 -2.2875
  222MOL   H12835930   5.103   2.591   5.948 -0.3111 -0.4122 -0.6458
  222MOL   H12935931   5.221   2.623   6.071 -0.4425  0.3709  0.4468
  222MOL   C13035932   5.300   2.756   5.833 -0.1822 -0.4459  0.0136
  222MOL   C13135933   5.429   2.820   5.882 -0.3641 -0.2168  0.1302
  222MOL   C13235934   5.484   2.771   6.015 -0.7487 -0.3714 -0.3540
  222MOL   O13335935   5.533   2.662   6.020  0.3307 -0.1945  0.3087
  222MOL   H13435936   5.268   2.794   5.736 -1.7128  1.1106  1.1074
  222MOL   H13535937   5.321   2.649   5.827  1.0111 -0.2568  0.8293
  222MOL   H13635938   5.406   2.925   5.902  1.8248 -0.1269  2.3619
  222MOL   H13735939   5.493   2.811   5.794  0.1259 -2.7481  0.7097
  222MOL   C13835940   5.461   2.860   6.133  0.9518  0.1005 -0.0919
  222MOL   C13935941   5.552   2.812   6.254  0.3388 -0.0641  0.6843
  222MOL   C14035942   5.694   2.866   6.238 -0.4442  0.3207 -0.1522
  222MOL   O14135943   5.711   2.978   6.195 -0.1046 -0.0873 -0.2139
  222MOL   H14235944   5.355   2.861   6.159  1.0972  0.3528  0.4973
  222MOL   H14335945   5.487   2.962   6.105  0.5379  0.5388  1.0771
  222MOL   H14435946   5.551   2.703   6.263 -2.6206 -0.2583 -1.3598
  222MOL   H14535947   5.511   2.855   6.346 -0.3887  2.1958 -0.6688
  222MOL   C14635948   5.812   2.773   6.270 -0.6129 -0.5026  0.2194
  222MOL   C14735949   5.876   2.708   6.147 -0.1412  0.5837 -0.0372
  222MOL   C14835950   5.905   2.562   6.156 -0.2530 -0.6454 -0.8822
  222MOL   O14935951   5.831   2.487   6.215  0.3161 -0.0152  0.0998
  222MOL   H15035952   5.780   2.700   6.345 -2.6917 -1.9792 -2.0413
  222MOL   H15135953   5.890   2.827   6.324 -1.1556  2.6440 -1.9768
  222MOL   H15235954   5.966   2.759   6.113 -0.9189  1.8428 -0.2372
  222MOL   H15335955   5.810   2.706   6.060 -0.0157 -1.1740 -0.1081
  222MOL   C15435956   6.041   2.515   6.098 -0.3827  1.2409 -0.1087
  222MOL   C15535957   6.070   2.361   6.096 -0.1060 -0.2634  0.1811
  222MOL   C15635958   6.174   2.308   6.187 -0.1933 -0.4031 -0.4880
  222MOL   O15735959   6.134   2.255   6.291 -0.2889 -0.0864  0.1246
  222MOL   H15835960   6.121   2.564   6.154  3.0279 -0.4665 -3.3129
  222MOL   H15935961   6.053   2.544   5.994 -1.0112 -0.2323 -0.5965
  222MOL   H16035962   6.090   2.331   5.993  0.5505 -2.6483  0.9807
  222MOL   H16135963   5.975   2.318   6.127 -0.4249 -0.8761 -1.5781
  222MOL   H16235964   6.276   2.334   6.159 -0.8861  2.0505 -0.7982
  223MOL     C135965   4.447   6.076   1.105 -0.6235  0.2745  0.3340
  223MOL     C235966   4.408   6.206   1.181 -1.1261  0.3662  0.2213
  223MOL     C335967   4.270   6.241   1.145  0.0441  0.0066  0.5968
  223MOL     O435968   4.222   6.203   1.036 -0.0170  0.1742 -0.0550
  223MOL     H535969   4.537   6.026   1.142 -1.1524 -1.0977 -0.2016
  223MOL     H635970   4.367   6.003   1.108  0.4068 -0.8525  0.6652
  223MOL     H735971   4.478   6.282   1.145 -1.3397 -0.5373 -2.2344
  223MOL     H835972   4.421   6.197   1.288 -1.9776  0.2835  0.3198
  223MOL     H935973   4.471   6.099   1.002 -0.7913 -2.7131 -0.4179
  223MOL    C1035974   4.186   6.341   1.233  0.3287  0.3050 -0.0983
  223MOL    C1135975   4.034   6.329   1.201 -0.2847 -0.3180 -0.5465
  223MOL    C1235976   3.979   6.422   1.085  0.3260  0.1614  0.3092
  223MOL    O1335977   4.015   6.542   1.071 -0.1441 -0.5434  0.2092
  223MOL    H1435978   4.213   6.446   1.224  0.4530  0.3077  0.2720
  223MOL    H1535979   4.212   6.314   1.336  1.2105 -1.0202 -0.6473
  223MOL    H1635980   3.978   6.360   1.290  1.1638 -2.2626  1.0915
  223MOL    H1735981   4.004   6.225   1.186 -2.1932  0.3370 -1.4413
  223MOL    C1835982   3.875   6.351   0.993  0.6993 -0.6429 -0.4230
  223MOL    C1935983   3.944   6.311   0.867  0.8383 -0.2596 -0.5000
  223MOL    C2035984   3.899   6.390   0.747  0.4605 -0.3001 -0.2266
  223MOL    O2135985   3.860   6.513   0.756 -0.2420  0.2778 -0.6174
  223MOL    H2235986   3.797   6.427   0.982  0.3561 -0.9183  0.0966
  223MOL    H2335987   3.823   6.262   1.027 -1.5803 -0.3805 -3.0655
  223MOL    H2435988   3.923   6.206   0.846  0.7037 -0.2060 -0.6324
  223MOL    H2535989   4.053   6.317   0.865  0.7763  0.4866 -2.1601
  223MOL    C2635990   3.888   6.320   0.612 -0.1680 -0.6377 -0.2671
  223MOL    C2735991   3.846   6.417   0.497  0.2780 -0.8507 -0.1504
  223MOL    C2835992   3.821   6.340   0.366  0.2099 -0.2307  0.9902
  223MOL    O2935993   3.900   6.254   0.325 -0.1290  0.1755  0.2101
  223MOL    H3035994   3.808   6.246   0.618  1.5175 -2.5232 -0.6541
  223MOL    H3135995   3.980   6.273   0.579  0.3698  1.1490 -1.3778
  223MOL    H3235996   3.922   6.493   0.477  1.5120 -2.0061  0.0832
  223MOL    H3335997   3.760   6.476   0.530 -0.0124 -0.3735 -1.7190
  223MOL    C3435998   3.681   6.356   0.305  0.1514 -0.0814 -0.0494
  223MOL    C3535999   3.694   6.381   0.161  0.1960 -0.7535  0.3400
  223MOL    C3636000   3.689   6.525   0.120 -0.5254 -0.2358 -0.0517
  223MOL    O3736001   3.703   6.611   0.198 -0.2192 -0.4631 -0.3134
  223MOL    H3836002   3.622   6.441   0.341  0.4926 -0.7183  2.0589
  223MOL    H3936003   3.638   6.257   0.319 -2.4775  0.9560 -0.4728
  223MOL    H4036004   3.610   6.329   0.117 -1.2118  0.6430  1.3062
  223MOL    H4136005   3.786   6.346   0.115 -1.1030  0.5587 -3.3835
  223MOL    C4236006   3.664   6.551   7.829  0.6258  0.2513  0.3392
  223MOL    C4336007   3.728   6.680   7.780 -0.2482 -0.0226 -0.9312
  223MOL    C4436008   3.800   6.678   7.647  0.3591 -0.0341 -0.0352
  223MOL    O4536009   3.874   6.583   7.621  0.2886 -0.1661 -0.0213
  223MOL    H4636010   3.558   6.545   7.805  0.4426  0.7713  0.9980
  223MOL    H4736011   3.724   6.481   7.772 -0.9654  0.4696 -1.6563
  223MOL    H4836012   3.800   6.711   7.857 -1.0659  1.2258 -0.6498
  223MOL    H4936013   3.654   6.758   7.799 -2.7145 -2.6737  0.7084
  223MOL    C5036014   3.795   6.808   7.560  0.0724  0.4498 -0.7378
  223MOL    C5136015   3.859   6.933   7.634  0.4012  0.0729 -0.7190
  223MOL    C5236016   3.910   7.041   7.524 -0.6789  0.4312  0.1054
  223MOL    O5336017   3.932   7.012   7.408  0.0254 -0.5778 -0.4723
  223MOL    H5436018   3.702   6.825   7.507  0.1177  0.1993 -0.8943
  223MOL    H5536019   3.860   6.788   7.475 -0.8468 -3.2906 -0.6399
  223MOL    H5636020   3.945   6.897   7.691  0.5557 -0.1271 -1.0767
  223MOL    H5736021   3.791   6.985   7.701  0.6454 -0.6430  0.0864
  223MOL    C5836022   3.960   7.166   7.581  0.4072 -0.6270  0.0476
  223MOL    C5936023   3.989   7.271   7.467 -0.1441  0.1169 -0.9302
  223MOL    C6036024   3.866   7.355   7.441 -1.0711 -0.2252 -0.2163
  223MOL    O6136025   3.850   7.450   7.510 -0.5073 -0.6384 -0.0510
  223MOL    H6236026   4.055   7.144   7.630  0.3690  3.0511  1.9555
  223MOL    H6336027   3.893   7.199   7.660 -1.2863 -2.3856 -0.6114
  223MOL    H6436028   4.029   7.225   7.377 -0.2882 -2.0919  0.1042
  223MOL    H6536029   4.072   7.333   7.501 -0.0413 -1.0391  1.0022
  223MOL    C6636030   3.768   7.294   7.339  0.0070  0.1614 -0.2965
  223MOL    C6736031   3.627   7.372   7.333 -0.3183 -0.4491  0.0780
  223MOL    C6836032   3.516   7.295   7.402  0.6053 -0.8584  0.0778
  223MOL    O6936033   3.507   7.296   7.524 -0.2934 -0.2144 -0.0968
  223MOL    H7036034   3.752   7.187   7.349  0.9861 -0.0157 -0.5948
  223MOL    H7136035   3.830   7.302   7.249  0.5242 -2.8054 -0.2375
  223MOL    H7236036   3.592   7.381   7.230 -1.1654  1.1323  0.4948
  223MOL    H7336037   3.636   7.473   7.373  1.2327 -0.0748 -1.1049
  223MOL    C7436038   3.444   7.191   7.319 -0.2368 -0.5858 -0.1340
  223MOL    C7536039   3.347   7.099   7.400 -0.0481  0.2984  0.8318
  223MOL    C7636040   3.413   6.956   7.417 -0.0201  0.1275  0.1692
  223MOL    O7736041   3.516   6.921   7.360  0.9021 -0.2169  0.0793
  223MOL    H7836042   3.521   7.136   7.266  0.9091  1.8420 -1.0671
  223MOL    H7936043   3.383   7.254   7.254  0.2888  2.6489  2.3205
  223MOL    H8036044   3.253   7.094   7.346 -0.3554  1.4623  1.2477
  223MOL    H8136045   3.327   7.130   7.503 -1.4994 -0.9315  0.9293
  223MOL    C8236046   3.336   6.855   7.505  0.3140  0.3809 -0.3627
  223MOL    C8336047   3.417   6.835   7.638 -0.1327  0.1405 -0.4444
  223MOL    C8436048   3.368   6.924   7.753  0.8471 -0.5048  0.1934
  223MOL    O8536049   3.359   7.044   7.743  0.1985  0.6832 -0.3796
  223MOL    H8636050   3.333   6.759   7.454  2.8285  0.5087 -0.8261
  223MOL    H8736051   3.234   6.886   7.527 -0.0448 -1.0911  0.0284
  223MOL    H8836052   3.517   6.869   7.611 -0.7063  1.2762 -1.1356
  223MOL    H8936053   3.427   6.732   7.675 -2.3853  0.1838  0.3689
  223MOL    C9036054   3.354   6.857   0.032 -0.0631 -0.3837 -0.0480
  223MOL    C9136055   3.337   6.956   0.147 -0.4497  0.4724 -0.0853
  223MOL    C9236056   3.470   7.031   0.162 -0.0314 -0.6150  0.1929
  223MOL    O9336057   3.582   6.970   0.177 -0.3379 -0.8435  0.2553
  223MOL    H9436058   3.432   6.782   0.045 -0.5126 -0.5449  1.7726
  223MOL    H9536059   3.263   6.796   0.023 -0.6830  0.4029  0.8150
  223MOL    H9636060   3.309   6.898   0.235 -0.3945  1.2599  0.4608
  223MOL    H9736061   3.259   7.030   0.133  0.1502  1.1735  0.2044
  223MOL    C9836062   3.450   7.185   0.170 -0.3179  0.1002 -0.2822
  223MOL    C9936063   3.580   7.251   0.116  0.3674  0.5608  0.4575
  223MOL   C10036064   3.548   7.367   0.032  0.1040 -0.1630  0.6821
  223MOL   O10136065   3.440   7.423   0.044  0.3334  0.2430 -0.5351
  223MOL   H10236066   3.425   7.212   0.272  0.3673 -1.6786  0.3701
  223MOL   H10336067   3.364   7.206   0.106  1.4516 -0.0375 -2.7921
  223MOL   H10436068   3.644   7.184   0.060  1.6366  3.5265 -1.7241
  223MOL   H10536069   3.643   7.281   0.199  0.1478  0.1194  0.7909
  223MOL   C10636070   3.650   7.400   7.785  0.6182  0.3033 -0.6816
  223MOL   C10736071   3.614   7.531   7.707 -0.2204 -1.0642 -0.1424
  223MOL   C10836072   3.700   7.656   7.744 -0.5946 -0.5350 -0.3657
  223MOL   O10936073   3.737   7.674   7.858 -0.1315  0.2231  0.3335
  223MOL   H11036074   3.676   7.315   7.721  1.2528 -1.0960  1.4049
  223MOL   H11136075   3.733   7.419   7.852  0.0561  0.9991 -0.1761
  223MOL   H11236076   3.512   7.569   7.711  0.5484  0.8295  2.2250
  223MOL   H11336077   3.635   7.516   7.601 -1.8101 -0.9066 -0.4991
  223MOL   C11436078   3.721   7.758   7.630  0.8986 -0.1871 -0.0393
  223MOL   C11536079   3.711   0.050   7.673 -0.1275 -0.5566 -0.2390
  223MOL   C11636080   3.654   0.141   7.568 -0.3866  0.3665  0.5225
  223MOL   O11736081   3.625   0.107   7.453  0.6925  0.1029  0.0494
  223MOL   H11836082   3.640   7.744   7.558  0.8730 -0.7912  0.1038
  223MOL   H11936083   3.808   7.740   7.566  0.5421 -0.6780 -0.3942
  223MOL   H12036084   3.813   0.079   7.701 -0.1416  0.5340 -1.2672
  223MOL   H12136085   3.639   0.056   7.754 -2.2207 -0.2124 -2.0739
  223MOL   C12236086   3.654   0.291   7.597  0.0349 -0.0392  0.7781
  223MOL   C12336087   3.578   0.385   7.498  0.7484  0.1597 -0.5181
  223MOL   C12436088   3.429   0.410   7.528 -1.7777 -0.1446 -0.4235
  223MOL   O12536089   3.348   0.319   7.519 -0.3118  0.0341 -0.3272
  223MOL   H12636090   3.759   0.316   7.603 -0.0523  0.1984  1.3536
  223MOL   H12736091   3.627   0.311   7.700  2.7518 -1.8274  1.8768
  223MOL   H12836092   3.588   0.357   7.393  0.7033 -1.7360 -0.0322
  223MOL   H12936093   3.620   0.486   7.504 -0.6663  0.7894 -0.7927
  223MOL   C13036094   3.390   0.551   7.583 -0.2882 -0.1256 -0.2682
  223MOL   C13136095   3.410   0.664   7.478 -0.1021 -0.0458  0.4691
  223MOL   C13236096   3.286   0.736   7.438  0.2129 -0.2725 -0.0157
  223MOL   O13336097   3.176   0.702   7.475  0.4102 -0.4886  0.5492
  223MOL   H13436098   3.453   0.575   7.669  0.1265 -2.8521  0.2549
  223MOL   H13536099   3.288   0.555   7.621  0.5921  3.9698  1.9061
  223MOL   H13636100   3.456   0.612   7.394  1.3466  1.7410  0.1302
  223MOL   H13736101   3.487   0.733   7.512  0.6719 -0.5191 -0.3024
  223MOL   C13836102   3.316   0.863   7.355  0.3633 -0.1557 -0.2185
  223MOL   C13936103   3.197   0.951   7.330  0.3046 -0.9453  0.3285
  223MOL   C14036104   3.179   1.015   7.193 -0.5331  1.2042  0.1437
  223MOL   O14136105   3.280   1.049   7.125 -0.3378 -0.3670 -0.4218
  223MOL   H14236106   3.365   0.832   7.263  2.1309  0.0023  0.6405
  223MOL   H14336107   3.395   0.917   7.407  0.2137 -0.1061 -0.0436
  223MOL   H14436108   3.187   1.031   7.403 -0.0119  1.3315 -2.1320
  223MOL   H14536109   3.108   0.889   7.347 -1.3006  0.6508 -1.9414
  223MOL   C14636110   3.037   1.034   7.156 -0.8997 -0.3757  0.0556
  223MOL   C14736111   3.015   1.146   7.054  0.8437 -0.4496  0.4199
  223MOL   C14836112   2.922   1.257   7.098 -0.0520  0.1182  0.1413
  223MOL   O14936113   2.856   1.249   7.200 -0.1153  0.0062  0.6818
  223MOL   H15036114   2.990   1.064   7.250 -0.8427 -2.0175  0.6150
  223MOL   H15136115   2.999   0.940   7.115  0.9597 -0.8120 -0.7344
  223MOL   H15236116   2.971   1.092   6.970 -2.4244  1.1443  1.0608
  223MOL   H15336117   3.105   1.193   7.016 -1.1074  0.0268 -3.8266
  223MOL   C15436118   2.919   1.378   7.002  0.6752  0.1620  0.2327
  223MOL   C15536119   2.844   1.501   7.059  0.7158  0.4863 -0.2675
  223MOL   C15636120   2.942   1.613   7.088 -0.4195 -0.4929 -0.5407
  223MOL   O15736121   3.044   1.624   7.014 -0.0781 -0.3884 -0.1001
  223MOL   H15836122   2.878   1.354   6.904  3.0642  0.4857 -0.8666
  223MOL   H15936123   3.022   1.399   6.974  0.7292 -1.5591 -0.9509
  223MOL   H16036124   2.787   1.481   7.150  0.5121 -1.4364 -0.7867
  223MOL   H16136125   2.771   1.545   6.990  0.1575 -1.1083 -0.7138
  223MOL   H16236126   2.920   1.668   7.179  0.8518 -0.3514 -0.3090
  224MOL     C136127   6.691   0.252   1.919 -0.4067 -0.2376  0.1149
  224MOL     C236128   6.600   0.186   1.819  0.3047 -0.0024  0.3532
  224MOL     C336129   6.673   0.133   1.699  0.2507 -0.0723  0.0066
  224MOL     O436130   6.663   0.199   1.598 -0.0465 -0.2730 -0.1487
  224MOL     H536131   6.632   0.288   2.003 -0.5378  1.6340 -0.7545
  224MOL     H636132   6.769   0.191   1.963 -0.7820 -0.2801  0.7256
  224MOL     H736133   6.529   0.260   1.780 -0.8308 -1.9465 -1.3464
  224MOL     H836134   6.546   0.104   1.867 -1.2899  0.6453 -0.2866
  224MOL     H936135   6.727   0.345   1.877 -2.7343 -0.3769 -2.3896
  224MOL    C1036136   6.754   0.002   1.705  0.0276  0.1901  0.2977
  224MOL    C1136137   6.849   7.837   1.581  0.5027  0.3878  0.3038
  224MOL    C1236138   6.973   0.065   1.591 -0.0793  0.2752 -0.4396
  224MOL    O1336139   6.990   0.157   1.671  0.6713 -0.5294 -0.4062
  224MOL    H1436140   6.681   7.780   1.699  0.4493 -0.2049  0.3702
  224MOL    H1536141   6.811   0.006   1.798 -1.6269  0.2923  1.3345
  224MOL    H1636142   6.809   7.857   1.481 -1.3039 -0.4907  0.8280
  224MOL    H1736143   6.875   7.731   1.585 -0.2582  0.1647 -0.5435
  224MOL    C1836144   7.083   0.031   1.504 -0.4169 -0.1306 -0.0084
  224MOL    C1936145   7.215   0.005   1.583  0.1426  0.2409  0.3821
  224MOL    C2036146   7.233   7.717   1.625 -0.3498  0.1407 -0.5128
  224MOL    O2136147   7.163   7.628   1.588  0.2255  0.0847 -0.3171
  224MOL    H2236148   7.088   0.111   1.429  2.4330  1.5517  1.8750
  224MOL    H2336149   7.055   7.800   1.450  0.5233  0.5342 -1.6709
  224MOL    H2436150   7.219   0.067   1.672 -2.2113 -0.0957  0.7500
  224MOL    H2536151   7.298   0.038   1.521 -1.0973  0.0144 -1.4558
  224MOL    C2636152   7.340   7.693   1.734  0.2892  0.4359  0.7563
  224MOL    C2736153   7.429   7.568   1.686  0.0372 -0.4615  0.3863
  224MOL    C2836154   7.465   7.488   1.806 -0.2266  0.1513 -0.3553
  224MOL    O2936155   7.525   7.548   1.897 -0.0414  0.4874 -0.5144
  224MOL    H3036156   7.284   7.675   1.826 -1.9215 -0.6885 -0.7569
  224MOL    H3136157   7.396   7.786   1.750 -1.0024  1.5446 -0.9333
  224MOL    H3236158   7.512   7.612   1.631  0.1321 -0.0353  0.8675
  224MOL    H3336159   7.387   7.500   1.612  0.1049  1.4744 -1.4748
  224MOL    C3436160   7.431   7.337   1.809  0.3963  0.2983 -0.6000
  224MOL    C3536161   7.460   7.256   1.945  0.1642  0.2125 -0.6328
  224MOL    C3636162   7.439   7.107   1.931 -0.3771 -0.1588  0.3130
  224MOL    O3736163   7.361   7.061   1.848 -0.1161 -0.1254  0.2751
  224MOL    H3836164   7.477   7.285   1.725 -0.6137 -1.8888  0.1525
  224MOL    H3936165   7.326   7.325   1.781  1.0719  1.2633 -3.8797
  224MOL    H4036166   7.408   7.284   2.036 -0.2750 -0.2533 -0.7392
  224MOL    H4136167   7.567   7.258   1.967  0.3006 -2.4636 -0.9446
  224MOL    C4236168   7.521   7.019   2.022 -0.4877  0.0698 -0.3008
  224MOL    C4336169   7.479   6.869   2.020 -0.4192 -0.2397 -0.0173
  224MOL    C4436170   7.596   6.766   2.014  0.2047 -0.2072 -0.1039
  224MOL    O4536171   7.685   6.786   1.938  0.1814  0.1466 -0.3672
  224MOL    H4636172   7.499   7.062   2.119  0.3107  0.0681 -0.1203
  224MOL    H4736173   7.623   7.038   1.987 -1.0498  1.0971 -1.4309
  224MOL    H4836174   7.423   6.852   1.928  2.0389  2.1812 -2.0696
  224MOL    H4936175   7.417   6.849   2.107  0.3426  0.2821  0.6563
  224MOL    C5036176   7.602   6.661   2.120  0.3419  0.3763 -0.0350
  224MOL    C5136177   7.671   6.535   2.073 -0.1048  0.0541 -0.6346
  224MOL    C5236178   7.809   6.512   2.136  0.0178  0.1380 -0.0468
  224MOL    O5336179   0.005   6.589   2.211  0.3427 -0.1087 -0.0302
  224MOL    H5436180   7.499   6.631   2.139  0.9779 -0.4973  2.1804
  224MOL    H5536181   7.643   6.690   2.217 -1.9602 -0.0173  1.0988
  224MOL    H5636182   7.695   6.535   1.967  0.9375  0.0550 -0.4063
  224MOL    H5736183   7.595   6.458   2.086  0.4675 -0.2875  0.8328
  224MOL    C5836184   0.018   6.375   2.102 -0.4151  0.2122  0.0443
  224MOL    C5936185   0.092   6.310   2.223  0.7787 -0.4634  0.1336
  224MOL    C6036186   0.110   6.160   2.218  0.0622 -0.1658 -0.4468
  224MOL    O6136187   0.069   6.093   2.315 -0.2802 -0.2304  0.6237
  224MOL    H6236188   0.086   6.392   2.018 -2.4157  0.4468 -1.5767
  224MOL    H6336189   7.805   6.295   2.088  0.0815 -0.1054 -0.7787
  224MOL    H6436190   0.038   6.337   2.314 -1.8931 -0.5999 -1.3650
  224MOL    H6536191   0.187   6.359   2.244  0.8957 -1.2228  1.4456
  224MOL    C6636192   0.170   6.098   2.099 -0.1762 -0.1211 -0.2531
  224MOL    C6736193   0.166   5.942   2.107  0.2003  0.3776  0.3022
  224MOL    C6836194   0.032   5.894   2.053 -0.7390  0.6254 -0.2007
  224MOL    O6936195   0.013   5.884   1.931 -0.0758  0.3798 -0.2948
  224MOL    H7036196   0.273   6.133   2.097 -0.7085  1.5950  1.2034
  224MOL    H7136197   0.127   6.122   2.002 -0.0795 -1.5511 -0.6669
  224MOL    H7236198   0.194   5.894   2.201  1.3003  0.1200 -0.1546
  224MOL    H7336199   0.249   5.899   2.050 -0.8203  2.0611 -2.5241
  224MOL    C7436200   7.790   5.841   2.154 -0.1945 -0.0043 -0.2991
  224MOL    C7536201   7.652   5.909   2.127 -0.0125 -0.4603  0.4300
  224MOL    C7636202   7.553   5.807   2.079  0.7154  0.0888  0.2266
  224MOL    O7736203   7.585   5.701   2.035  0.2618  0.0918  0.1010
  224MOL    H7836204   7.828   5.879   2.249 -0.6677 -1.9455  0.6929
  224MOL    H7936205   7.784   5.732   2.148 -0.4649  0.0973 -2.1433
  224MOL    H8036206   7.675   5.978   2.045  1.4016 -1.1544  0.2239
  224MOL    H8136207   7.606   5.962   2.210 -0.9331 -3.0287  1.6070
  224MOL    C8236208   7.406   5.848   2.070  0.5567  0.3066  0.0286
  224MOL    C8336209   7.308   5.761   1.989  0.4606  0.0843 -0.0820
  224MOL    C8436210   7.295   5.812   1.846  0.3833  0.1681 -1.0665
  224MOL    O8536211   7.343   5.924   1.811 -0.1001  0.3494 -0.0748
  224MOL    H8636212   7.412   5.948   2.029 -1.1411  0.0451 -0.9316
  224MOL    H8736213   7.360   5.857   2.169 -1.3436  3.3481 -1.0725
  224MOL    H8836214   7.213   5.777   2.041  0.2415  1.8298 -0.9772
  224MOL    H8936215   7.329   5.655   2.003 -1.1075 -0.2214  0.1485
  224MOL    C9036216   7.226   5.709   1.749  0.8358  0.0837  0.2416
  224MOL    C9136217   7.254   5.754   1.610 -0.8386  0.0436  0.1211
  224MOL    C9236218   7.366   5.677   1.534  0.5408 -0.9337 -0.2898
  224MOL    O9336219   7.337   5.605   1.437 -0.2527 -0.6196  0.0904
  224MOL    H9436220   7.122   5.702   1.781  1.0933 -2.3278  0.5861
  224MOL    H9536221   7.262   5.607   1.760  1.5293  0.3718  0.7180
  224MOL    H9636222   7.274   5.860   1.593 -0.2501 -0.0112  0.4483
  224MOL    H9736223   7.177   5.737   1.535  0.0556  2.0678 -1.3024
  224MOL    C9836224   7.509   5.715   1.565 -0.1095 -0.5594  0.4045
  224MOL    C9936225   7.559   5.609   1.666 -0.2635 -0.0190 -0.0786
  224MOL   C10036226   7.708   5.584   1.657  0.3652 -0.3811  0.0333
  224MOL   O10136227   7.757   5.568   1.546 -0.1990  0.3858 -0.4701
  224MOL   H10236228   7.521   5.816   1.605  0.0166 -0.5525  0.3482
  224MOL   H10336229   7.567   5.717   1.473  1.1635  0.8419  1.2018
  224MOL   H10436230   7.511   5.516   1.638 -1.0582  0.7044 -1.1722
  224MOL   H10536231   7.525   5.630   1.768  3.6353 -0.1244  1.3300
  224MOL   C10636232   7.789   5.564   1.780 -0.8725 -0.2304  1.1450
  224MOL   C10736233   0.088   5.581   1.764  0.7203 -0.5074 -0.3118
  224MOL   C10836234   0.159   5.528   1.887 -0.4902 -0.3932 -0.3739
  224MOL   O10936235   0.113   5.440   1.954 -0.2074  0.3210  0.6900
  224MOL   H11036236   7.771   5.461   1.810  2.5983 -1.3488 -0.2723
  224MOL   H11136237   7.756   5.643   1.847 -1.7900  1.4460 -1.2086
  224MOL   H11236238   0.110   5.688   1.764 -1.9516  0.0944 -0.0150
  224MOL   H11336239   0.125   5.535   1.673  1.1016  0.2832 -0.5607
  224MOL   C11436240   0.291   5.595   1.931 -0.6346 -0.6551 -0.1980
  224MOL   C11536241   0.400   5.492   1.916  0.4050  0.4845 -0.0887
  224MOL   C11636242   0.510   5.497   2.019  0.2340 -0.2361  0.4066
  224MOL   O11736243   0.518   5.600   2.086 -0.5577  0.1278  0.0999
  224MOL   H11836244   0.289   5.632   2.034  1.6498  1.3058 -0.7922
  224MOL   H11936245   0.312   5.686   1.874  2.7208 -1.4582 -0.3281
  224MOL   H12036246   0.436   5.491   1.813  0.9313  0.3319  0.1012
  224MOL   H12136247   0.363   5.392   1.938 -1.4746  1.0069 -0.7404
  224MOL   C12236248   0.633   5.410   2.021  0.6680  0.4510  0.1875
  224MOL   C12336249   0.764   5.486   2.044 -0.3510  0.2789 -0.0757
  224MOL   C12436250   0.876   5.397   2.083 -0.3305 -0.2975 -0.0892
  224MOL   O12536251   0.879   5.275   2.053  0.2942  0.0182  0.6692
  224MOL   H12636252   0.629   5.363   1.922 -2.6071  1.0821 -0.0451
  224MOL   H12736253   0.619   5.330   2.093  0.5064  2.4416  2.4326
  224MOL   H12836254   0.768   5.558   2.125  0.5582 -0.5688  0.6434
  224MOL   H12936255   0.782   5.544   1.953  0.1429  5.0091  2.8598
  224MOL   C13036256   0.996   5.456   2.159  0.6118 -0.3460 -0.5472
  224MOL   C13136257   1.067   5.354   2.247  0.0322  0.3516 -0.5874
  224MOL   C13236258   1.152   5.414   2.361 -0.0903 -0.0837  0.3564
  224MOL   O13336259   1.152   5.527   2.399  0.0860  0.0272 -0.4187
  224MOL   H13436260   0.957   5.537   2.221  2.0835  0.7267 -0.9984
  224MOL   H13536261   1.059   5.503   2.084 -0.3466  1.4080 -0.2855
  224MOL   H13636262   1.134   5.295   2.185  3.6237  1.5516  1.9291
  224MOL   H13736263   0.989   5.292   2.291  1.2072  0.4158  1.6645
  224MOL   C13836264   1.245   5.305   2.416  0.5366 -0.3383  0.4481
  224MOL   C13936265   1.328   5.344   2.538 -0.3302 -0.0868 -0.1673
  224MOL   C14036266   1.270   5.293   2.669  0.1550  0.3893  0.3937
  224MOL   O14136267   1.154   5.252   2.666  0.1082  0.7147  0.4373
  224MOL   H14236268   1.310   5.265   2.339  0.2488  1.1158 -0.5647
  224MOL   H14336269   1.194   5.211   2.438  1.6474 -0.8857  0.7223
  224MOL   H14436270   1.350   5.450   2.547  1.9767 -0.6997  2.1052
  224MOL   H14536271   1.425   5.296   2.522 -0.7113 -1.0411  0.3487
  224MOL   C14636272   1.349   5.304   2.799  0.4422  0.0697 -0.3356
  224MOL   C14736273   1.265   5.261   2.925  0.0065 -0.3052  0.6896
  224MOL   C14836274   1.319   5.322   3.052  0.2802 -1.0018  0.3797
  224MOL   O14936275   1.348   5.447   3.061 -0.1662  0.0091  0.3651
  224MOL   H15036276   1.388   5.406   2.801  0.7106 -0.0412  0.1798
  224MOL   H15136277   1.439   5.244   2.794  0.6514  0.4636 -1.5531
  224MOL   H15236278   1.265   5.153   2.939 -0.3415 -0.4590 -0.4366
  224MOL   H15336279   1.163   5.295   2.904 -0.1282 -1.2575 -0.2478
  224MOL   C15436280   1.340   5.226   3.170 -0.4011 -0.5429 -0.3185
  224MOL   C15536281   1.342   5.295   3.307  0.0332 -0.0761 -0.8670
  224MOL   C15636282   1.474   5.279   3.378  0.1007  0.6257 -0.4571
  224MOL   O15736283   1.523   5.167   3.399  0.9942  0.8341 -0.1338
  224MOL   H15836284   1.429   5.164   3.156  1.3935  2.2179 -1.6686
  224MOL   H15936285   1.258   5.157   3.151  0.2929 -0.8570 -2.3295
  224MOL   H16036286   1.263   5.269   3.378  0.9237 -0.0991  0.1229
  224MOL   H16136287   1.332   5.404   3.299  2.9649  0.4089  1.4324
  224MOL   H16236288   1.531   5.369   3.401 -0.7690  1.0131  0.1866
  225MOL     C136289   2.732   5.454   4.866 -0.8048 -0.2241 -0.4918
  225MOL     C236290   2.825   5.492   4.988 -0.1735  0.1409 -0.2954
  225MOL     C336291   2.974   5.454   4.976 -0.4305 -0.0273  0.3611
  225MOL     O436292   3.017   5.387   4.883 -0.4777  0.0059  0.1204
  225MOL     H536293   2.646   5.520   4.863 -0.9384 -0.4558 -2.4552
  225MOL     H636294   2.781   5.455   4.768  2.0073 -1.8893  0.8270
  225MOL     H736295   2.800   5.433   5.076 -0.3592 -0.4160 -0.7180
  225MOL     H836296   2.819   5.599   5.010 -1.6064  0.4094 -1.8982
  225MOL     H936297   2.692   5.354   4.879 -1.1515 -0.1018 -0.6249
  225MOL    C1036298   3.072   5.506   5.080 -0.2578 -0.1092 -0.3713
  225MOL    C1136299   3.222   5.464   5.060 -0.1841 -0.0399  0.3532
  225MOL    C1236300   3.308   5.530   5.163 -0.5022  0.1704  0.0993
  225MOL    O1336301   3.272   5.636   5.217  0.4077 -0.2573 -0.7159
  225MOL    H1436302   3.036   5.490   5.182  0.2105 -0.3514 -0.2409
  225MOL    H1536303   3.069   5.614   5.068  0.0329 -0.1550 -0.8422
  225MOL    H1636304   3.245   5.501   4.960 -0.4023 -1.3342 -0.1903
  225MOL    H1736305   3.247   5.358   5.059  2.5876  0.5495  2.2872
  225MOL    C1836306   3.437   5.462   5.201  0.3944 -0.2127 -0.2241
  225MOL    C1936307   3.530   5.544   5.290  0.7879 -0.6262  0.0381
  225MOL    C2036308   3.662   5.592   5.226 -0.5526  0.5417 -0.2060
  225MOL    O2136309   3.724   5.527   5.137 -0.1440  0.4680 -0.8821
  225MOL    H2236310   3.496   5.423   5.118  1.4135 -2.2052  1.3889
  225MOL    H2336311   3.405   5.374   5.257 -0.0371 -1.4394 -2.3445
  225MOL    H2436312   3.556   5.484   5.378  0.1712 -0.0505  0.6209
  225MOL    H2536313   3.477   5.635   5.321 -0.2661 -1.6352  1.2478
  225MOL    C2636314   3.712   5.728   5.271  0.4193 -0.0599 -0.2621
  225MOL    C2736315   3.851   5.738   5.333 -0.2353 -0.1492  0.2114
  225MOL    C2836316   3.957   5.757   5.225  0.2448  0.3527  0.2471
  225MOL    O2936317   4.010   5.660   5.166  0.1370 -0.1597  0.2421
  225MOL    H3036318   3.645   5.773   5.345 -0.7347 -1.4617 -0.4309
  225MOL    H3136319   3.712   5.799   5.189  2.7494  1.6512  1.1512
  225MOL    H3236320   3.883   5.641   5.369 -1.0577 -0.9193 -1.0986
  225MOL    H3336321   3.864   5.817   5.408 -0.7523  0.9097 -0.7933
  225MOL    C3436322   3.992   5.898   5.196 -0.0313 -0.2030  0.4304
  225MOL    C3536323   4.092   5.904   5.086 -0.0675 -0.6483 -1.2485
  225MOL    C3636324   4.044   5.911   4.940  0.9079  0.6352 -0.4147
  225MOL    O3736325   3.921   5.907   4.910  0.3115  0.3905 -0.6953
  225MOL    H3836326   4.034   5.935   5.289 -2.4862  1.5930  0.8897
  225MOL    H3936327   3.907   5.963   5.172  1.3736  1.2944 -0.6156
  225MOL    H4036328   4.166   5.824   5.088  1.2355  0.5470 -0.7609
  225MOL    H4136329   4.148   5.996   5.101 -2.2335  0.2801  1.5518
  225MOL    C4236330   4.141   5.890   4.833 -0.3357 -0.1127  0.2977
  225MOL    C4336331   4.132   5.747   4.780 -0.2920 -0.0012  0.0052
  225MOL    C4436332   4.223   5.721   4.663 -0.0810  0.1248  0.5104
  225MOL    O4536333   4.329   5.784   4.649  0.5223  0.5442 -0.0358
  225MOL    H4636334   4.230   5.893   4.896  1.1705  3.3158 -1.8883
  225MOL    H4736335   4.136   5.964   4.753  0.3758 -0.5027 -0.1093
  225MOL    H4836336   4.038   5.743   4.725  0.4719 -0.2130 -1.3334
  225MOL    H4936337   4.140   5.671   4.857  1.2468 -0.3448 -0.4772
  225MOL    C5036338   4.194   5.606   4.571  0.2625 -0.3833  0.8407
  225MOL    C5136339   4.302   5.595   4.454 -0.4098  0.1455 -0.2473
  225MOL    C5236340   4.417   5.501   4.486  0.3352  0.6964 -0.6247
  225MOL    O5336341   4.441   5.454   4.599  0.4769 -0.2373  0.5140
  225MOL    H5436342   4.098   5.630   4.526  1.1284  1.3445 -0.1625
  225MOL    H5536343   4.172   5.512   4.621 -1.3431 -0.4289  0.0914
  225MOL    H5636344   4.354   5.682   4.413 -0.6696  1.3404  1.8750
  225MOL    H5736345   4.252   5.564   4.363  0.3591  0.7496 -0.8841
  225MOL    C5836346   4.496   5.458   4.361 -0.2366  0.0345 -0.1884
  225MOL    C5936347   4.595   5.341   4.379  0.1817  1.1276  0.1633
  225MOL    C6036348   4.628   5.280   4.248  0.4691 -0.2341  0.7881
  225MOL    O6136349   4.550   5.187   4.213 -0.0484 -0.7667  0.1739
  225MOL    H6236350   4.567   5.535   4.332 -0.2226  0.1998  0.2767
  225MOL    H6336351   4.425   5.438   4.281  0.0786 -0.7789 -0.2681
  225MOL    H6436352   4.564   5.255   4.439  1.0476 -0.1827 -1.2331
  225MOL    H6536353   4.684   5.377   4.431  0.6880 -2.1092  1.6300
  225MOL    C6636354   4.748   5.335   4.167  0.7147 -0.3364  0.2706
  225MOL    C6736355   4.761   5.271   4.026  0.3905 -0.0991 -0.3199
  225MOL    C6836356   4.769   5.381   3.923  0.3203  0.2014 -0.1629
  225MOL    O6936357   4.825   5.487   3.946  0.1328 -0.3020  0.9115
  225MOL    H7036358   4.832   5.314   4.233 -0.3193 -1.8187  1.1353
  225MOL    H7136359   4.768   5.441   4.156 -1.1437 -0.0266 -0.2221
  225MOL    H7236360   4.675   5.206   4.011  0.2703 -0.3893  1.5150
  225MOL    H7336361   4.847   5.204   4.036  1.8397  1.4610 -1.7896
  225MOL    C7436362   4.700   5.358   3.788  0.1089  0.4658 -0.1669
  225MOL    C7536363   4.766   5.427   3.674  0.3491  0.1401 -0.7079
  225MOL    C7636364   4.690   5.412   3.544  0.5154  0.5777  0.1320
  225MOL    O7736365   4.578   5.358   3.540 -0.1416 -0.2346  0.4782
  225MOL    H7836366   4.597   5.390   3.803 -0.0780  0.1755 -0.7732
  225MOL    H7936367   4.711   5.251   3.768 -1.7260  0.5343 -1.7276
  225MOL    H8036368   4.867   5.388   3.661  0.5332 -0.4176  2.0483
  225MOL    H8136369   4.788   5.532   3.694  1.3318 -0.1903 -0.0296
  225MOL    C8236370   4.757   5.448   3.408  0.0801 -1.0338 -0.2512
  225MOL    C8336371   4.670   5.415   3.284  0.5617  0.1466  0.4732
  225MOL    C8436372   4.681   5.273   3.238  0.1370  0.3742 -0.2821
  225MOL    O8536373   4.734   5.186   3.310  0.4620  0.4216  0.0263
  225MOL    H8636374   4.861   5.416   3.399 -0.3911 -2.0507 -2.3463
  225MOL    H8736375   4.774   5.555   3.420 -0.2928 -1.2822  2.7513
  225MOL    H8836376   4.700   5.487   3.208  2.3719  1.0750  2.0518
  225MOL    H8936377   4.566   5.435   3.310 -0.0509 -1.4121 -0.6409
  225MOL    C9036378   4.652   5.243   3.089 -0.2128  0.4417 -0.2577
  225MOL    C9136379   4.785   5.223   3.015 -0.2617 -0.0210  0.4532
  225MOL    C9236380   4.835   5.334   2.924 -0.1685  0.7214  0.3807
  225MOL    O9336381   4.763   5.430   2.889  0.0381  0.1786  0.2763
  225MOL    H9436382   4.588   5.317   3.040 -2.5639 -0.9234  0.6899
  225MOL    H9536383   4.602   5.147   3.075  2.2592 -0.9776  0.3913
  225MOL    H9636384   4.777   5.129   2.959 -2.8170 -0.8145  2.0720
  225MOL    H9736385   4.862   5.209   3.091 -0.4472  1.1144  0.8603
  225MOL    C9836386   4.976   5.322   2.884 -0.3049  0.1973  0.3540
  225MOL    C9936387   5.019   5.441   2.795 -0.0894  0.7370 -0.0240
  225MOL   C10036388   5.055   5.565   2.870 -0.0165 -0.8634  0.0676
  225MOL   O10136389   5.166   5.575   2.925 -0.5570 -0.5759 -0.1233
  225MOL   H10236390   4.993   5.228   2.832  1.5667  0.6289  0.1276
  225MOL   H10336391   5.030   5.308   2.977 -2.8872 -0.3723  1.7981
  225MOL   H10436392   4.948   5.454   2.714 -2.5199 -5.4434  0.8470
  225MOL   H10536393   5.114   5.415   2.748  0.7660  1.6203  1.1819
  225MOL   C10636394   4.952   5.687   2.866 -0.4912 -0.0465 -0.5525
  225MOL   C10736395   4.987   5.792   2.966  0.0521  0.0066  0.1172
  225MOL   C10836396   4.910   5.792   3.094  0.0457  1.1400  0.2888
  225MOL   O10936397   4.827   5.700   3.120 -0.5017  0.7925  0.3624
  225MOL   H11036398   4.859   5.635   2.887 -0.4249  0.0637  0.0256
  225MOL   H11136399   4.939   5.737   2.770  1.2895  2.2345  0.3423
  225MOL   H11236400   4.964   5.889   2.921 -0.6091  0.4063  1.2765
  225MOL   H11336401   5.093   5.799   2.991 -0.7289  0.5243  3.5234
  225MOL   C11436402   4.947   5.896   3.198  0.4387 -0.4206  0.0418
  225MOL   C11536403   4.872   5.880   3.326 -0.3806  0.6029 -0.1086
  225MOL   C11636404   4.930   5.783   3.423 -0.3562  0.0333  0.3110
  225MOL   O11736405   4.995   5.690   3.380  0.0183  0.7683  0.3116
  225MOL   H11836406   4.923   5.992   3.153  1.1534 -0.7003 -0.9645
  225MOL   H11936407   5.056   5.895   3.204  0.4391  1.3486  0.4821
  225MOL   H12036408   4.775   5.840   3.297  0.2064 -1.3613  0.6021
  225MOL   H12136409   4.865   5.978   3.374 -1.2471 -0.2147  1.4553
  225MOL   C12236410   4.891   5.800   3.574 -0.3066 -0.6852 -0.6087
  225MOL   C12336411   4.985   5.739   3.673  0.2152 -0.4751  0.5895
  225MOL   C12436412   4.972   5.794   3.817 -0.5654 -0.3079  0.1435
  225MOL   O12536413   4.873   5.850   3.856  0.0527  0.3706 -0.3404
  225MOL   H12636414   4.793   5.758   3.597  0.1792 -2.1252 -1.1077
  225MOL   H12736415   4.880   5.909   3.576 -1.6888 -0.8520  2.7382
  225MOL   H12836416   5.085   5.770   3.642  0.9298 -1.5937  1.6656
  225MOL   H12936417   4.974   5.630   3.674  0.0313 -0.4544  1.0272
  225MOL   C13036418   5.095   5.774   3.900 -0.3473  0.0953  0.8019
  225MOL   C13136419   5.092   5.845   4.041 -0.1637 -0.4745  0.5321
  225MOL   C13236420   5.048   5.753   4.155  0.0881  0.0700 -0.4997
  225MOL   O13336421   5.127   5.674   4.205  0.3680 -0.3836 -0.2114
  225MOL   H13436422   5.185   5.813   3.852 -0.0480 -1.3612  0.1598
  225MOL   H13536423   5.121   5.670   3.918  2.3102  0.6308  0.2716
  225MOL   H13636424   5.018   5.925   4.045  0.0138 -0.2308 -0.6739
  225MOL   H13736425   5.183   5.887   4.084 -0.3994  1.0996 -0.4366
  225MOL   C13836426   4.917   5.784   4.218 -0.8244 -0.6114  0.0744
  225MOL   C13936427   4.873   5.688   4.324 -0.5012 -0.7655 -0.0506
  225MOL   C14036428   4.759   5.742   4.406 -0.8496 -0.4815 -0.6032
  225MOL   O14136429   4.670   5.798   4.348  0.2146  0.1160  0.4199
  225MOL   H14236430   4.828   5.787   4.154 -0.6965 -0.8226 -0.1155
  225MOL   H14336431   4.909   5.883   4.263 -1.2890 -0.6227  0.0164
  225MOL   H14436432   4.960   5.693   4.389 -1.2544  0.7342  0.8669
  225MOL   H14536433   4.843   5.585   4.302 -1.5631 -0.7872  1.4197
  225MOL   C14636434   4.747   5.696   4.548  0.8120 -0.3233 -0.2290
  225MOL   C14736435   4.645   5.765   4.636  0.4067 -0.3687 -0.1618
  225MOL   C14836436   4.705   5.823   4.765  0.1309 -0.4461  0.0695
  225MOL   O14936437   4.825   5.850   4.778  0.2165  0.6740  0.0028
  225MOL   H15036438   4.845   5.687   4.595  1.4853  2.1045 -1.0992
  225MOL   H15136439   4.736   5.587   4.548 -1.3189 -0.1378  0.0988
  225MOL   H15236440   4.571   5.688   4.659  0.2759 -0.5647 -1.2154
  225MOL   H15336441   4.593   5.850   4.592 -0.7406 -1.6210 -1.2787
  225MOL   C15436442   4.608   5.853   4.876 -0.4242 -0.5007  0.5539
  225MOL   C15536443   4.666   5.855   5.024 -0.3474  0.4934 -0.8676
  225MOL   C15636444   4.572   5.926   5.123 -0.6994  0.4230  0.1405
  225MOL   O15736445   4.455   5.933   5.095 -0.1288  0.0154 -0.0502
  225MOL   H15836446   4.518   5.791   4.877 -0.2749 -0.7159  0.7213
  225MOL   H15936447   4.571   5.954   4.857  1.0571  0.0878  0.7802
  225MOL   H16036448   4.760   5.910   5.019 -0.4669  1.0872  2.5488
  225MOL   H16136449   4.679   5.752   5.059  0.0245  1.2474  1.2364
  225MOL   H16236450   4.619   5.963   5.214  0.6654  0.8996 -0.7426
  226MOL     C136451   1.595   6.119   3.459 -1.0293 -0.6949 -0.2869
  226MOL     C236452   1.530   6.243   3.395 -0.0662  0.2960 -0.0979
  226MOL     C336453   1.431   6.328   3.476 -0.4815 -0.7248  0.4879
  226MOL     O436454   1.466   6.354   3.593 -0.1356 -0.6168 -0.3274
  226MOL     H536455   1.627   6.047   3.383 -1.9774 -0.7673 -0.6260
  226MOL     H636456   1.674   6.155   3.525 -1.0592  1.1886 -1.2586
  226MOL     H736457   1.483   6.216   3.301 -1.2328 -0.2251  0.6292
  226MOL     H836458   1.609   6.309   3.360  1.1496 -1.7566 -1.3336
  226MOL     H936459   1.515   6.069   3.514 -0.5252  1.5065  2.5405
  226MOL    C1036460   1.293   6.352   3.423 -0.7143 -0.1003 -0.1683
  226MOL    C1136461   1.204   6.430   3.522 -0.3094 -0.4160 -0.3371
  226MOL    C1236462   1.200   6.577   3.497  0.3863 -0.6920 -0.5506
  226MOL    O1336463   1.263   6.626   3.406 -0.9541  0.1150 -0.0454
  226MOL    H1436464   1.241   6.256   3.419 -1.4754  0.3123 -0.4282
  226MOL    H1536465   1.299   6.403   3.327  1.7261  0.3234  0.1743
  226MOL    H1636466   1.226   6.397   3.624  0.3608  0.6655 -0.1244
  226MOL    H1736467   1.099   6.403   3.509 -0.7596  1.7604 -1.3798
  226MOL    C1836468   1.152   6.665   3.611  0.0872 -0.1623  0.9371
  226MOL    C1936469   1.152   6.816   3.588  0.5833  0.0449  0.2556
  226MOL    C2036470   1.019   6.885   3.577 -0.4863  0.1752  0.4631
  226MOL    O2136471   0.914   6.822   3.575  0.3953 -0.3298  0.4703
  226MOL    H2236472   1.210   6.637   3.699  0.2426  0.4846  1.0436
  226MOL    H2336473   1.054   6.626   3.640 -0.4113  0.8656  0.6657
  226MOL    H2436474   1.217   6.842   3.504 -0.3341  2.3170  0.2240
  226MOL    H2536475   1.205   6.849   3.677  0.0070  0.3453  0.4854
  226MOL    C2636476   1.022   7.039   3.587 -0.0369  0.2389  0.0140
  226MOL    C2736477   0.908   7.102   3.505  0.1081  0.4333 -0.1645
  226MOL    C2836478   0.941   7.224   3.425 -0.1209  0.3774 -0.5964
  226MOL    O2936479   1.043   7.231   3.351 -0.0058 -0.1502 -0.3953
  226MOL    H3036480   1.125   7.073   3.572 -0.0313 -0.0657 -0.6323
  226MOL    H3136481   1.017   7.073   3.691 -0.9061 -3.4569  1.2786
  226MOL    H3236482   0.828   7.123   3.576  0.2254 -0.9898  0.4075
  226MOL    H3336483   0.865   7.033   3.432 -0.9543  0.5158  0.3723
  226MOL    C3436484   0.834   7.331   3.412  0.0379 -0.2356  0.2649
  226MOL    C3536485   0.881   7.457   3.345  0.4191 -0.9694 -0.3300
  226MOL    C3636486   0.867   7.456   3.192  0.6183  0.2222  0.2115
  226MOL    O3736487   0.806   7.362   3.134  0.2089  0.4707  0.0092
  226MOL    H3836488   0.801   7.354   3.513 -0.3404 -1.8439  0.5271
  226MOL    H3936489   0.746   7.291   3.360 -0.2682 -0.0602  0.6429
  226MOL    H4036490   0.981   7.486   3.378  0.1942 -1.1429  0.5045
  226MOL    H4136491   0.819   7.538   3.385  2.0198 -0.4124  1.0807
  226MOL    C4236492   0.928   7.565   3.113 -0.0690 -0.0164  0.2967
  226MOL    C4336493   0.826   7.672   3.066  0.1837 -0.1971  0.8365
  226MOL    C4436494   0.900   7.797   3.020 -0.2831 -0.3448  0.7101
  226MOL    O4536495   0.977   0.001   3.094  0.4330  0.2022  0.2530
  226MOL    H4636496   0.997   7.533   3.035 -0.5125  1.8747 -0.8925
  226MOL    H4736497   1.000   7.595   3.189  1.9022 -1.0099 -1.1295
  226MOL    H4836498   0.765   7.704   3.150 -2.8012 -0.1123 -1.2968
  226MOL    H4936499   0.760   7.636   2.987 -0.1102 -3.1140  2.3573
  226MOL    C5036500   0.884   7.834   2.872 -0.3015  0.2578  0.2379
  226MOL    C5136501   1.010   7.832   2.784 -0.4980 -0.3833  0.3322
  226MOL    C5236502   1.063   7.693   2.759  0.1364  0.5920  0.0655
  226MOL    O5336503   0.982   7.602   2.728 -0.2642  0.1293  0.1529
  226MOL    H5436504   0.837   0.074   2.875  1.2776  0.9995  2.3916
  226MOL    H5536505   0.814   7.768   2.821  1.4229 -2.5591  1.3621
  226MOL    H5636506   1.087   0.040   2.823  0.5021 -0.1031 -2.0647
  226MOL    H5736507   0.969   0.021   2.695 -1.7407  0.8365  1.5214
  226MOL    C5836508   1.214   7.675   2.774  0.0427 -0.3822 -0.2437
  226MOL    C5936509   1.254   7.532   2.802 -0.1306  0.3157  0.0285
  226MOL    C6036510   1.232   7.481   2.943 -0.7497  0.8363 -0.2417
  226MOL    O6136511   1.243   7.555   3.036  0.3244 -0.2047  0.6984
  226MOL    H6236512   1.242   7.744   2.854 -2.0313  0.0717  0.1187
  226MOL    H6336513   1.256   7.710   2.680 -1.7075  1.7648 -0.2691
  226MOL    H6436514   1.360   7.527   2.779 -0.1525 -2.3603  0.3787
  226MOL    H6536515   1.198   7.466   2.736  0.0225  0.7500 -0.5390
  226MOL    C6636516   1.188   7.337   2.958 -0.0232  0.7420 -0.0630
  226MOL    C6736517   1.225   7.290   3.102  0.2498 -0.4001  0.5878
  226MOL    C6836518   1.287   7.155   3.097  0.8669 -0.3263 -0.3742
  226MOL    O6936519   1.384   7.136   3.023  0.6162 -0.3887  0.2217
  226MOL    H7036520   1.227   7.276   2.876 -1.5454 -2.6563  1.6165
  226MOL    H7136521   1.081   7.316   2.956 -0.3521  2.4759 -1.1023
  226MOL    H7236522   1.135   7.300   3.163  0.3363 -0.8045  0.7874
  226MOL    H7336523   1.297   7.358   3.148 -0.9069  1.1927  0.1003
  226MOL    C7436524   1.219   7.048   3.175  0.4086 -0.3411  0.0266
  226MOL    C7536525   1.270   6.901   3.171  0.2052  0.6202  0.3757
  226MOL    C7636526   1.401   6.886   3.251  0.2478 -0.0936  0.0483
  226MOL    O7736527   1.427   6.942   3.358 -0.7395 -0.2640  0.0365
  226MOL    H7836528   1.113   7.046   3.149  0.4937 -0.3417 -0.3195
  226MOL    H7936529   1.228   7.079   3.279 -2.3454 -0.1680  0.2457
  226MOL    H8036530   1.275   6.856   3.072 -0.1375 -0.3778  0.8083
  226MOL    H8136531   1.188   6.850   3.221  0.4993 -0.1987  0.0277
  226MOL    C8236532   1.509   6.806   3.183  0.3257  0.3464  0.3486
  226MOL    C8336533   1.633   6.777   3.277  0.1235 -0.2766 -0.4928
  226MOL    C8436534   1.763   6.848   3.235  1.0636 -0.3442  0.0463
  226MOL    O8536535   1.752   6.949   3.168 -0.0193  0.4338 -0.7339
  226MOL    H8636536   1.536   6.853   3.089 -0.0021 -1.6253 -0.7601
  226MOL    H8736537   1.472   6.711   3.144  0.2822  1.3417 -2.1194
  226MOL    H8836538   1.669   6.674   3.268 -0.5223 -0.4111 -1.6751
  226MOL    H8936539   1.608   6.795   3.382  3.4279  1.9754 -0.0109
  226MOL    C9036540   1.898   6.794   3.280 -0.0800  0.0512  0.7625
  226MOL    C9136541   2.014   6.879   3.225 -0.1095  0.3009 -0.5627
  226MOL    C9236542   2.061   6.832   3.085  0.5885 -0.7959 -0.2388
  226MOL    O9336543   1.979   6.781   3.008  0.2435 -0.1601 -0.2860
  226MOL    H9436544   1.910   6.691   3.247 -1.8488  0.5666 -1.6036
  226MOL    H9536545   1.888   6.780   3.388  0.7495  0.3469  0.8830
  226MOL    H9636546   2.100   6.864   3.291 -1.5754  2.8022  2.0328
  226MOL    H9736547   2.003   6.987   3.220 -1.5111  0.1809 -0.2327
  226MOL    C9836548   2.207   6.861   3.052 -0.1025 -0.1428  0.3108
  226MOL    C9936549   2.273   6.750   2.974  0.3745  0.4321 -0.1177
  226MOL   C10036550   2.339   6.773   2.843 -0.0517  0.0996  0.3315
  226MOL   O10136551   2.369   6.885   2.800  0.2689 -0.3415  0.0264
  226MOL   H10236552   2.266   6.878   3.142 -0.7359  1.6851  0.3910
  226MOL   H10336553   2.206   6.958   3.003 -0.2186  0.3768  1.3226
  226MOL   H10436554   2.205   6.664   2.970  1.8099 -0.8446  2.0113
  226MOL   H10536555   2.348   6.715   3.044  0.2325  0.9783  0.3120
  226MOL   C10636556   2.359   6.641   2.769  0.6648  0.5541  0.2409
  226MOL   C10736557   2.469   6.658   2.662  0.4447 -0.1140  0.8321
  226MOL   C10836558   2.603   6.607   2.717  0.1518  0.2128  0.4010
  226MOL   O10936559   2.609   6.516   2.807  0.4857  0.5786  0.6590
  226MOL   H11036560   2.268   6.592   2.735  0.4543  1.7517 -0.9215
  226MOL   H11136561   2.384   6.561   2.839 -2.7791 -0.9517 -0.1569
  226MOL   H11236562   2.461   6.754   2.612 -0.6700 -1.2651 -1.3065
  226MOL   H11336563   2.459   6.585   2.581  1.7090  0.7489 -0.1052
  226MOL   C11436564   2.733   6.673   2.671 -0.7887  0.4591 -0.5408
  226MOL   C11536565   2.859   6.621   2.748 -0.1030 -0.2540  0.5886
  226MOL   C11636566   2.996   6.664   2.687  0.3406 -0.5021  0.1941
  226MOL   O11736567   3.016   6.778   2.650 -0.1284  0.0857  0.3328
  226MOL   H11836568   2.719   6.781   2.683 -2.7706  0.1273  0.1960
  226MOL   H11936569   2.734   6.646   2.565 -0.2907  1.1797 -0.7351
  226MOL   H12036570   2.866   6.512   2.754 -0.8210 -0.3763 -0.5316
  226MOL   H12136571   2.864   6.654   2.851  1.9291  2.1876 -0.2525
  226MOL   C12236572   3.099   6.557   2.673  0.4153  0.1210 -0.1703
  226MOL   C12336573   3.245   6.603   2.673 -0.7716  0.3872  0.4904
  226MOL   C12436574   3.289   6.630   2.527  0.1600  0.0108 -0.0536
  226MOL   O12536575   3.210   6.614   2.432 -0.2625 -0.1486  0.6799
  226MOL   H12636576   3.077   6.489   2.590 -1.8195  1.8940 -1.0612
  226MOL   H12736577   3.103   6.488   2.757  0.6627  0.0062 -0.2741
  226MOL   H12836578   3.311   6.531   2.722  0.3764  1.1492  0.1021
  226MOL   H12936579   3.262   6.699   2.722  2.5506  0.2235 -0.2039
  226MOL   C13036580   3.432   6.700   2.517  0.3727  0.0909 -0.1193
  226MOL   C13136581   3.439   6.788   2.380  0.1768  0.2308 -0.5687
  226MOL   C13236582   3.475   6.699   2.267 -0.8854 -0.8439 -0.0844
  226MOL   O13336583   3.559   6.612   2.280  0.5636 -0.4995  0.0921
  226MOL   H13436584   3.519   6.635   2.521 -1.1971 -2.1106 -0.8040
  226MOL   H13536585   3.438   6.764   2.605 -3.0938 -0.1644  0.3732
  226MOL   H13636586   3.521   6.859   2.393  1.3035 -1.1784  0.2781
  226MOL   H13736587   3.353   6.853   2.361 -0.5404 -1.1817 -2.2612
  226MOL   C13836588   3.407   6.737   2.134  0.5656 -0.0556  0.4617
  226MOL   C13936589   3.489   6.676   2.008  0.4686 -0.3103  0.2196
  226MOL   C14036590   3.532   6.794   1.921  0.1131  0.3669 -0.2714
  226MOL   O14136591   3.626   6.862   1.954 -0.4945 -0.3457  0.7223
  226MOL   H14236592   3.391   6.844   2.121  0.3307 -0.0195  1.0309
  226MOL   H14336593   3.309   6.692   2.145  0.7648 -0.7956 -0.8074
  226MOL   H14436594   3.427   6.615   1.942  0.8180 -0.1276 -0.2859
  226MOL   H14536595   3.572   6.609   2.029  0.6828  0.3779  1.5543
  226MOL   C14636596   3.446   6.834   1.801  0.2985 -0.3450 -0.3418
  226MOL   C14736597   3.526   6.927   1.711  0.4428  0.2104 -0.2814
  226MOL   C14836598   3.440   7.005   1.603  0.2274 -0.1719  0.1274
  226MOL   O14936599   3.326   7.045   1.629 -0.1097 -0.0901  0.1087
  226MOL   H15036600   3.350   6.868   1.842  0.7066  0.4636 -0.0376
  226MOL   H15136601   3.419   6.749   1.739  0.4793 -1.1760  0.7213
  226MOL   H15236602   3.604   6.871   1.659 -1.3370 -0.1511 -2.6092
  226MOL   H15336603   3.569   7.007   1.770  0.7320  1.0261 -1.5778
  226MOL   C15436604   3.506   7.041   1.473 -0.7307 -0.0112 -0.0518
  226MOL   C15536605   3.404   7.105   1.374 -0.1009 -0.4832  0.4621
  226MOL   C15636606   3.403   7.041   1.241 -0.0904  0.0239  1.1775
  226MOL   O15736607   3.372   6.921   1.236 -0.2811 -0.1079 -0.7319
  226MOL   H15836608   3.546   6.951   1.427 -0.3716  0.7754 -1.3032
  226MOL   H15936609   3.570   7.126   1.496 -0.1101 -0.4348 -0.1875
  226MOL   H16036610   3.444   7.203   1.345 -1.3835 -0.3071 -0.7574
  226MOL   H16136611   3.306   7.117   1.419 -0.6450 -1.3630 -0.4725
  226MOL   H16236612   3.415   7.103   1.152 -1.3053 -0.9009  0.3519
  227MOL     C136613   4.882   7.010   2.098  0.1450  1.1544  0.0138
  227MOL     C236614   4.737   6.977   2.120 -0.6801 -0.0348 -0.1351
  227MOL     C336615   4.649   7.097   2.160 -0.3869  0.1649 -0.0979
  227MOL     O436616   4.601   7.164   2.066 -0.4586 -0.3864 -0.3198
  227MOL     H536617   4.930   6.915   2.073 -1.4134  0.6206 -1.0124
  227MOL     H636618   4.906   7.080   2.018  3.0836 -1.2793 -1.3576
  227MOL     H736619   4.722   6.900   2.196 -0.6832 -0.6822 -0.7821
  227MOL     H836620   4.691   6.930   2.033 -1.1387  1.3283 -0.6523
  227MOL     H936621   4.936   7.044   2.187 -1.6634  0.8139  1.2726
  227MOL    C1036622   4.644   7.152   2.304  0.3025  0.0547 -0.0042
  227MOL    C1136623   4.555   7.286   2.322 -0.1890  0.4933  0.5640
  227MOL    C1236624   4.632   7.407   2.379 -0.9055  0.0315  0.0485
  227MOL    O1336625   4.757   7.401   2.373 -0.3039  0.6651  0.4856
  227MOL    H1436626   4.745   7.171   2.340 -0.1617  0.5371  1.0820
  227MOL    H1536627   4.615   7.074   2.374  0.5194 -1.2646 -1.3583
  227MOL    H1636628   4.468   7.275   2.386 -0.5275  1.7428  0.3451
  227MOL    H1736629   4.519   7.313   2.222 -0.9336 -0.8091  0.4767
  227MOL    C1836630   4.558   7.529   2.443 -0.2394  0.6243 -0.0011
  227MOL    C1936631   4.534   7.633   2.327  0.5982  0.1107  0.0398
  227MOL    C2036632   4.599   7.768   2.364  0.5248  0.1461  0.4916
  227MOL    O2136633   4.584   7.816   2.478  0.3983  0.1041  0.0241
  227MOL    H2236634   4.621   7.559   2.527  0.4427  0.2532 -0.3800
  227MOL    H2336635   4.463   7.490   2.479 -0.1866  0.6647  0.1792
  227MOL    H2436636   4.428   7.656   2.335  0.1344 -2.1432  0.4942
  227MOL    H2536637   4.557   7.613   2.222  0.3898  2.3265 -0.4659
  227MOL    C2636638   4.676   7.856   2.258  0.4088  0.1805 -0.7063
  227MOL    C2736639   4.746   0.116   2.326 -0.9783  0.3606 -0.1628
  227MOL    C2836640   4.889   0.096   2.377  0.6474  0.1440  0.4758
  227MOL    O2936641   4.953   0.001   2.340 -0.1898  0.0814 -0.3483
  227MOL    H3036642   4.599   0.033   2.190 -0.3090 -0.8552 -0.4337
  227MOL    H3136643   4.740   7.796   2.194 -0.6697  0.2259 -1.8310
  227MOL    H3236644   4.689   0.157   2.410  2.2461  3.0673  0.7909
  227MOL    H3336645   4.743   0.196   2.253 -0.6007 -1.1288 -1.8375
  227MOL    C3436646   4.950   0.202   2.462 -0.3512 -0.2931 -0.2304
  227MOL    C3536647   5.099   0.243   2.442 -0.3837 -0.1115 -1.1662
  227MOL    C3636648   5.194   0.198   2.556 -0.2697 -0.1856  0.6142
  227MOL    O3736649   5.159   0.220   2.674 -0.1689 -0.0886  0.2415
  227MOL    H3836650   4.917   0.194   2.566 -1.0316  1.0606 -0.3337
  227MOL    H3936651   4.887   0.289   2.446  0.3603  0.6577  1.9727
  227MOL    H4036652   5.096   0.352   2.437  0.6238 -0.1618 -3.0846
  227MOL    H4136653   5.124   0.212   2.341 -0.0789 -0.4250 -0.9947
  227MOL    C4236654   5.323   0.129   2.513  0.1444  0.2745  0.1749
  227MOL    C4336655   5.319   0.010   2.417 -0.3040 -0.8220  0.3150
  227MOL    C4436656   5.347   0.049   2.273 -0.2871 -0.1423  0.7183
  227MOL    O4536657   5.354   0.163   2.233 -0.4763  0.6732  0.1378
  227MOL    H4636658   5.373   0.078   2.595  0.8572 -0.9383 -0.9905
  227MOL    H4736659   5.401   0.198   2.482 -2.9525  3.7369 -0.3226
  227MOL    H4836660   5.222   7.820   2.425 -0.1447 -1.1273  0.3645
  227MOL    H4936661   5.386   7.786   2.439 -1.1474 -1.5242  0.2484
  227MOL    C5036662   5.369   7.794   2.182 -0.5742  0.7898 -0.1049
  227MOL    C5136663   5.257   7.767   2.081 -0.3930 -0.4018 -0.6590
  227MOL    C5236664   5.161   7.662   2.131 -0.3474 -0.7372  0.4977
  227MOL    O5336665   5.194   7.580   2.214 -0.6198  0.4926 -0.0864
  227MOL    H5436666   5.399   7.705   2.238 -2.5281  1.8938  2.8135
  227MOL    H5536667   5.455   7.821   2.121  0.1787  0.0310  0.6050
  227MOL    H5636668   5.298   7.739   1.984  1.0468  0.8869 -0.4429
  227MOL    H5736669   5.204   0.002   2.068  0.5264  0.4772  1.7826
  227MOL    C5836670   5.020   7.665   2.066  0.6423 -0.0648  0.2083
  227MOL    C5936671   4.915   7.584   2.136  0.7595 -0.2817 -0.6255
  227MOL    C6036672   4.809   7.534   2.035  0.2471 -0.2449 -0.1854
  227MOL    O6136673   4.708   7.604   2.010 -0.2656 -0.3628 -0.2114
  227MOL    H6236674   5.034   7.623   1.966 -2.9729  1.4506 -1.0308
  227MOL    H6336675   4.988   7.769   2.063 -1.3091 -0.6381  0.4989
  227MOL    H6436676   4.871   7.618   2.230 -0.4111 -1.3150 -0.7822
  227MOL    H6536677   4.948   7.488   2.175 -1.8287 -1.5371 -1.3986
  227MOL    C6636678   4.849   7.403   1.966  0.0171  0.2536 -0.1779
  227MOL    C6736679   4.771   7.366   1.844 -0.2121  0.1545 -0.4279
  227MOL    C6836680   4.858   7.302   1.738  0.0306  0.5688 -0.3954
  227MOL    O6936681   4.946   7.360   1.675 -0.1366 -0.6120 -0.6155
  227MOL    H7036682   4.838   7.324   2.041  1.6106 -1.9153 -2.1668
  227MOL    H7136683   4.954   7.407   1.938 -0.0633 -0.8714 -0.6590
  227MOL    H7236684   4.717   7.451   1.802 -3.6043 -0.7304  1.9686
  227MOL    H7336685   4.689   7.301   1.873 -0.5842 -0.0424 -1.8968
  227MOL    C7436686   4.837   7.154   1.705  0.3244  0.4269  0.2009
  227MOL    C7536687   4.926   7.102   1.585 -0.0482  0.3415 -0.4368
  227MOL    C7636688   4.999   6.975   1.621  0.1263  0.1623  0.5974
  227MOL    O7736689   5.103   6.985   1.687 -0.1679 -0.6192  0.0161
  227MOL    H7836690   4.737   7.143   1.662  0.4506  2.6914 -0.7398
  227MOL    H7936691   4.849   7.095   1.796  0.2218  0.2370  0.0935
  227MOL    H8036692   5.001   7.168   1.543  1.5441 -1.5576 -0.6066
  227MOL    H8136693   4.857   7.079   1.503  0.6386 -1.3320 -0.5620
  227MOL    C8236694   4.955   6.834   1.572  0.0759 -0.1198 -0.5073
  227MOL    C8336695   4.980   6.723   1.671  0.1027 -0.3259  0.3202
  227MOL    C8436696   4.987   6.587   1.607 -0.3908  0.5870 -0.5339
  227MOL    O8536697   4.934   6.558   1.499  0.0427  0.0452 -0.2727
  227MOL    H8636698   5.013   6.826   1.481 -0.6684 -3.5604 -0.7537
  227MOL    H8736699   4.853   6.840   1.534 -0.1470  1.1028  0.2462
  227MOL    H8836700   4.897   6.731   1.741 -0.1916 -0.1124 -0.0546
  227MOL    H8936701   5.069   6.743   1.731 -0.4564  0.6784  0.8274
  227MOL    C9036702   5.058   6.474   1.693 -0.6542  0.2618 -0.3438
  227MOL    C9136703   5.038   6.328   1.639 -0.2796  0.0941 -0.2394
  227MOL    C9236704   4.912   6.262   1.693 -0.2657 -0.4187  0.7939
  227MOL    O9336705   4.818   6.327   1.743  0.2390 -0.8517  0.5408
  227MOL    H9436706   5.006   6.475   1.789  1.7320  1.7146  1.0060
  227MOL    H9536707   5.165   6.485   1.713 -0.4843 -1.2674 -0.3330
  227MOL    H9636708   5.124   6.263   1.660 -1.0777 -0.8087  0.3083
  227MOL    H9736709   5.031   6.331   1.531  4.9753  0.5584 -0.7090
  227MOL    C9836710   4.910   6.108   1.687  0.2661  0.3965  0.4587
  227MOL    C9936711   4.874   6.046   1.822 -0.0355  0.4248  0.0822
  227MOL   C10036712   4.986   5.967   1.888 -0.0077  0.2723  0.3505
  227MOL   O10136713   5.013   5.852   1.859 -0.9107 -0.5449 -0.8884
  227MOL   H10236714   4.995   6.060   1.638 -1.5001 -0.1624 -2.1328
  227MOL   H10336715   4.815   6.095   1.635  1.0271 -1.4906 -0.5218
  227MOL   H10436716   4.801   5.966   1.807  0.2462  0.0541  0.6802
  227MOL   H10536717   4.827   6.116   1.891 -0.7542  2.0916 -2.0378
  227MOL   C10636718   5.067   6.040   1.992  0.0669 -0.5127  0.7454
  227MOL   C10736719   5.205   5.973   2.024  0.3316 -0.5771  1.1503
  227MOL   C10836720   5.226   5.938   2.169  0.1874  0.2682  0.2238
  227MOL   O10936721   5.139   5.939   2.252 -0.9075 -0.6163  0.2572
  227MOL   H11036722   5.007   6.027   2.082 -0.3526 -0.3814  0.4855
  227MOL   H11136723   5.065   6.148   1.974 -1.3823 -0.8237 -1.0242
  227MOL   H11236724   5.292   6.022   1.979 -0.7162 -0.6267 -1.0219
  227MOL   H11336725   5.209   5.868   1.994  0.9370 -0.8008  2.0035
  227MOL   C11436726   5.366   5.898   2.217  0.8053 -0.0906  0.0373
  227MOL   C11536727   5.380   5.749   2.211 -0.4624  0.5188  0.0174
  227MOL   C11636728   5.451   5.691   2.331  0.8966 -0.3041 -0.1452
  227MOL   O11736729   5.449   5.748   2.439 -0.3463 -0.2944  0.3632
  227MOL   H11836730   5.376   5.942   2.316 -0.4010  0.2577  0.0207
  227MOL   H11936731   5.441   5.948   2.155  0.4917 -0.4792 -0.6696
  227MOL   H12036732   5.428   5.724   2.116 -4.3107 -1.9834 -1.4278
  227MOL   H12136733   5.285   5.697   2.194 -0.1114 -0.0702 -0.1793
  227MOL   C12236734   5.527   5.557   2.309  0.2190  0.5461 -0.3356
  227MOL   C12336735   5.680   5.583   2.291  0.3547  0.1692  1.0922
  227MOL   C12436736   5.759   5.469   2.342  0.5912 -0.1047  0.6201
  227MOL   O12536737   5.707   5.362   2.329  0.0961 -0.0927 -0.1254
  227MOL   H12636738   5.495   5.501   2.220 -0.8316 -0.6579  0.7846
  227MOL   H12736739   5.500   5.488   2.389 -1.7946  1.0090 -0.5973
  227MOL   H12836740   5.714   5.678   2.334  0.0199  1.3624 -1.2153
  227MOL   H12936741   5.713   5.587   2.187  0.8504  0.9340  1.2681
  227MOL   C13036742   5.891   5.499   2.409  0.5831  0.0362 -0.4923
  227MOL   C13136743   5.966   5.375   2.477  0.3507 -0.1263 -0.3153
  227MOL   C13236744   6.110   5.354   2.433 -0.3813  0.1471  0.5850
  227MOL   O13336745   6.180   5.443   2.374  0.0862 -0.4776  0.2562
  227MOL   H13436746   5.874   5.577   2.483  0.1274 -0.3091 -0.2331
  227MOL   H13536747   5.944   5.542   2.324 -1.1214  0.3142 -1.4164
  227MOL   H13636748   5.899   5.290   2.465  1.1638 -0.7161 -0.7975
  227MOL   H13736749   5.969   5.382   2.585 -1.9500 -2.1191 -0.0826
  227MOL   C13836750   6.165   5.210   2.445  1.1689 -0.3862  0.1377
  227MOL   C13936751   6.306   5.197   2.492 -0.4396 -0.6773 -0.3572
  227MOL   C14036752   6.326   5.203   2.652 -0.2445  0.2325  0.0286
  227MOL   O14136753   6.238   5.254   2.724  0.4900  0.2614  0.1094
  227MOL   H14236754   6.155   5.157   2.350  0.1481  0.1366 -0.0588
  227MOL   H14336755   6.098   5.162   2.517  1.2231  1.1597  1.2492
  227MOL   H14436756   6.370   5.270   2.442 -3.3512  0.7369 -2.1396
  227MOL   H14536757   6.352   5.106   2.454  0.0597  0.1350 -1.7197
  227MOL   C14636758   6.462   5.162   2.708  0.4320 -0.0161 -0.1193
  227MOL   C14736759   6.481   5.162   2.864 -0.0064  0.4379 -0.2409
  227MOL   C14836760   6.553   5.294   2.914 -0.0271 -0.2491  0.9445
  227MOL   O14936761   6.595   5.377   2.832 -0.1679  0.4746 -0.0646
  227MOL   H15036762   6.545   5.221   2.670 -0.3486  1.0934 -0.1247
  227MOL   H15136763   6.487   5.061   2.676 -0.8186 -0.5491  0.5383
  227MOL   H15236764   6.540   5.075   2.891  1.1188  1.5908  1.1283
  227MOL   H15336765   6.390   5.154   2.922  1.6028 -0.2029  2.2701
  227MOL   C15436766   6.577   5.303   3.063 -0.2376 -0.8264 -0.3586
  227MOL   C15536767   6.634   5.436   3.110 -0.3656  0.8705 -0.2766
  227MOL   C15636768   6.567   5.503   3.231 -0.5147 -0.1041  0.3726
  227MOL   O15736769   6.448   5.502   3.247 -0.2890  0.0537 -0.3408
  227MOL   H15836770   6.638   5.223   3.104  0.9924 -1.0466 -2.5432
  227MOL   H15936771   6.480   5.302   3.112 -0.4223 -1.0541 -0.7308
  227MOL   H16036772   6.637   5.513   3.032 -2.7742  1.0417 -0.2432
  227MOL   H16136773   6.739   5.423   3.136 -0.1943  0.7834 -0.9875
  227MOL   H16236774   6.639   5.560   3.289  1.8018 -0.5796 -1.9223
  228MOL     C136775   1.160   6.124   3.712  0.0692  0.5210 -0.7072
  228MOL     C236776   1.028   6.076   3.649 -0.6380  0.1245 -0.6276
  228MOL     C336777   0.997   5.923   3.666 -0.1856 -0.0554  0.7574
  228MOL     O436778   0.938   5.880   3.761  0.2190 -0.1201  0.1714
  228MOL     H536779   1.242   6.142   3.644  1.3393 -0.7604  0.4540
  228MOL     H636780   1.145   6.224   3.755  2.7521 -0.0896  1.7878
  228MOL     H736781   1.027   6.105   3.545  0.3507  1.7529 -0.1984
  228MOL     H836782   0.942   6.132   3.684 -0.8286 -0.3848 -0.2578
  228MOL     H936783   1.199   6.056   3.788 -3.1470 -1.1845 -0.4994
  228MOL    C1036784   1.032   5.835   3.540  0.4723 -0.3738  0.0856
  228MOL    C1136785   1.002   5.689   3.555  0.0406 -0.6040 -0.3308
  228MOL    C1236786   0.894   5.645   3.450 -0.2216 -0.4493 -0.0484
  228MOL    O1336787   0.928   5.591   3.345  0.5030 -0.0190 -0.9416
  228MOL    H1436788   1.140   5.840   3.526  0.5173 -0.1359  0.5211
  228MOL    H1536789   0.999   5.874   3.444  0.2362 -1.1498 -0.1550
  228MOL    H1636790   0.971   5.654   3.654  1.2342 -0.4070  0.1244
  228MOL    H1736791   1.097   5.637   3.545  0.0725 -0.1691 -2.5618
  228MOL    C1836792   0.757   5.671   3.479  0.2034  0.7062  0.3453
  228MOL    C1936793   0.658   5.584   3.396  1.0603  0.5279 -0.5453
  228MOL    C2036794   0.550   5.522   3.470  0.1038 -0.5393  0.0352
  228MOL    O2136795   0.463   5.591   3.523  0.0161  0.2236 -0.0432
  228MOL    H2236796   0.736   5.778   3.476 -1.3933  0.3707 -2.7725
  228MOL    H2336797   0.738   5.651   3.585  0.4490 -1.6802 -0.0312
  228MOL    H2436798   0.713   5.504   3.347 -0.9912  1.5512 -4.7763
  228MOL    H2536799   0.612   5.648   3.320  0.5367 -0.2292 -0.8699
  228MOL    C2636800   0.533   5.369   3.461  0.0717 -0.1814 -0.1828
  228MOL    C2736801   0.406   5.314   3.533 -0.0050  0.6631  0.5960
  228MOL    C2836802   0.447   5.228   3.655 -0.3598  0.0799 -0.6478
  228MOL    O2936803   0.444   5.270   3.773 -0.4422  1.3603 -0.1748
  228MOL    H3036804   0.616   5.325   3.516 -0.0732 -0.6176 -0.3145
  228MOL    H3136805   0.535   5.343   3.355  1.8004 -0.5838 -0.0810
  228MOL    H3236806   0.338   5.269   3.460  1.0183 -1.0373  0.6494
  228MOL    H3336807   0.341   5.395   3.563  0.6705  0.3752  2.9260
  228MOL    C3436808   0.497   5.080   3.623 -0.2204 -1.0338  0.3618
  228MOL    C3536809   0.408   4.982   3.707 -0.0805  0.2779 -0.3589
  228MOL    C3636810   0.343   4.881   3.615  0.3964  0.2485  0.5790
  228MOL    O3736811   0.243   4.907   3.543 -0.1042 -0.5025 -0.2893
  228MOL    H3836812   0.601   5.083   3.653  0.4638  1.4548 -2.1284
  228MOL    H3936813   0.496   5.060   3.516  1.4458  1.8847 -0.2403
  228MOL    H4036814   0.326   5.030   3.760  0.7666  1.9515 -0.5162
  228MOL    H4136815   0.469   4.922   3.775 -0.1250 -0.6670 -1.1312
  228MOL    C4236816   0.417   4.752   3.609 -0.3481 -0.1589 -0.0680
  228MOL    C4336817   0.379   4.660   3.495  0.0696  0.1345  0.1019
  228MOL    C4436818   0.492   4.631   3.389  0.0177 -0.2105 -0.1718
  228MOL    O4536819   0.613   4.667   3.406 -0.2461 -0.4403  0.2157
  228MOL    H4636820   0.409   4.699   3.704 -0.0076  0.7819  0.4849
  228MOL    H4736821   0.525   4.769   3.611  0.6465 -5.4735  4.4404
  228MOL    H4836822   0.297   4.704   3.439  0.1265  1.0132  0.6977
  228MOL    H4936823   0.344   4.567   3.539  0.1593 -0.1322 -0.3831
  228MOL    C5036824   0.447   4.551   3.269  0.1346 -0.5800 -0.5267
  228MOL    C5136825   0.565   4.490   3.196  0.7953 -0.2156  0.1890
  228MOL    C5236826   0.599   4.345   3.253  0.7345 -1.0156  0.6551
  228MOL    O5336827   0.508   4.260   3.266  0.2090  0.2038  0.8222
  228MOL    H5436828   0.408   4.621   3.196  1.6634 -1.8260 -2.5733
  228MOL    H5536829   0.366   4.484   3.299 -1.3185  1.1353 -0.5076
  228MOL    H5636830   0.651   4.556   3.192  1.5960 -1.1551  1.3445
  228MOL    H5736831   0.538   4.483   3.091 -3.5229  0.3048  1.1609
  228MOL    C5836832   0.736   4.299   3.268  0.3788  0.7196  0.2360
  228MOL    C5936833   0.757   4.159   3.218 -0.6175  0.4035 -0.1635
  228MOL    C6036834   0.895   4.141   3.148  0.0354 -0.0114  0.0368
  228MOL    O6136835   0.944   4.241   3.094  0.1327 -0.4007  0.4269
  228MOL    H6236836   0.756   4.300   3.375  0.6618 -1.9029  0.2316
  228MOL    H6336837   0.799   4.371   3.215  0.9329  0.1315  0.0816
  228MOL    H6436838   0.685   4.137   3.139  0.2938 -0.9051 -0.6500
  228MOL    H6536839   0.744   4.083   3.294 -0.8552  0.3226 -0.2846
  228MOL    C6636840   0.965   4.010   3.145  0.0548  0.1635  0.0555
  228MOL    C6736841   1.107   4.014   3.090 -0.0339 -0.0042 -0.4240
  228MOL    C6836842   1.204   3.962   3.196  0.5518 -0.2964  0.1230
  228MOL    O6936843   1.175   3.976   3.315  0.1957  0.3495 -0.3513
  228MOL    H7036844   0.913   3.935   3.086  1.0273 -1.1117  0.8070
  228MOL    H7136845   0.957   3.976   3.248 -1.9437  0.3485 -0.0102
  228MOL    H7236846   1.135   4.119   3.085 -2.4187  0.7273  0.6189
  228MOL    H7336847   1.133   3.965   2.997  1.3703 -0.0381 -0.0203
  228MOL    C7436848   1.342   3.904   3.155  0.1065  0.2897 -0.1682
  228MOL    C7536849   1.393   3.806   3.264 -0.5360  0.2591 -0.0754
  228MOL    C7636850   1.420   3.662   3.230  0.6101  1.3477  0.2496
  228MOL    O7736851   1.449   3.612   3.119 -0.3462  0.6189  0.1806
  228MOL    H7836852   1.406   3.987   3.125 -0.4782  0.3992 -1.1509
  228MOL    H7936853   1.325   3.845   3.064 -1.3262 -0.3780  0.5163
  228MOL    H8036854   1.329   3.804   3.351  0.5056 -0.5709  0.6818
  228MOL    H8136855   1.488   3.850   3.294 -0.6797  1.2337 -0.9764
  228MOL    C8236856   1.407   3.563   3.345  0.3297 -0.6921 -0.6831
  228MOL    C8336857   1.412   3.411   3.309  0.0897 -0.2733 -0.0027
  228MOL    C8436858   1.275   3.362   3.255  0.0051  0.4617  0.2484
  228MOL    O8536859   1.201   3.438   3.200 -0.0191 -0.4542  0.4548
  228MOL    H8636860   1.313   3.581   3.399 -0.1966 -2.2687 -1.0346
  228MOL    H8736861   1.486   3.590   3.415  0.3348 -0.0448 -0.9321
  228MOL    H8836862   1.423   3.367   3.408 -1.6051  0.3289  0.4674
  228MOL    H8936863   1.494   3.375   3.247 -0.2126 -0.6083 -0.2099
  228MOL    C9036864   1.237   3.219   3.287  0.1802  0.8171  0.2487
  228MOL    C9136865   1.101   3.194   3.340  0.2309  0.2989  0.0827
  228MOL    C9236866   1.106   3.218   3.489 -0.0566 -0.4647  0.0670
  228MOL    O9336867   1.162   3.144   3.569 -0.1160 -0.2416 -0.0738
  228MOL    H9436868   1.307   3.169   3.354 -0.7032 -0.9554 -0.1153
  228MOL    H9536869   1.234   3.162   3.194 -1.3801  0.9054  0.2409
  228MOL    H9636870   1.064   3.094   3.319 -1.5532  0.9198  0.1885
  228MOL    H9736871   1.029   3.263   3.295  0.1334  0.2922  0.2289
  228MOL    C9836872   1.019   3.338   3.535  0.7863  0.3725  0.5736
  228MOL    C9936873   1.061   3.408   3.663  0.2728  0.0427  0.0901
  228MOL   C10036874   1.199   3.477   3.654  0.6082 -0.6464  0.6846
  228MOL   O10136875   1.214   3.594   3.624  0.4421  0.0012 -0.2229
  228MOL   H10236876   0.923   3.286   3.542  1.1356 -0.2943  0.4281
  228MOL   H10336877   1.014   3.410   3.452 -0.8626  1.4549  1.5768
  228MOL   H10436878   1.076   3.330   3.737  0.9105  1.4544  1.4988
  228MOL   H10536879   0.975   3.468   3.692  0.4011 -0.1135  0.8060
  228MOL   C10636880   1.330   3.393   3.669  0.2347 -0.4387  0.7052
  228MOL   C10736881   1.466   3.468   3.674  0.2646 -0.1298 -0.3263
  228MOL   C10836882   1.538   3.462   3.809  0.8543 -0.2620  0.1466
  228MOL   O10936883   1.493   3.410   3.910 -0.6871  0.3138  0.3556
  228MOL   H11036884   1.321   3.324   3.585 -2.6505  0.7276  0.0113
  228MOL   H11136885   1.312   3.330   3.756  1.4006 -1.1224  0.4583
  228MOL   H11236886   1.449   3.572   3.644  2.5067  0.9999  2.1063
  228MOL   H11336887   1.523   3.417   3.596  0.5896 -1.9872  1.0988
  228MOL   C11436888   1.672   3.537   3.807 -0.3434  0.3755 -0.0882
  228MOL   C11536889   1.737   3.552   3.944 -0.5542  0.0751  0.0789
  228MOL   C11636890   1.720   3.692   4.003 -0.6707 -0.0053 -0.9935
  228MOL   O11736891   1.766   3.784   3.951  0.1343 -0.4501  0.5354
  228MOL   H11836892   1.656   3.632   3.755  2.1178  2.0164  2.0205
  228MOL   H11936893   1.737   3.470   3.751 -1.6642 -2.1605  1.3515
  228MOL   H12036894   1.844   3.538   3.929 -0.7124 -1.1595  0.0700
  228MOL   H12136895   1.713   3.482   4.023  0.3507 -1.7034 -1.1917
  228MOL   C12236896   1.640   3.704   4.133  0.0252 -0.0208  0.4364
  228MOL   C12336897   1.483   3.679   4.112 -0.6908 -0.2296  0.6496
  228MOL   C12436898   1.425   3.561   4.206 -0.1418 -0.5233 -0.8925
  228MOL   O12536899   1.460   3.552   4.324  0.0797 -0.2287  0.5631
  228MOL   H12636900   1.657   3.806   4.170  3.7075  0.1680 -1.5631
  228MOL   H12736901   1.686   3.639   4.207  0.7916  0.6026  0.5216
  228MOL   H12836902   1.465   3.659   4.007  2.3757 -2.2257  0.4555
  228MOL   H12936903   1.426   3.765   4.148 -0.7881 -0.4780  1.0887
  228MOL   C13036904   1.294   3.497   4.164  0.0824  0.2950  0.2442
  228MOL   C13136905   1.259   3.365   4.241 -0.1015 -0.0011 -0.6458
  228MOL   C13236906   1.174   3.285   4.142  0.3564  0.0690 -0.5861
  228MOL   O13336907   1.051   3.300   4.133  0.0745 -0.3933  0.4147
  228MOL   H13436908   1.292   3.502   4.055 -2.2094  0.1021  0.2544
  228MOL   H13536909   1.219   3.567   4.199  0.9464  0.7312  1.2631
  228MOL   H13636910   1.210   3.392   4.335  0.3750 -0.4325 -0.2673
  228MOL   H13736911   1.348   3.304   4.258  0.3301  0.2209 -2.0714
  228MOL   C13836912   1.247   3.203   4.035  0.0789  0.7211  0.7494
  228MOL   C13936913   1.149   3.129   3.931 -0.2984 -0.0917 -0.1554
  228MOL   C14036914   1.121   2.979   3.964 -0.3634 -0.1977  0.3978
  228MOL   O14136915   1.208   2.919   4.030 -0.1387  0.1169 -0.6016
  228MOL   H14236916   1.321   3.141   4.085 -0.1401  0.5441  0.8532
  228MOL   H14336917   1.300   3.276   3.974  0.6953  1.6367  2.3766
  228MOL   H14436918   1.186   3.136   3.829 -1.1873  0.7866 -0.4134
  228MOL   H14536919   1.055   3.182   3.924  0.4133  1.1720 -0.1675
  228MOL   C14636920   0.995   2.916   3.918 -0.6096  0.1313 -0.0654
  228MOL   C14736921   0.974   2.774   3.971  0.8699  0.1765  1.1115
  228MOL   C14836922   0.822   2.728   3.976 -0.0513 -0.0124  0.5721
  228MOL   O14936923   0.744   2.799   3.912  0.2987  0.0233  0.2313
  228MOL   H15036924   0.983   2.928   3.811  1.1097  0.3908 -0.2567
  228MOL   H15136925   0.911   2.973   3.956  1.1129  2.2857  0.6171
  228MOL   H15236926   1.015   2.763   4.071  1.9912 -1.2070  0.5182
  228MOL   H15336927   1.028   2.703   3.909 -1.7141 -0.8511 -0.0424
  228MOL   C15436928   0.776   2.594   4.026 -0.8074 -0.2141 -0.1415
  228MOL   C15536929   0.710   2.614   4.167 -0.1983 -0.0707 -0.0016
  228MOL   C15636930   0.791   2.584   4.291 -0.6134 -0.6222  0.0231
  228MOL   O15736931   0.893   2.643   4.298  0.2423  0.3431  0.0857
  228MOL   H15836932   0.863   2.533   4.005 -1.4706 -0.9370 -0.8116
  228MOL   H15936933   0.698   2.547   3.966 -0.2040  1.2731 -2.1634
  228MOL   H16036934   0.622   2.551   4.181  0.7358 -1.2772  0.4483
  228MOL   H16136935   0.662   2.712   4.171 -0.0226 -0.0402  1.9578
  228MOL   H16236936   0.744   2.517   4.363 -1.8653  0.8592  0.6212
  229MOL     C136937   5.315   2.968   7.481  0.6632 -0.2857  0.0050
  229MOL     C236938   5.288   3.118   7.484  0.2220  0.0845  0.1684
  229MOL     C336939   5.234   3.176   7.609  0.6829  0.5940 -0.1283
  229MOL     O436940   5.176   3.096   7.689 -0.3496 -0.4657  1.1007
  229MOL     H536941   5.235   2.901   7.454  0.6038 -0.2457  0.0823
  229MOL     H636942   5.390   2.948   7.404 -0.3806 -2.1558 -0.5479
  229MOL     H736943   5.220   3.137   7.401 -0.9790 -0.2617  1.0451
  229MOL     H836944   5.382   3.168   7.464  0.3321 -0.6561 -1.2422
  229MOL     H936945   5.358   2.936   7.576  0.5843  2.0158  0.8540
  229MOL    C1036946   5.273   3.321   7.655  0.2550 -0.5987 -0.6229
  229MOL    C1136947   5.181   3.387   7.762  0.1278  0.1768 -0.5322
  229MOL    C1236948   5.108   3.515   7.722  0.0254 -0.4480 -0.1828
  229MOL    O1336949   5.168   3.598   7.651 -0.5648 -0.2593  0.2066
  229MOL    H1436950   5.281   3.391   7.572  0.0294 -0.3912 -0.4689
  229MOL    H1536951   5.376   3.303   7.689  0.1013 -1.3891 -0.5590
  229MOL    H1636952   5.240   3.405   7.852  1.0557 -0.4912 -0.9942
  229MOL    H1736953   5.109   3.308   7.785 -0.0979  0.7142  0.6494
  229MOL    C1836954   4.979   3.553   7.793  0.0977  0.0185  0.3286
  229MOL    C1936955   4.940   3.699   7.752 -0.2629  0.2420  0.1951
  229MOL    C2036956   5.023   3.812   7.822 -0.3572  0.1431 -0.6591
  229MOL    O2136957   5.123   3.774   0.026  0.0704  0.3171 -0.5457
  229MOL    H2236958   5.002   3.539   0.040 -0.7278 -1.4010  0.3293
  229MOL    H2336959   4.896   3.483   7.781 -0.8204  1.1874 -0.1719
  229MOL    H2436960   4.839   3.731   7.779 -0.1118  0.2628  0.7282
  229MOL    H2536961   4.944   3.707   7.643  1.9411 -0.2707  0.2121
  229MOL    C2636962   4.997   3.957   7.783 -0.2267 -0.1750  0.2064
  229MOL    C2736963   5.112   4.018   7.705  0.2029 -0.3387 -0.2670
  229MOL    C2836964   5.092   4.049   7.561 -0.0062 -1.0493 -0.1155
  229MOL    O2936965   5.171   4.018   7.471  0.3062  0.4509 -0.4136
  229MOL    H3036966   4.989   4.028   0.007  0.0577 -1.8475  1.7117
  229MOL    H3136967   4.904   3.961   7.726 -0.4927 -0.2987  0.6269
  229MOL    H3236968   5.197   3.951   7.702 -0.5417 -1.2468 -1.9030
  229MOL    H3336969   5.142   4.106   7.761 -0.0725 -0.1290 -0.4442
  229MOL    C3436970   4.973   4.143   7.526 -0.3934  0.7164  0.1428
  229MOL    C3536971   4.999   4.247   7.416 -0.0267  0.7569 -0.0874
  229MOL    C3636972   4.967   4.383   7.469  0.1052  0.1869 -1.1162
  229MOL    O3736973   4.860   4.402   7.532 -0.3669 -0.2909  0.7412
  229MOL    H3836974   4.938   4.198   7.613 -0.9324  0.8888 -0.1737
  229MOL    H3936975   4.885   4.086   7.493 -0.4684  0.9698 -0.0971
  229MOL    H4036976   4.938   4.225   7.328 -1.7871 -0.0920  1.2948
  229MOL    H4136977   5.106   4.250   7.396  0.5519 -2.5897  2.0945
  229MOL    C4236978   5.076   4.497   7.441 -0.4861  0.0595  0.1072
  229MOL    C4336979   5.023   4.634   7.503  0.3346  0.3803  0.4026
  229MOL    C4436980   5.081   4.661   7.638 -0.3945  0.3360 -0.4469
  229MOL    O4536981   5.195   4.633   7.667 -0.4120 -0.5572 -0.6953
  229MOL    H4636982   5.092   4.522   7.336 -0.6685  2.2700  0.5688
  229MOL    H4736983   5.170   4.464   7.484  0.0521  2.1268  0.5868
  229MOL    H4836984   4.915   4.651   7.496  0.1817 -0.7860 -0.3439
  229MOL    H4936985   5.062   4.701   7.426 -1.2174 -1.1566 -1.7930
  229MOL    C5036986   5.001   4.750   7.735 -0.2728 -0.5080  0.0420
  229MOL    C5136987   5.053   4.752   0.024 -0.4409  0.5170 -0.9341
  229MOL    C5236988   5.006   4.625   0.098  0.2949 -0.2067  0.0994
  229MOL    O5336989   4.887   4.600   0.106  0.2892  0.0961  0.6075
  229MOL    H5436990   4.898   4.717   7.729 -0.5254  0.3721 -0.5470
  229MOL    H5536991   4.986   4.853   7.703  2.7301  0.1385  0.5324
  229MOL    H5636992   5.024   4.843   0.078  0.2135  1.0763 -1.5136
  229MOL    H5736993   5.162   4.754   0.018 -0.5019  1.9426 -1.8961
  229MOL    C5836994   5.112   4.555   0.193  0.5676  0.1033  0.0182
  229MOL    C5936995   5.055   4.427   0.253 -0.7069  0.4540 -0.1415
  229MOL    C6036996   5.165   4.345   0.311  0.8851  0.1530 -0.2417
  229MOL    O6136997   5.239   4.276   0.243 -0.2688 -0.6730 -0.1953
  229MOL    H6236998   5.139   4.632   0.265  0.6723  0.5422 -0.4881
  229MOL    H6336999   5.206   4.537   0.142  0.2166  0.0076 -0.6067
  229MOL    H6437000   5.008   4.359   0.183  0.4255 -0.0862 -0.3980
  229MOL    H6537001   4.987   4.458   0.332  0.9281  1.5554  0.8581
  229MOL    C6637002   5.194   4.360   0.465 -0.4201 -0.5317 -0.2090
  229MOL    C6737003   5.295   4.264   0.529 -0.4220  0.2480  0.5864
  229MOL    C6837004   5.438   4.314   0.538 -0.4439 -0.0287  0.0116
  229MOL    O6937005   5.467   4.414   0.604 -0.0343  0.5167  0.3755
  229MOL    H7037006   5.107   4.346   0.528  0.1252  0.6918  0.8479
  229MOL    H7137007   5.228   4.463   0.482 -1.4229 -0.3678  0.8626
  229MOL    H7237008   5.290   4.173   0.469  0.5566 -0.5307  1.6729
  229MOL    H7337009   5.262   4.224   0.625  1.1736  2.5700  2.1411
  229MOL    C7437010   5.538   4.224   0.457 -0.5053  0.3097 -0.4611
  229MOL    C7537011   5.581   4.097   0.531  0.2230 -0.1591 -0.0414
  229MOL    C7637012   5.730   4.070   0.518  0.3184  0.5633 -0.9128
  229MOL    O7737013   5.811   4.144   0.464 -0.0774  0.4281  0.0523
  229MOL    H7837014   5.622   4.290   0.432 -0.4714  0.8234  0.9669
  229MOL    H7937015   5.494   4.196   0.361  0.7581 -1.2922 -0.5905
  229MOL    H8037016   5.516   4.017   0.496  0.6077 -0.6480  0.3537
  229MOL    H8137017   5.568   4.116   0.638  1.0618  2.0221 -0.3047
  229MOL    C8237018   5.773   3.941   0.587 -0.0653 -0.2847 -0.1584
  229MOL    C8337019   5.765   3.815   0.505 -0.2402  0.9500 -1.1384
  229MOL    C8437020   5.860   3.710   0.570  0.8114  0.0904 -0.5174
  229MOL    O8537021   5.858   3.697   0.692 -0.1209 -0.2630 -0.1511
  229MOL    H8637022   5.711   3.940   0.676  1.2375 -2.4029  0.7536
  229MOL    H8737023   5.871   3.952   0.634  0.6279  0.8904 -1.8304
  229MOL    H8837024   5.789   3.838   0.401 -0.1719 -1.8565 -1.7865
  229MOL    H8937025   5.663   3.779   0.499 -1.1102  3.2553 -0.8174
  229MOL    C9037026   5.956   3.636   0.471  0.8491 -0.1388 -0.0095
  229MOL    C9137027   6.038   3.512   0.535  0.2045  0.2931 -0.5967
  229MOL    C9237028   6.173   3.506   0.475  0.6651 -0.2347 -0.6464
  229MOL    O9337029   6.266   3.573   0.522 -0.8099 -0.1783 -0.8229
  229MOL    H9437030   6.029   3.715   0.453 -1.5546  2.2480  0.3703
  229MOL    H9537031   5.928   3.603   0.371 -0.8210  2.1313 -0.3256
  229MOL    H9637032   5.985   3.417   0.531 -0.5574  0.6661  0.3856
  229MOL    H9737033   6.038   3.538   0.641 -0.8138 -1.3814 -0.1604
  229MOL    C9837034   6.193   3.427   0.348 -0.0462 -0.2416  0.0211
  229MOL    C9937035   6.336   3.356   0.331 -0.5046 -0.1570  0.7378
  229MOL   C10037036   6.347   3.219   0.391 -0.5302 -0.5216 -0.6840
  229MOL   O10137037   6.259   3.198   0.475  0.5674  0.1365 -0.3377
  229MOL   H10237038   6.171   3.487   0.259 -1.7775  0.0828  0.6406
  229MOL   H10337039   6.114   3.352   0.349 -0.8889  0.6398  1.8485
  229MOL   H10437040   6.412   3.414   0.383 -0.9404  2.6181 -1.6240
  229MOL   H10537041   6.354   3.335   0.225  0.9649 -0.2815  0.9962
  229MOL   C10637042   6.451   3.118   0.331 -0.2763  0.6025 -0.4455
  229MOL   C10737043   6.433   2.975   0.396 -0.0752 -0.9286 -0.8908
  229MOL   C10837044   6.530   2.883   0.334  0.2527 -0.6268 -0.3195
  229MOL   O10937045   6.605   2.926   0.245  0.0845  0.5275 -0.2293
  229MOL   H11037046   6.548   3.161   0.353  0.3239 -0.1157 -1.5922
  229MOL   H11137047   6.447   3.110   0.222  1.8471 -1.5210 -0.4073
  229MOL   H11237048   6.335   2.935   0.372 -0.8692  1.3075 -1.5220
  229MOL   H11337049   6.463   2.981   0.501 -1.2537 -1.7019 -0.5023
  229MOL   C11437050   6.520   2.731   0.373  0.5610  0.0688 -0.5520
  229MOL   C11537051   6.653   2.657   0.350 -0.2714 -0.1429  0.2292
  229MOL   C11637052   6.717   2.588   0.474 -0.3187 -0.5635  0.0227
  229MOL   O11737053   6.664   2.507   0.545  0.0991 -0.0007  0.3649
  229MOL   H11837054   6.434   2.691   0.321  1.8467 -2.6008 -0.7072
  229MOL   H11937055   6.477   2.736   0.473  2.8938  1.3399  0.4346
  229MOL   H12037056   6.737   2.720   0.322  0.5750 -0.8365  1.1363
  229MOL   H12137057   6.643   2.581   0.272  0.9950 -0.8571  0.7350
  229MOL   C12237058   6.864   2.615   0.482 -0.1074 -0.4114 -0.3161
  229MOL   C12337059   6.938   2.544   0.588  0.1257  0.1471 -0.3683
  229MOL   C12437060   6.997   2.626   0.701  0.3106 -0.9004  0.2432
  229MOL   O12537061   6.942   2.728   0.742  0.3793  0.2777 -0.8170
  229MOL   H12637062   6.882   2.723   0.486  0.2433 -0.4840  0.1816
  229MOL   H12737063   6.901   2.592   0.382  0.2091  1.2329 -0.5989
  229MOL   H12837064   7.019   2.487   0.541 -1.0549 -1.5089 -0.4082
  229MOL   H12937065   6.879   2.464   0.632  1.9211 -0.4649  1.0213
  229MOL   C13037066   7.129   2.583   0.766  0.4402 -0.4361  0.1345
  229MOL   C13137067   7.218   2.709   0.792 -0.0942  0.4837 -0.4424
  229MOL   C13237068   7.213   2.748   0.940 -0.1401 -0.4676 -0.0700
  229MOL   O13337069   7.266   2.678   1.016 -0.1472 -0.3679  0.7000
  229MOL   H13437070   7.169   2.517   0.688 -0.9771 -0.9157 -0.2000
  229MOL   H13537071   7.106   2.531   0.859 -2.6400  0.9629  0.2225
  229MOL   H13637072   7.180   2.792   0.732  0.4363  0.8059 -0.3362
  229MOL   H13737073   7.321   2.692   0.761 -1.0591  3.1152 -5.6418
  229MOL   C13837074   7.129   2.876   0.982  0.0466 -0.4894  0.1380
  229MOL   C13937075   6.987   2.822   1.028  0.4599  0.1324  1.0110
  229MOL   C14037076   6.879   2.925   0.996  0.0034 -0.2294  0.9497
  229MOL   O14137077   6.894   3.041   0.968 -0.3192 -0.0752  0.3778
  229MOL   H14237078   7.137   2.935   0.891  2.5629 -3.5735 -1.7373
  229MOL   H14337079   7.183   2.927   1.062 -1.7801 -0.0684  1.1239
  229MOL   H14437080   6.975   2.818   1.136  0.5859  1.6889  1.0966
  229MOL   H14537081   6.961   2.725   0.986 -0.2414 -0.4229  2.6935
  229MOL   C14637082   6.738   2.872   0.999 -0.1195  0.3028 -0.2184
  229MOL   C14737083   6.620   2.956   0.941 -0.3444  0.3851 -0.0951
  229MOL   C14837084   6.631   2.970   0.793  0.0350  0.1028 -0.1163
  229MOL   O14937085   6.602   2.875   0.716 -0.5868  0.1878  1.0681
  229MOL   H15037086   6.724   2.847   1.104  1.9046  1.8104  0.4435
  229MOL   H15137087   6.740   2.785   0.935 -0.5879  0.6273 -0.6770
  229MOL   H15237088   6.609   3.052   0.992 -1.0453  0.2101  0.0770
  229MOL   H15337089   6.530   2.897   0.954 -1.7917  2.7201  0.7796
  229MOL   C15437090   6.677   3.106   0.734 -0.2599 -0.6188 -0.6765
  229MOL   C15537091   6.769   3.116   0.610  0.2008 -0.0784 -0.5030
  229MOL   C15637092   6.894   3.197   0.636 -0.5203 -0.7253  0.7345
  229MOL   O15737093   6.901   3.287   0.724  0.0017 -0.2746 -0.1012
  229MOL   H15837094   6.725   3.151   0.820 -1.3371 -0.5084 -0.1300
  229MOL   H15937095   6.593   3.173   0.717  0.1270  0.2517  0.8249
  229MOL   H16037096   6.711   3.171   0.536 -1.0164  1.3288  1.4560
  229MOL   H16137097   6.784   3.015   0.571 -0.1654 -1.5164  2.9039
  229MOL   H16237098   6.976   3.184   0.564  2.5101  0.8416  3.7567
  230MOL     C137099   4.643   4.011   6.197 -0.0254  0.1425  0.0030
  230MOL     C237100   4.498   4.004   6.238  0.1096 -0.4632 -0.6862
  230MOL     C337101   4.399   4.089   6.157 -0.2307 -0.0935 -0.4185
  230MOL     O437102   4.408   4.095   6.037  0.0651 -0.8328 -0.0590
  230MOL     H537103   4.702   4.075   6.263  0.5063  0.2247 -0.5441
  230MOL     H637104   4.683   3.910   6.199  0.1612  0.2056 -0.4539
  230MOL     H737105   4.489   4.017   6.345 -2.3136 -2.6755 -0.5773
  230MOL     H837106   4.461   3.903   6.220  0.3750 -0.3801 -1.7317
  230MOL     H937107   4.670   4.053   6.100  1.4049  0.9356  0.7128
  230MOL    C1037108   4.290   4.165   6.236  0.3389 -0.6292 -0.0863
  230MOL    C1137109   4.211   4.280   6.159  0.4508 -0.8397 -0.2514
  230MOL    C1237110   4.173   4.404   6.238  0.8233 -0.0554 -0.1094
  230MOL    O1337111   4.120   4.399   6.349 -0.6635  0.8151  0.2905
  230MOL    H1437112   4.339   4.193   6.329 -0.4909 -1.6591  0.6762
  230MOL    H1537113   4.216   4.092   6.267 -0.7284  0.0812 -0.9287
  230MOL    H1637114   4.130   4.229   6.108  0.8916 -1.3447 -0.4468
  230MOL    H1737115   4.280   4.309   6.080  0.5274  0.1407  0.1678
  230MOL    C1837116   4.186   4.544   6.183  0.0196 -0.4008  0.6548
  230MOL    C1937117   4.048   4.613   6.162 -0.0885 -0.3453 -0.0436
  230MOL    C2037118   4.017   4.647   6.017  0.3688 -0.2020 -0.5296
  230MOL    O2137119   3.958   4.570   5.946 -0.3392  0.6970 -0.3897
  230MOL    H2237120   4.245   4.558   6.092 -0.7573  0.6109  0.2948
  230MOL    H2337121   4.228   4.609   6.259 -0.1033 -0.2680  0.6103
  230MOL    H2437122   4.059   4.707   6.215 -2.1800  0.5283 -1.1120
  230MOL    H2537123   3.968   4.567   6.221  0.5506 -1.8286 -0.3160
  230MOL    C2637124   4.039   4.786   5.968 -0.2620  0.1379 -0.8926
  230MOL    C2737125   3.986   4.817   5.828  0.4354  0.0308  0.5612
  230MOL    C2837126   4.023   4.959   5.784 -0.3581 -0.2362  0.0853
  230MOL    O2937127   3.930   5.036   5.753  0.4418 -0.1495 -0.0719
  230MOL    H3037128   4.147   4.799   5.953 -0.0050 -1.1128 -0.1518
  230MOL    H3137129   4.008   4.861   6.040 -0.8050 -1.4457  0.5427
  230MOL    H3237130   3.877   4.818   5.827  0.3838  2.6530 -2.4066
  230MOL    H3337131   4.029   4.758   5.747  1.5288 -0.8446  1.7608
  230MOL    C3437132   4.163   5.021   5.794  0.2321  0.7106  0.1300
  230MOL    C3537133   4.266   4.955   5.693 -0.9766 -0.0253  0.1591
  230MOL    C3637134   4.401   4.913   5.753 -0.0701  0.7346  1.1042
  230MOL    O3737135   4.430   4.914   5.873  0.4873 -0.5317 -0.0451
  230MOL    H3837136   4.195   4.996   5.895 -3.0350 -2.2913  0.5055
  230MOL    H3937137   4.169   5.127   5.770  0.6494  0.4717 -0.8697
  230MOL    H4037138   4.294   5.020   5.610 -1.3299 -2.7761 -2.2026
  230MOL    H4137139   4.224   4.867   5.644  0.2957  0.8211 -2.5329
  230MOL    C4237140   4.509   4.864   5.653  0.7463  0.0568 -0.0435
  230MOL    C4337141   4.634   4.801   5.716  0.3161  0.1914 -0.3069
  230MOL    C4437142   4.737   4.749   5.616 -0.0911  0.1815 -0.1653
  230MOL    O4537143   4.705   4.707   5.504 -0.1156  0.1573 -0.4717
  230MOL    H4637144   4.526   4.954   5.595 -2.1571 -0.5498 -1.9617
  230MOL    H4737145   4.471   4.795   5.578 -1.1288  0.0370  0.8825
  230MOL    H4837146   4.612   4.724   5.790 -2.4684  1.2238  0.0009
  230MOL    H4937147   4.669   4.870   5.793  2.8599  0.0806 -1.3205
  230MOL    C5037148   4.875   4.739   5.666  0.2389 -0.0104 -0.7917
  230MOL    C5137149   4.959   4.867   5.640 -0.1027  0.4276  0.2541
  230MOL    C5237150   5.019   4.912   5.774 -0.3072  0.1189  0.0071
  230MOL    O5337151   4.949   4.966   5.860  0.1089  0.0140 -0.1359
  230MOL    H5437152   4.921   4.662   5.604  0.2247 -0.8049  0.1882
  230MOL    H5537153   4.882   4.707   5.769 -0.3917  1.3151 -0.3242
  230MOL    H5637154   4.892   4.947   5.608  1.6053  1.7057 -0.2168
  230MOL    H5737155   5.029   4.842   5.559  1.7940 -2.7202  2.7622
  230MOL    C5837156   5.159   4.858   5.799 -1.1224  0.0117 -0.7014
  230MOL    C5937157   5.213   4.862   5.947 -0.1862 -0.1638 -0.1790
  230MOL    C6037158   5.176   4.743   6.036  0.6827 -0.0601  0.0993
  230MOL    O6137159   5.112   4.649   5.991 -0.1431 -0.2290 -0.2627
  230MOL    H6237160   5.234   4.903   5.734  0.9881 -0.1052  1.5750
  230MOL    H6337161   5.154   4.754   5.764  0.6651 -0.7368  1.1785
  230MOL    H6437162   5.164   4.944   6.000  0.0247  0.5485 -1.0802
  230MOL    H6537163   5.320   4.877   5.960 -0.4177  1.1153  0.2848
  230MOL    C6637164   5.224   4.751   6.180 -0.4170 -0.6427  0.2661
  230MOL    C6737165   5.215   4.620   6.256 -0.4769  0.0311  0.3258
  230MOL    C6837166   5.232   4.634   6.406  0.0748  0.0164 -0.1996
  230MOL    O6937167   5.190   4.545   6.474 -0.1220 -0.5227 -0.3729
  230MOL    H7037168   5.159   4.823   6.230  0.3937  1.2686 -1.3712
  230MOL    H7137169   5.314   4.812   6.176  0.5884 -2.1178 -0.0000
  230MOL    H7237170   5.293   4.550   6.227  0.6826  1.1923  0.5568
  230MOL    H7337171   5.128   4.559   6.234 -0.6182 -0.4506  2.1446
  230MOL    C7437172   5.308   4.749   6.473  0.2738 -0.4754  0.4947
  230MOL    C7537173   5.306   4.740   6.631  0.1509  0.1961  1.1424
  230MOL    C7637174   5.419   4.830   6.693  0.0725 -0.5535 -0.0479
  230MOL    O7737175   5.447   4.940   6.643  0.3199 -0.1618  0.2785
  230MOL    H7837176   5.270   4.845   6.440  1.2591 -0.6350 -1.1763
  230MOL    H7937177   5.411   4.737   6.438 -0.2105  1.0857 -1.5073
  230MOL    H8037178   5.325   4.636   6.660 -1.2359 -0.2982  0.3303
  230MOL    H8137179   5.207   4.774   6.665  0.1668  0.4529  0.9299
  230MOL    C8237180   5.495   4.780   6.819  0.1007 -0.2089  0.3121
  230MOL    C8337181   5.632   4.846   6.835 -0.1973  0.2744  0.3361
  230MOL    C8437182   5.647   4.918   6.976  0.2800 -0.4129  0.1878
  230MOL    O8537183   5.592   4.875   7.079  0.7423 -0.0379  0.1511
  230MOL    H8637184   5.496   4.671   6.814  0.2860 -0.1900 -0.0582
  230MOL    H8737185   5.432   4.791   6.907  1.5311 -0.4723  1.3736
  230MOL    H8837186   5.656   4.919   6.757 -1.3954  0.5879  0.2598
  230MOL    H8937187   5.706   4.766   6.832 -2.1248 -1.4888 -1.3639
  230MOL    C9037188   5.741   5.038   6.980  0.0144 -0.0358 -0.4492
  230MOL    C9137189   5.806   5.059   7.119  1.1091 -0.4662 -0.1154
  230MOL    C9237190   5.747   5.179   7.196  0.1073  0.0558  0.0326
  230MOL    O9337191   5.823   5.272   7.217 -0.2741 -0.4641 -0.2799
  230MOL    H9437192   5.684   5.123   6.942 -1.1392 -1.7843 -2.7445
  230MOL    H9537193   5.812   5.019   6.899 -0.2083 -0.8570 -0.4524
  230MOL    H9637194   5.911   5.086   7.103  0.5433  0.0108 -3.5290
  230MOL    H9737195   5.802   4.970   7.181  0.6376  0.4123  1.1235
  230MOL    C9837196   5.604   5.182   7.245  0.1490 -0.1605 -0.0470
  230MOL    C9937197   5.532   5.304   7.187  0.3855 -0.4871 -0.3400
  230MOL   C10037198   5.452   5.282   7.057 -0.7066 -0.7168 -0.4011
  230MOL   O10137199   5.402   5.169   7.035  0.1295 -0.0287  0.1186
  230MOL   H10237200   5.600   5.176   7.354  0.1183  1.0621  0.0308
  230MOL   H10337201   5.552   5.094   7.208  1.6112  0.0123 -2.5978
  230MOL   H10437202   5.600   5.387   7.169 -0.4485  0.4851  0.8777
  230MOL   H10537203   5.455   5.345   7.253  1.7248  0.2141  0.8334
  230MOL   C10637204   5.431   5.403   6.965 -0.7640  0.6492 -0.2011
  230MOL   C10737205   5.365   5.368   6.834  0.0069 -0.3723  0.4895
  230MOL   C10837206   5.324   5.489   6.756  0.0547  0.6395  0.0330
  230MOL   O10937207   5.322   5.601   6.808 -0.6784  0.3218 -0.4864
  230MOL   H11037208   5.533   5.434   6.947 -0.6556  0.0492 -0.6303
  230MOL   H11137209   5.380   5.479   7.024  2.3986  0.5878  2.7686
  230MOL   H11237210   5.281   5.302   6.856 -2.6360  1.8374 -2.4533
  230MOL   H11337211   5.429   5.314   6.765 -0.5743  0.9957 -1.1474
  230MOL   C11437212   5.271   5.462   6.615 -0.3047  1.2051  0.5590
  230MOL   C11537213   5.187   5.580   6.559 -0.4166 -0.4591 -0.1976
  230MOL   C11637214   5.257   5.649   6.443  0.5399 -0.2233 -0.8184
  230MOL   O11737215   5.214   5.618   6.329  0.0671 -0.4727 -0.5832
  230MOL   H11837216   5.220   5.366   6.617 -2.2051  2.2165  1.5565
  230MOL   H11937217   5.350   5.443   6.542 -0.5639 -0.1926  0.6337
  230MOL   H12037218   5.171   5.657   6.634  0.3089 -1.0773  0.6020
  230MOL   H12137219   5.088   5.548   6.527 -1.2527  3.3340 -1.7234
  230MOL   C12237220   5.376   5.736   6.462  0.2993 -0.1020  0.0366
  230MOL   C12337221   5.503   5.667   6.405 -0.4031  0.2673 -0.5362
  230MOL   C12437222   5.609   5.626   6.509 -0.5870  0.0825  0.1338
  230MOL   O12537223   5.645   5.713   6.590  0.5038  0.1793 -0.1382
  230MOL   H12637224   5.383   5.746   6.570 -1.2684  1.2501  0.0354
  230MOL   H12737225   5.350   5.830   6.413  1.8374  0.1079 -0.3974
  230MOL   H12837226   5.548   5.745   6.343 -0.9869  3.1983  2.5898
  230MOL   H12937227   5.491   5.575   6.347  0.4703 -0.7544  0.8722
  230MOL   C13037228   5.671   5.484   6.498  0.9420  0.2591  0.3189
  230MOL   C13137229   5.805   5.463   6.579  1.0465  0.2155  0.3243
  230MOL   C13237230   5.774   5.418   6.717 -0.2994  0.2915 -0.2143
  230MOL   O13337231   5.727   5.303   6.735 -0.6976  0.3697 -0.4135
  230MOL   H13437232   5.673   5.474   6.390 -1.2350 -0.6401  0.3449
  230MOL   H13537233   5.595   5.409   6.519 -0.5962  1.6041 -0.3292
  230MOL   H13637234   5.861   5.556   6.580  0.4603  0.5670  0.3930
  230MOL   H13737235   5.869   5.387   6.533  0.9095  0.0969  0.3283
  230MOL   C13837236   5.800   5.509   6.845  0.2094  0.3438 -0.1989
  230MOL   C13937237   5.888   5.443   6.953 -0.3181  0.1242 -0.1531
  230MOL   C14037238   6.034   5.496   6.967 -0.5162 -0.0620 -0.1582
  230MOL   O14137239   6.130   5.453   6.905  0.4924 -0.7410  0.8145
  230MOL   H14237240   5.709   5.537   6.898 -0.3076  0.2168 -1.0137
  230MOL   H14337241   5.849   5.599   6.806  0.3888 -0.0937 -0.9915
  230MOL   H14437242   5.904   5.339   6.922  1.6190  0.1685  0.6413
  230MOL   H14537243   5.829   5.437   7.045 -0.8384 -0.1223 -0.5001
  230MOL   C14637244   6.051   5.610   7.068  0.5270  0.6146  0.5107
  230MOL   C14737245   6.169   5.697   7.053 -0.2479  0.8098 -0.3442
  230MOL   C14837246   6.135   5.843   7.021  0.1935 -0.7340  0.4828
  230MOL   O14937247   6.021   5.882   6.998 -0.2147 -0.1518 -0.2888
  230MOL   H15037248   6.048   5.575   7.171  3.4096  1.8798  1.0501
  230MOL   H15137249   5.960   5.670   7.064 -0.8507 -1.2911  2.0255
  230MOL   H15237250   6.242   5.665   6.979  1.2305  0.2174  1.3211
  230MOL   H15337251   6.217   5.686   7.151 -0.4299 -0.3893 -0.3872
  230MOL   C15437252   6.249   5.938   7.031 -0.7611 -0.6046 -0.0866
  230MOL   C15537253   6.332   5.927   6.907  0.6667 -0.6924  0.1555
  230MOL   C15637254   6.302   6.037   6.802 -0.1988 -0.1186 -0.6952
  230MOL   O15737255   6.400   6.100   6.749  0.1040  0.2210 -0.8705
  230MOL   H15837256   6.314   5.911   7.115 -0.8166 -2.1539 -0.5196
  230MOL   H15937257   6.217   6.042   7.038  1.2203  0.0904 -1.0084
  230MOL   H16037258   6.328   5.830   6.857  1.1844 -0.5732 -0.1185
  230MOL   H16137259   6.433   5.924   6.946  0.2859  1.1532  1.3443
  230MOL   H16237260   6.198   6.056   6.775  0.0263  0.5731 -1.0995
  231MOL     C137261   3.935   6.600   2.157 -0.7055 -0.5026 -0.8401
  231MOL     C237262   3.885   6.735   2.108  0.5680  0.1119 -0.7264
  231MOL     C337263   3.974   6.783   1.988  0.2079  0.3050 -0.8828
  231MOL     O437264   4.070   6.713   1.949 -0.5359 -0.5122 -0.8989
  231MOL     H537265   3.941   6.535   2.070 -0.2465  2.1318 -2.8452
  231MOL     H637266   4.031   6.614   2.207 -0.9237  1.3594 -0.9036
  231MOL     H737267   3.902   6.802   2.193 -0.3095  1.0448 -1.2751
  231MOL     H837268   3.780   6.731   2.079 -0.4695  1.5165  2.5732
  231MOL     H937269   3.861   6.565   2.229  0.1400  0.9851  0.7898
  231MOL    C1037270   3.939   6.919   1.930  0.0619  1.2746 -1.0867
  231MOL    C1137271   4.007   6.938   1.794  0.0488  0.0752  0.1446
  231MOL    C1237272   3.916   6.918   1.675 -0.4745  0.6266 -0.4798
  231MOL    O1337273   3.852   7.009   1.633  0.3684  0.5362  0.2742
  231MOL    H1437274   3.989   6.984   2.002  2.8681 -1.2518 -0.6232
  231MOL    H1537275   3.834   6.947   1.937  0.2652  1.9404 -0.6201
  231MOL    H1637276   4.090   6.867   1.787 -0.3496 -0.6562  2.3311
  231MOL    H1737277   4.043   7.041   1.796 -0.4181  0.2224  1.0396
  231MOL    C1837278   3.915   6.781   1.615  0.1397  0.7601  0.5494
  231MOL    C1937279   3.934   6.794   1.471 -0.5247  0.1265  0.3621
  231MOL    C2037280   4.081   6.769   1.432  0.2560 -0.3178 -0.2614
  231MOL    O2137281   4.176   6.764   1.516  0.1042  0.0666  0.2765
  231MOL    H2237282   3.819   6.730   1.626  0.0424  0.7376 -0.3164
  231MOL    H2337283   3.986   6.717   1.666  1.8563  3.4616  1.6793
  231MOL    H2437284   3.891   6.883   1.425 -0.9638 -0.7870 -1.0356
  231MOL    H2537285   3.879   6.711   1.425 -0.7138 -0.4250  1.5610
  231MOL    C2637286   4.099   6.749   1.281  0.2834 -0.5034  0.0382
  231MOL    C2737287   4.244   6.724   1.237 -0.1686  0.0139 -0.3043
  231MOL    C2837288   4.327   6.838   1.168  0.1104 -0.5562 -0.3298
  231MOL    O2937289   4.296   6.960   1.173 -0.1901  0.4574  0.5253
  231MOL    H3037290   4.063   6.839   1.232 -1.4571 -1.4873 -0.5606
  231MOL    H3137291   4.035   6.672   1.237  1.8270 -0.3055 -2.6600
  231MOL    H3237292   4.240   6.647   1.159 -1.3208  0.1397 -0.3789
  231MOL    H3337293   4.310   6.684   1.314  0.5709  1.6384 -0.0749
  231MOL    C3437294   4.446   6.797   1.084 -0.5466 -0.0146  0.7316
  231MOL    C3537295   4.466   6.898   0.971  0.2678  0.3097 -0.3966
  231MOL    C3637296   4.563   6.865   0.867 -0.0066  0.7259  0.2047
  231MOL    O3737297   4.637   6.763   0.878  0.5018 -0.3588  0.7988
  231MOL    H3837298   4.438   6.692   1.054 -1.6254  0.2451  0.0908
  231MOL    H3937299   4.530   6.801   1.153 -0.2104  0.9319  0.2757
  231MOL    H4037300   4.501   6.991   1.015  0.2989 -0.7281  1.8450
  231MOL    H4137301   4.368   6.910   0.925 -0.5294 -0.4884  1.0301
  231MOL    C4237302   4.576   6.964   0.754 -0.2537 -0.2585  0.9491
  231MOL    C4337303   4.714   6.962   0.688  0.5015  0.5294 -0.3667
  231MOL    C4437304   4.831   7.029   0.764  0.0018 -0.3012  0.0928
  231MOL    O4537305   4.806   7.114   0.852 -0.1975 -0.1852 -0.0906
  231MOL    H4637306   4.564   7.066   0.791 -0.1700  0.5491 -1.1800
  231MOL    H4737307   4.488   6.952   0.692 -0.0131  0.9131  0.3603
  231MOL    H4837308   4.704   7.017   0.594 -1.3777 -1.2189 -1.2455
  231MOL    H4937309   4.744   6.861   0.658 -0.7612  0.5272 -1.7004
  231MOL    C5037310   4.973   6.995   0.713  0.3357  0.4121  0.9896
  231MOL    C5137311   5.095   7.053   0.787 -0.3397  0.3130  0.6963
  231MOL    C5237312   5.198   6.946   0.814 -0.6686  0.4895 -0.8188
  231MOL    O5337313   5.161   6.831   0.852  0.5032  0.0238 -0.1856
  231MOL    H5437314   4.986   7.043   0.616 -1.4750  3.2886  2.1092
  231MOL    H5537315   4.986   6.887   0.715 -0.5599  0.3317  3.0510
  231MOL    H5637316   5.065   7.104   0.879 -0.9000 -1.3565  1.4671
  231MOL    H5737317   5.147   7.116   0.715  0.2695 -1.7022 -0.6441
  231MOL    C5837318   5.342   6.984   0.791 -0.5893 -0.5172  0.1076
  231MOL    C5937319   5.432   6.867   0.795 -0.1764 -0.3504 -1.0430
  231MOL    C6037320   5.548   6.900   0.894  0.1455  0.6723  0.3139
  231MOL    O6137321   5.615   7.003   0.879 -0.6247  0.1901 -0.5730
  231MOL    H6237322   5.359   7.060   0.867 -0.1121 -0.6985  0.1852
  231MOL    H6337323   5.342   7.046   0.701 -0.4353 -0.1967  0.3274
  231MOL    H6437324   5.470   6.833   0.698  2.0445 -2.2787  0.4568
  231MOL    H6537325   5.382   6.776   0.829 -1.6164 -0.0228 -2.2284
  231MOL    C6637326   5.571   6.808   1.013  0.8274  0.2659 -0.0020
  231MOL    C6737327   5.683   6.855   1.110 -0.8333 -0.3088  0.1431
  231MOL    C6837328   5.692   6.751   1.219  0.0368  0.0740  0.2809
  231MOL    O6937329   5.650   6.637   1.206  0.1020 -0.1156  0.1477
  231MOL    H7037330   5.579   6.707   0.974  0.9750  0.3822 -0.2784
  231MOL    H7137331   5.479   6.816   1.070 -0.3896 -2.6440 -1.4791
  231MOL    H7237332   5.663   6.948   1.162  0.5652  0.4328 -0.6204
  231MOL    H7337333   5.773   6.869   1.051 -0.1994 -2.3135  0.6006
  231MOL    C7437334   5.760   6.802   1.352  0.0550 -0.2410 -0.3366
  231MOL    C7537335   5.705   6.721   1.473 -0.5942 -0.6962 -0.1571
  231MOL    C7637336   5.630   6.803   1.568  0.5437 -0.5228 -0.1379
  231MOL    O7737337   5.613   6.924   1.549 -0.1408 -0.3494 -0.3491
  231MOL    H7837338   5.747   6.910   1.357  2.1005  0.1490 -2.4099
  231MOL    H7937339   5.866   6.778   1.347  0.1230  0.1778 -0.8758
  231MOL    H8037340   5.786   6.709   1.545 -2.6563  0.1062  2.3753
  231MOL    H8137341   5.648   6.631   1.448 -2.7773 -0.1691  2.7779
  231MOL    C8237342   5.571   6.735   1.697  0.0958 -0.4774  0.5102
  231MOL    C8337343   5.443   6.810   1.754 -0.8687  0.2127  0.3674
  231MOL    C8437344   5.471   6.862   1.891  0.2964  0.5428 -0.2794
  231MOL    O8537345   5.571   6.929   1.903 -0.8480  1.0211  0.0177
  231MOL    H8637346   5.654   6.734   1.767  1.1793  1.1737 -0.7109
  231MOL    H8737347   5.534   6.636   1.670 -2.3039  0.7438 -0.8319
  231MOL    H8837348   5.348   6.757   1.761 -1.7872  1.5178 -1.7607
  231MOL    H8937349   5.424   6.889   1.682 -1.6622 -0.0201  0.3181
  231MOL    C9037350   5.370   6.831   2.007  0.2256 -0.4153  0.7746
  231MOL    C9137351   5.446   6.768   2.127 -0.7520 -0.1350 -0.4151
  231MOL    C9237352   5.419   6.848   2.256 -0.3815 -0.8160  0.5053
  231MOL    O9337353   5.473   6.957   2.283  0.4890  0.2940 -0.1387
  231MOL    H9437354   5.296   6.760   1.972  0.5979 -0.1882 -0.4917
  231MOL    H9537355   5.331   6.927   2.040  3.2727  0.9558  0.6007
  231MOL    H9637356   5.551   6.778   2.101 -0.4436  0.0175  0.8299
  231MOL    H9737357   5.420   6.662   2.128 -2.3937  0.2462  0.4322
  231MOL    C9837358   5.314   6.789   2.347  0.3838 -0.2878 -0.0836
  231MOL    C9937359   5.177   6.857   2.347  0.4023  0.3882 -0.2425
  231MOL   C10037360   5.123   6.892   2.483 -0.3575  0.9143 -0.0629
  231MOL   O10137361   5.184   6.862   2.586  0.7615  0.0400 -0.0529
  231MOL   H10237362   5.359   6.787   2.446  0.5567  0.0499 -0.1552
  231MOL   H10337363   5.304   6.684   2.319 -0.8393 -0.4060  0.7658
  231MOL   H10437364   5.101   6.781   2.325  2.4010 -1.8920  0.5113
  231MOL   H10537365   5.174   6.940   2.276  0.2887 -0.8314 -1.7022
  231MOL   C10637366   4.992   6.966   2.483 -0.3201 -0.3209  0.8437
  231MOL   C10737367   4.924   6.964   2.624  0.8818 -0.7109  0.0628
  231MOL   C10837368   4.784   7.013   2.620  0.4261 -0.2947  0.3525
  231MOL   O10937369   4.703   6.943   2.560 -0.2979 -0.0766  0.1807
  231MOL   H11037370   4.925   6.918   2.411 -0.3991  2.6131 -1.1610
  231MOL   H11137371   5.023   7.059   2.435  1.4917 -1.3670 -0.1022
  231MOL   H11237372   4.974   7.028   2.696  0.0499 -0.4125  0.3776
  231MOL   H11337373   4.917   6.860   2.658  4.3717 -1.4015 -1.1426
  231MOL   C11437374   4.760   7.157   2.671 -0.2289 -0.2939 -0.8051
  231MOL   C11537375   4.672   7.148   2.803 -0.3270  0.7990  0.4087
  231MOL   C11637376   4.548   7.244   2.810  0.3640 -0.3614  0.5159
  231MOL   O11737377   4.551   7.359   2.757  0.2621 -0.2759 -0.4044
  231MOL   H11837378   4.704   7.208   2.593 -1.9370 -1.9734 -0.7129
  231MOL   H11937379   4.855   7.208   2.691  0.1389 -0.8950 -0.9908
  231MOL   H12037380   4.732   7.168   2.893  0.2479  1.9726 -0.2211
  231MOL   H12137381   4.645   7.043   2.812 -1.3573  1.1381  1.4397
  231MOL   C12237382   4.432   7.198   2.888  0.6460 -0.3924  0.1304
  231MOL   C12337383   4.303   7.274   2.848  0.1006 -0.6803 -0.5365
  231MOL   C12437384   4.180   7.192   2.876  0.7664  0.1954 -0.2427
  231MOL   O12537385   4.179   7.085   2.935  0.1154  0.5177  0.3622
  231MOL   H12637386   4.453   7.227   2.991 -0.6938  0.6187  0.1400
  231MOL   H12737387   4.417   7.090   2.877  1.9809 -0.6446  0.7935
  231MOL   H12837388   4.302   7.299   2.742 -1.4019  0.2581 -0.3215
  231MOL   H12937389   4.286   7.366   2.904 -0.4061 -2.2351  1.9254
  231MOL   C13037390   4.047   7.254   2.839 -0.2901  0.7178 -0.1337
  231MOL   C13137391   3.913   7.176   2.863  1.2078  0.4157 -0.2705
  231MOL   C13237392   3.835   7.147   2.733 -0.3926 -0.1072 -0.0679
  231MOL   O13337393   3.814   7.245   2.663  0.6978 -0.2404 -0.0183
  231MOL   H13437394   4.061   7.298   2.740  0.0926  1.0787  0.0842
  231MOL   H13537395   4.028   7.337   2.907 -0.4390  1.7413 -1.4175
  231MOL   H13637396   3.854   7.251   2.915 -0.8074 -0.8859 -0.6126
  231MOL   H13737397   3.933   7.084   2.918 -1.6113 -1.4801 -2.2131
  231MOL   C13837398   3.806   7.003   2.683  0.2227  0.2895  0.0094
  231MOL   C13937399   3.690   6.997   2.583  0.0225 -0.3756 -0.2528
  231MOL   C14037400   3.740   7.006   2.444  0.1438  0.1025 -0.0866
  231MOL   O14137401   3.836   6.939   2.411 -0.2169 -0.4648  0.1952
  231MOL   H14237402   3.780   6.938   2.767  0.5179 -0.8288 -0.7479
  231MOL   H14337403   3.891   6.956   2.633  0.7180  0.3065  0.8206
  231MOL   H14437404   3.621   7.074   2.619  0.8027 -0.3884  1.3291
  231MOL   H14537405   3.635   6.904   2.598 -1.2272  0.7157  2.4670
  231MOL   C14637406   3.655   7.080   2.345  0.4239 -0.5887  0.9605
  231MOL   C14737407   3.710   7.084   2.204  0.7690 -0.6349 -0.4708
  231MOL   C14837408   3.697   7.215   2.129 -0.2393 -0.2952 -0.0253
  231MOL   O14937409   3.643   7.310   2.181  1.0941  0.5492  0.7099
  231MOL   H15037410   3.667   7.180   2.387  0.0643 -0.0342 -0.2257
  231MOL   H15137411   3.548   7.064   2.356 -0.0845  1.4467 -0.7893
  231MOL   H15237412   3.665   7.012   2.135 -0.3603 -0.4928  0.1027
  231MOL   H15337413   3.817   7.063   2.197  1.0765  0.3698  0.9647
  231MOL   C15437414   3.747   7.218   1.984  0.3171 -0.8981  0.2365
  231MOL   C15537415   3.784   7.352   1.921 -0.4338  0.3500 -0.4988
  231MOL   C15637416   3.726   7.351   1.774  0.0119  0.1043  0.5549
  231MOL   O15737417   3.691   7.248   1.717  0.4052  0.0725 -0.1087
  231MOL   H15837418   3.661   7.181   1.927  0.2645 -3.1135  1.6935
  231MOL   H15937419   3.831   7.149   1.980  0.0418 -1.2921  1.1438
  231MOL   H16037420   3.891   7.371   1.919 -0.6873  1.7972 -0.9281
  231MOL   H16137421   3.744   7.439   1.973  0.7127  0.5449  0.0457
  231MOL   H16237422   3.707   7.447   1.725 -0.4466 -0.1695  0.1880
  232MOL     C137423   3.765   0.976   1.775  0.0671 -0.1585  0.5961
  232MOL     C237424   3.663   1.001   1.882 -0.3090 -0.0574  0.0121
  232MOL     C337425   3.555   0.890   1.881 -0.4253  0.1327 -0.4178
  232MOL     O437426   3.468   0.895   1.795 -0.0925  0.1916  0.2265
  232MOL     H537427   3.726   0.907   1.700  0.3455 -0.0463  0.3473
  232MOL     H637428   3.802   1.063   1.721 -0.5597 -0.4744 -0.3708
  232MOL     H737429   3.609   1.095   1.872  0.0820  0.0151 -1.5858
  232MOL     H837430   3.700   1.018   1.983 -0.8023  2.5763 -0.2161
  232MOL     H937431   3.846   0.927   1.829  0.4708  0.3640  0.4674
  232MOL    C1037432   3.548   0.789   1.993 -0.2977  0.1684  0.2241
  232MOL    C1137433   3.618   0.656   1.946 -0.0364 -0.1825 -0.1872
  232MOL    C1237434   3.723   0.608   2.053  0.2501 -0.8867 -0.0105
  232MOL    O1337435   3.736   0.663   2.165  0.2271 -0.0723 -0.0330
  232MOL    H1437436   3.440   0.779   2.000 -0.4651  1.5742 -0.1838
  232MOL    H1537437   3.592   0.838   2.079  1.1355 -0.5709 -0.0776
  232MOL    H1637438   3.674   0.672   1.853 -0.0181  1.3662  0.0897
  232MOL    H1737439   3.540   0.584   1.920 -1.4725  0.7063  1.5495
  232MOL    C1837440   3.802   0.479   2.018 -0.2258  0.0203  0.1627
  232MOL    C1937441   3.779   0.374   2.132 -0.1935  0.2216  0.0442
  232MOL    C2037442   3.658   0.288   2.118  0.0876 -0.0524  0.1607
  232MOL    O2137443   3.581   0.303   2.018 -0.4847  0.0314  0.1978
  232MOL    H2237444   3.907   0.498   1.997  0.1100 -0.6847  1.1364
  232MOL    H2337445   3.762   0.431   1.928 -1.4031  0.3413  0.5069
  232MOL    H2437446   3.791   0.416   2.232  0.7659 -0.4326  0.2109
  232MOL    H2537447   3.863   0.306   2.117  0.0554  0.4632  0.3338
  232MOL    C2637448   3.627   0.194   2.232  0.5721 -0.1731  0.0264
  232MOL    C2737449   3.558   0.076   2.182 -0.8636 -0.6889  0.0225
  232MOL    C2837450   3.525   7.841   2.295 -0.0158 -0.1502  0.2005
  232MOL    O2937451   3.499   0.020   2.404 -0.0495  0.1284 -0.4586
  232MOL    H3037452   3.565   0.250   2.302 -0.4146  0.9298 -1.6815
  232MOL    H3137453   3.715   0.175   2.293  2.3736  1.8888 -1.8476
  232MOL    H3237454   3.630   0.022   2.120 -1.5490  0.1930 -1.5676
  232MOL    H3337455   3.465   0.096   2.130 -0.6233 -0.3632 -0.2811
  232MOL    C3437456   3.520   7.694   2.253 -0.7217 -0.1088 -0.0966
  232MOL    C3537457   3.514   7.602   2.381  0.2032 -0.0002 -0.1092
  232MOL    C3637458   3.402   7.495   2.385 -0.9655 -0.1390 -0.3453
  232MOL    O3737459   3.302   7.499   2.313 -0.3693  0.0004  0.7118
  232MOL    H3837460   3.614   7.672   2.201 -0.4655 -1.2947  0.8402
  232MOL    H3937461   3.425   7.684   2.201 -1.4029  0.4824  1.0195
  232MOL    H4037462   3.509   7.652   2.478  1.6829 -2.6712  1.4103
  232MOL    H4137463   3.609   7.550   2.397 -0.0403 -0.8303 -1.3269
  232MOL    C4237464   3.429   7.373   2.473 -0.2902  0.3588 -0.3394
  232MOL    C4337465   3.323   7.338   2.580  0.3839 -0.5421 -0.4790
  232MOL    C4437466   3.319   7.189   2.615 -0.3976 -0.1181 -0.1680
  232MOL    O4537467   3.383   7.101   2.550 -0.0339 -0.4103  0.4738
  232MOL    H4637468   3.530   7.380   2.514  0.3604  1.6800 -2.1155
  232MOL    H4737469   3.439   7.285   2.408 -0.1893  0.4233 -0.4105
  232MOL    H4837470   3.226   7.361   2.534  0.0080 -0.3961  0.3795
  232MOL    H4937471   3.340   7.409   2.661  0.7570 -0.9747 -0.1787
  232MOL    C5037472   3.227   7.160   2.731 -0.0137  0.0506 -0.4570
  232MOL    C5137473   3.213   7.016   2.772 -0.2612 -0.2305  0.3104
  232MOL    C5237474   3.318   6.965   2.871  0.4510 -0.2989 -0.2237
  232MOL    O5337475   3.413   6.893   2.833 -0.3433 -0.0157 -0.4439
  232MOL    H5437476   3.126   7.200   2.723 -0.1247 -0.5648 -2.6629
  232MOL    H5537477   3.265   7.214   2.817 -1.7693 -0.1980  0.5065
  232MOL    H5637478   3.201   6.947   2.688 -0.0358 -0.2300  0.2775
  232MOL    H5737479   3.118   6.998   2.822 -1.9855  4.1318 -1.1456
  232MOL    C5837480   3.289   6.980   3.020 -0.2394 -0.2521  0.2361
  232MOL    C5937481   3.420   7.023   3.097  0.3246  0.5076  0.2767
  232MOL    C6037482   3.420   7.167   3.121 -0.2047  0.4432  0.8432
  232MOL    O6137483   3.318   7.234   3.111 -0.0670 -0.2200 -0.1925
  232MOL    H6237484   3.250   6.891   3.070 -0.2353  0.1203  0.9012
  232MOL    H6337485   3.203   7.045   3.037  0.0098  0.0690  0.2485
  232MOL    H6437486   3.504   6.992   3.036 -2.3296 -3.5223 -1.5432
  232MOL    H6537487   3.426   6.964   3.189  4.2114 -1.8233 -1.3635
  232MOL    C6637488   3.549   7.236   3.140  0.7094  0.0530  0.4852
  232MOL    C6737489   3.556   7.380   3.091  0.9366  0.5360  0.0483
  232MOL    C6837490   3.563   7.396   2.935  0.1520 -0.0972  0.4330
  232MOL    O6937491   3.556   7.297   2.860 -0.5145  0.4161 -0.2028
  232MOL    H7037492   3.622   7.180   3.082  0.5605  2.6037 -2.2920
  232MOL    H7137493   3.571   7.225   3.246  0.4352  1.6356  0.7153
  232MOL    H7237494   3.640   7.429   3.139 -0.2979  1.3409  1.4438
  232MOL    H7337495   3.462   7.433   3.107 -1.2006 -2.7499 -1.0939
  232MOL    C7437496   3.585   7.538   2.883  0.1214  0.5315  0.3258
  232MOL    C7537497   3.661   7.533   2.748  0.1210 -0.3833  0.2391
  232MOL    C7637498   3.813   7.552   2.781  0.2036  0.2327  0.4384
  232MOL    O7737499   3.853   7.573   2.895  0.1095  0.2654  0.6518
  232MOL    H7837500   3.632   7.604   2.956 -1.8467  1.2232  1.0200
  232MOL    H7937501   3.482   7.575   2.878  0.0172 -0.1129 -4.2419
  232MOL    H8037502   3.628   7.616   2.686  1.3407  1.4854  2.0095
  232MOL    H8137503   3.652   7.436   2.699  0.8126  0.6635 -2.0329
  232MOL    C8237504   3.914   7.552   2.663  0.1123  0.0990 -0.6370
  232MOL    C8337505   3.998   7.685   2.663 -0.5317 -0.5625  0.0302
  232MOL    C8437506   4.142   7.660   2.618 -0.3046  0.1687 -0.1842
  232MOL    O8537507   4.172   7.558   2.555  0.0962 -0.0308  0.4843
  232MOL    H8637508   3.854   7.542   2.572 -1.1968  3.5490 -0.2270
  232MOL    H8737509   3.970   7.459   2.674 -0.9629 -0.4308  0.5598
  232MOL    H8837510   3.996   7.740   2.757  1.5831  0.1812 -0.3376
  232MOL    H8937511   3.955   7.756   2.593  1.4441  0.5470 -0.0922
  232MOL    C9037512   4.248   7.758   2.659 -0.3045 -0.5351 -0.8795
  232MOL    C9137513   4.379   7.698   2.726  0.5464  0.2586 -0.2749
  232MOL    C9237514   4.376   7.694   2.879 -0.7342  0.3635 -0.3525
  232MOL    O9337515   4.284   7.745   2.942 -0.4117  0.0950  0.5899
  232MOL    H9437516   4.207   7.844   2.711 -1.7297 -1.1523 -0.9617
  232MOL    H9537517   4.275   7.794   2.560 -0.8668 -1.6370 -1.4523
  232MOL    H9637518   4.459   7.763   2.690  1.1076 -0.5178 -0.4239
  232MOL    H9737519   4.399   7.596   2.694  1.5106  0.4321 -0.2469
  232MOL    C9837520   4.507   7.635   2.940  0.4574 -0.3368 -0.1529
  232MOL    C9937521   4.506   7.649   3.098  0.0661 -0.1176  0.2461
  232MOL   C10037522   4.485   7.517   3.167  0.3407  0.6299  0.8235
  232MOL   O10137523   4.395   7.441   3.127 -0.0696  0.3766  0.0569
  232MOL   H10237524   4.590   7.698   2.907  0.0875 -0.0623 -0.5699
  232MOL   H10337525   4.514   7.534   2.901  0.6405 -1.1661  1.9764
  232MOL   H10437526   4.417   7.705   3.127  1.2905  1.4419  1.0470
  232MOL   H10537527   4.601   7.687   3.134  0.5466 -1.6927  0.6717
  232MOL   C10637528   4.571   7.477   3.284 -0.2447  0.8231  0.0924
  232MOL   C10737529   4.531   7.547   3.412  0.1804 -0.3434  1.1013
  232MOL   C10837530   4.661   7.614   3.469  0.0290 -0.2750 -0.3561
  232MOL   O10937531   4.713   7.712   3.412  0.1514  0.0410 -0.3981
  232MOL   H11037532   4.675   7.495   3.255  1.1045  1.4122  4.8427
  232MOL   H11137533   4.577   7.368   3.290  2.3632  0.7272 -2.5644
  232MOL   H11237534   4.492   7.477   3.486 -0.7857 -1.7443 -0.6713
  232MOL   H11337535   4.445   7.613   3.403 -0.0861 -0.5737  1.9251
  232MOL   C11437536   4.713   7.557   3.606  0.4239 -0.1169  0.0402
  232MOL   C11537537   4.806   7.437   3.585 -0.4573 -0.2914 -0.0985
  232MOL   C11637538   4.952   7.482   3.586  0.2316  0.2180 -0.4328
  232MOL   O11737539   4.990   7.579   3.655 -0.1901 -0.4432 -0.1793
  232MOL   H11837540   4.629   7.526   3.668  0.1423  0.3456 -0.1109
  232MOL   H11937541   4.765   7.637   3.658 -1.6860  0.4944  1.2764
  232MOL   H12037542   4.796   7.390   3.487 -4.6827 -0.5333  0.3493
  232MOL   H12137543   4.800   7.350   3.650 -3.4991 -1.7473 -2.2263
  232MOL   C12237544   5.043   7.419   3.493  0.0240  0.1204  0.0535
  232MOL   C12337545   5.095   7.518   3.396  0.3102  0.5423 -0.5226
  232MOL   C12437546   5.002   7.540   3.275 -0.0719  0.6975  0.5414
  232MOL   O12537547   4.890   7.495   3.271 -0.1732  0.2398  0.0520
  232MOL   H12637548   4.996   7.335   3.441 -0.0034  0.1975 -0.0454
  232MOL   H12737549   5.123   7.363   3.541 -0.1499 -0.2332 -0.0677
  232MOL   H12837550   5.186   7.470   3.357  1.0963  0.2996  1.5608
  232MOL   H12937551   5.112   7.618   3.436  0.3586  0.0061  0.8014
  232MOL   C13037552   5.063   7.622   3.163  0.1485 -0.1234 -0.0263
  232MOL   C13137553   4.969   7.713   3.091 -0.1128  0.2639  0.0406
  232MOL   C13237554   4.924   7.666   2.953 -0.2365 -0.4441  0.3831
  232MOL   O13337555   4.936   7.551   2.920  0.1244 -0.8043  0.6068
  232MOL   H13437556   5.120   7.565   3.090  3.3346  1.8046  0.8743
  232MOL   H13537557   5.143   7.688   3.195  0.2182 -0.6105  0.8400
  232MOL   H13637558   5.020   7.809   3.082 -0.3950  0.8655  3.9009
  232MOL   H13737559   4.879   7.739   3.148 -0.3350  2.3922 -1.2110
  232MOL   C13837560   4.878   7.779   2.860  0.7756 -0.6308 -0.1168
  232MOL   C13937561   4.837   7.719   2.721 -0.1830 -0.8428 -0.0913
  232MOL   C14037562   4.962   7.687   2.638 -0.3676  0.2364  0.6716
  232MOL   O14137563   5.055   7.763   2.637  0.2629  0.2937 -0.1221
  232MOL   H14237564   4.971   7.835   2.848  0.7308 -0.4408  0.4186
  232MOL   H14337565   4.797   7.837   2.903  0.8983 -1.6886  1.5875
  232MOL   H14437566   4.775   7.787   2.662  0.1080  0.7391  1.3934
  232MOL   H14537567   4.775   7.631   2.734 -0.2080 -0.6945  0.7767
  232MOL   C14637568   4.946   7.564   2.553  0.1875  0.4199 -0.3422
  232MOL   C14737569   5.083   7.512   2.504  0.0918  0.2885  0.6943
  232MOL   C14837570   5.148   7.432   2.614  0.0217  0.9842  0.3529
  232MOL   O14937571   5.090   7.385   2.714  0.0308  0.1849 -0.1377
  232MOL   H15037572   4.874   7.584   2.473 -0.1467  0.2851 -0.0783
  232MOL   H15137573   4.895   7.495   2.620 -3.1045  3.7045  0.7427
  232MOL   H15237574   5.145   7.595   2.470 -1.2993  0.3633 -1.7545
  232MOL   H15337575   5.078   7.447   2.417  0.6599  1.1041  0.0556
  232MOL   C15437576   5.299   7.414   2.606 -0.2072  0.2330  0.1627
  232MOL   C15537577   5.354   7.333   2.481 -0.1677 -0.0143  0.4512
  232MOL   C15637578   5.313   7.191   2.463 -0.1441 -0.3157  0.5965
  232MOL   O15737579   5.248   7.155   2.366 -0.2712 -0.4812 -0.2523
  232MOL   H15837580   5.316   7.344   2.688 -1.1022 -0.6577 -0.3948
  232MOL   H15937581   5.356   7.506   2.619 -0.4898  0.2680  1.1810
  232MOL   H16037582   5.459   7.334   2.451 -0.3177  1.6223 -0.0789
  232MOL   H16137583   5.311   7.388   2.397  1.3446  1.4883  0.6371
  232MOL   H16237584   5.347   7.120   2.539  2.4942  1.5925  1.2447
  233MOL     C137585   3.811   2.765   7.269  0.5067  0.4450 -0.1196
  233MOL     C237586   3.706   2.729   7.173 -0.0412 -0.2368 -0.1101
  233MOL     C337587   3.712   2.590   7.109 -0.2830 -0.1202 -0.1089
  233MOL     O437588   3.778   2.503   7.159 -0.6263  0.1934 -0.2789
  233MOL     H537589   3.799   2.872   7.279 -0.6051  0.0499  3.3115
  233MOL     H637590   3.789   2.723   7.367  0.5626  2.1244  0.6262
  233MOL     H737591   3.720   2.795   7.088 -0.9977  0.9864  0.6629
  233MOL     H837592   3.605   2.752   7.205 -0.0204 -1.6552  1.0010
  233MOL     H937593   3.912   2.740   7.236  0.8851 -1.4326  2.3359
  233MOL    C1037594   3.617   2.563   6.995 -0.0459  0.9417 -0.1768
  233MOL    C1137595   3.632   2.432   6.912 -0.2977 -0.4323 -0.1328
  233MOL    C1237596   3.511   2.396   6.825  0.0487  0.5156 -0.1974
  233MOL    O1337597   3.468   2.280   6.823 -0.1843  0.4810  0.2363
  233MOL    H1437598   3.611   2.644   6.923 -2.6879 -0.5346 -1.6969
  233MOL    H1537599   3.518   2.561   7.042 -0.0178 -0.4539 -0.1429
  233MOL    H1637600   3.647   2.353   6.986 -0.4449 -0.4829 -0.1575
  233MOL    H1737601   3.718   2.424   6.845  1.7328 -0.7483  2.4573
  233MOL    C1837602   3.450   2.506   6.743  0.4773  0.2474  0.4463
  233MOL    C1937603   3.311   2.470   6.696  0.3676 -0.0037  0.1860
  233MOL    C2037604   3.267   2.532   6.565 -0.5103  0.1061  0.3709
  233MOL    O2137605   3.346   2.591   6.495  0.3025  0.2716 -0.1267
  233MOL    H2237606   3.518   2.526   6.660 -1.7149 -0.0907 -1.4852
  233MOL    H2337607   3.438   2.592   6.809 -1.1368  0.6094 -0.2818
  233MOL    H2437608   3.233   2.505   6.763  0.1836 -0.7469  0.3642
  233MOL    H2537609   3.283   2.367   6.674 -1.0300  0.5470 -0.6764
  233MOL    C2637610   3.127   2.512   6.521 -0.4230 -0.3172  0.7505
  233MOL    C2737611   3.104   2.526   6.371  0.5508  0.6626 -0.1255
  233MOL    C2837612   2.953   2.529   6.345  0.4809 -0.3440 -0.2675
  233MOL    O2937613   2.874   2.577   6.425 -0.4488 -0.3120  0.2445
  233MOL    H3037614   3.072   2.585   6.580 -1.2901 -1.0539  0.8563
  233MOL    H3137615   3.093   2.414   6.556 -0.2702 -1.5703 -2.4786
  233MOL    H3237616   3.156   2.444   6.320  1.5350  0.9088  0.4789
  233MOL    H3337617   3.142   2.621   6.334 -0.8468  0.3875 -2.3652
  233MOL    C3437618   2.911   2.452   6.216 -0.2881  0.0211 -0.4322
  233MOL    C3537619   2.778   2.506   6.166  0.2717 -0.2047 -0.2576
  233MOL    C3637620   2.743   2.421   6.043 -0.0400  0.4361 -0.1782
  233MOL    O3737621   2.748   2.295   6.049 -0.6298 -0.1991  0.0379
  233MOL    H3837622   2.901   2.344   6.229 -2.6398  0.1539 -0.9842
  233MOL    H3937623   2.981   2.457   6.133 -2.5773 -1.7806 -2.5479
  233MOL    H4037624   2.771   2.615   6.158 -1.2059 -0.3930 -2.0328
  233MOL    H4137625   2.696   2.477   6.232 -0.2325  0.0557 -0.7517
  233MOL    C4237626   2.705   2.499   5.914 -0.3377 -0.4978  0.0427
  233MOL    C4337627   2.681   2.408   5.792  0.6011  0.3865  0.6932
  233MOL    C4437628   2.804   2.357   5.712  0.0908  0.0232  0.2668
  233MOL    O4537629   2.901   2.440   5.698 -0.0041 -0.3665 -0.6149
  233MOL    H4637630   2.783   2.566   5.879  1.1920 -1.4366  1.5954
  233MOL    H4737631   2.621   2.567   5.929  0.6045  0.4202  1.1909
  233MOL    H4837632   2.625   2.459   5.713  0.8450 -2.1261 -1.1553
  233MOL    H4937633   2.626   2.316   5.814 -1.0683  1.3685  0.7029
  233MOL    C5037634   2.802   2.216   5.652  0.6732 -0.2653  0.4966
  233MOL    C5137635   2.666   2.160   5.608 -0.0861  0.0607  0.4047
  233MOL    C5237636   2.641   2.181   5.455 -0.4843  0.0322  0.4084
  233MOL    O5337637   2.729   2.193   5.369 -0.5593  0.0968 -0.2411
  233MOL    H5437638   2.845   2.153   5.730  1.3875  1.8791  1.8741
  233MOL    H5537639   2.885   2.221   5.583  0.8981 -0.1007  0.7752
  233MOL    H5637640   2.583   2.203   5.665  0.1551  0.3205  0.5628
  233MOL    H5737641   2.672   2.055   5.637 -1.0529  0.0846  0.7093
  233MOL    C5837642   2.503   2.161   5.404  0.3049 -0.0050  0.5757
  233MOL    C5937643   2.487   2.180   5.256 -0.2984  0.7493 -0.0278
  233MOL    C6037644   2.482   2.323   5.212  0.1650 -0.4421 -0.1043
  233MOL    O6137645   2.463   2.414   5.294 -0.0440 -0.3727  0.0032
  233MOL    H6237646   2.444   2.231   5.463  0.7454  0.8678 -0.0105
  233MOL    H6337647   2.483   2.059   5.438  2.6478 -1.3598 -1.9372
  233MOL    H6437648   2.392   2.132   5.233 -0.2308  0.0931  0.9916
  233MOL    H6537649   2.568   2.122   5.211  0.9763  3.4976 -1.3455
  233MOL    C6637650   2.477   2.357   5.060 -0.3070 -0.2503 -0.0710
  233MOL    C6737651   2.441   2.503   5.022  0.1567 -0.7273 -0.2800
  233MOL    C6837652   2.340   2.526   4.914 -0.2835 -0.2528 -0.9172
  233MOL    O6937653   2.348   2.456   4.815  0.5663 -0.0905 -0.2212
  233MOL    H7037654   2.404   2.289   5.016  1.2437 -1.5311 -0.7226
  233MOL    H7137655   2.568   2.339   5.003  0.2327  0.2481  0.6390
  233MOL    H7237656   2.535   2.556   5.001 -0.2710  0.7477  1.4409
  233MOL    H7337657   2.409   2.557   5.110 -0.7059  0.0268 -1.0513
  233MOL    C7437658   2.221   2.624   4.935  0.3554 -0.3341  0.0775
  233MOL    C7537659   2.110   2.617   4.830  0.6361  0.3856 -0.2383
  233MOL    C7637660   2.075   2.756   4.782  0.5827  0.2965 -0.5783
  233MOL    O7737661   1.973   2.801   4.817 -0.1074 -0.5660  0.3104
  233MOL    H7837662   2.276   2.717   4.926 -1.1040  0.6117  0.7178
  233MOL    H7937663   2.183   2.622   5.037  2.5389  1.0352  0.9362
  233MOL    H8037664   2.025   2.559   4.867  1.4711 -0.4208  0.4573
  233MOL    H8137665   2.126   2.568   4.734  1.1820  1.6519 -0.7980
  233MOL    C8237666   2.172   2.825   4.685 -0.0216 -1.3526 -0.4441
  233MOL    C8337667   2.161   2.977   4.691  0.0890 -0.3491  0.0083
  233MOL    C8437668   2.263   3.048   4.609  0.7103 -0.1669 -0.1261
  233MOL    O8537669   2.342   2.980   4.545  0.0543  0.3370  0.0420
  233MOL    H8637670   2.151   2.802   4.580 -1.3967  0.7777 -0.6685
  233MOL    H8737671   2.276   2.810   4.713  0.4522  2.8301  0.3215
  233MOL    H8837672   2.162   3.023   4.790  3.4116 -3.1772  1.4303
  233MOL    H8937673   2.062   3.000   4.654  0.6383  1.1771 -0.5279
  233MOL    C9037674   2.261   3.200   4.609  0.2377 -0.1253  0.3897
  233MOL    C9137675   2.388   3.253   4.683  0.4421  0.5782 -0.2067
  233MOL    C9237676   2.476   3.349   4.603 -0.1941 -0.5366 -0.1246
  233MOL    O9337677   2.443   3.387   4.490 -0.5486 -0.1194 -0.5610
  233MOL    H9437678   2.176   3.224   4.672 -1.9645 -0.4943 -2.3376
  233MOL    H9537679   2.240   3.242   4.510  0.8030  1.6111  0.9912
  233MOL    H9637680   2.456   3.171   4.704 -1.1925 -1.0463 -1.0519
  233MOL    H9737681   2.355   3.304   4.773 -1.4165  1.7988 -1.5430
  233MOL    C9837682   2.595   3.406   4.673 -0.0913  0.2516  0.1362
  233MOL    C9937683   2.702   3.300   4.693 -0.1980 -0.4653  0.3278
  233MOL   C10037684   2.733   3.278   4.841 -0.0171 -0.2358  0.0926
  233MOL   O10137685   2.649   3.309   4.922  0.2573 -0.2418  0.6050
  233MOL   H10237686   2.574   3.469   4.759  2.2318  2.4640 -0.8426
  233MOL   H10337687   2.621   3.490   4.608 -0.5246  1.7614  1.8661
  233MOL   H10437688   2.787   3.348   4.645  0.1296  0.1178  1.4653
  233MOL   H10537689   2.683   3.206   4.641 -1.1994 -0.3763  0.5147
  233MOL   C10637690   2.862   3.213   4.866 -0.4317 -0.7025  0.1756
  233MOL   C10737691   2.914   3.226   5.008 -0.9614 -0.2982  0.5986
  233MOL   C10837692   3.011   3.345   5.009  0.0855 -0.0486  0.1427
  233MOL   O10937693   2.987   3.448   4.947 -0.3005  0.1683 -0.1265
  233MOL   H11037694   2.941   3.253   4.802 -0.9849  0.0078 -0.0663
  233MOL   H11137695   2.852   3.108   4.838 -1.4699 -1.7905  4.3365
  233MOL   H11237696   2.966   3.133   5.030 -2.0809 -1.6494 -2.2399
  233MOL   H11337697   2.837   3.244   5.083 -0.5613 -0.5449  1.0704
  233MOL   C11437698   3.146   3.328   5.074 -0.2726 -0.0155  0.4968
  233MOL   C11537699   3.181   3.412   5.201  0.4759  0.0049 -0.9956
  233MOL   C11637700   3.123   3.358   5.327 -0.1214 -0.5732 -0.4402
  233MOL   O11737701   3.117   3.238   5.341  0.4622 -0.6686  0.0797
  233MOL   H11837702   3.224   3.350   5.001  0.6070  0.7080  1.6573
  233MOL   H11937703   3.153   3.223   5.105 -3.0536 -0.4804 -0.2220
  233MOL   H12037704   3.171   3.520   5.195 -1.6641 -0.0798  0.4650
  233MOL   H12137705   3.289   3.402   5.216  0.8518  0.6614 -3.1309
  233MOL   C12237706   3.079   3.455   5.438  0.7806 -0.2652 -0.1704
  233MOL   C12337707   3.118   3.402   5.574  0.2813 -0.0984 -0.9042
  233MOL   C12437708   3.198   3.499   5.665 -0.6970 -0.4112  0.1417
  233MOL   O12537709   3.238   3.613   5.637 -0.4903 -0.4500  0.4229
  233MOL   H12637710   2.972   3.471   5.425  0.7879  0.4144  0.5482
  233MOL   H12737711   3.121   3.554   5.424 -2.4353  1.3025  0.9089
  233MOL   H12837712   3.178   3.312   5.576  0.9515  0.3483  2.0771
  233MOL   H12937713   3.021   3.387   5.623  0.7879 -0.9046 -0.1376
  233MOL   C13037714   3.218   3.446   5.808  0.8224  0.0653  0.4757
  233MOL   C13137715   3.290   3.546   5.901  0.4397 -0.3075  0.1443
  233MOL   C13237716   3.304   3.494   6.043 -0.1287 -0.0980 -0.6627
  233MOL   O13337717   3.244   3.556   6.130  0.2151 -0.3902  0.4524
  233MOL   H13437718   3.265   3.347   5.804 -0.6214 -0.6124 -0.0314
  233MOL   H13537719   3.117   3.427   5.845  0.5892  0.8095  0.2132
  233MOL   H13637720   3.232   3.638   5.904  0.9619  0.0297  0.0419
  233MOL   H13737721   3.379   3.593   5.858  0.3568 -1.6286 -1.4913
  233MOL   C13837722   3.388   3.369   6.070 -0.0613 -0.6085 -0.1025
  233MOL   C13937723   3.435   3.365   6.221  0.2344 -0.2271  0.3004
  233MOL   C14037724   3.556   3.447   6.255  0.1077 -0.2772  0.4518
  233MOL   O14137725   3.600   3.542   6.182 -0.0771 -0.1549  0.0201
  233MOL   H14237726   3.473   3.375   6.002 -0.1390 -0.1936 -0.1667
  233MOL   H14337727   3.327   3.279   6.055 -1.9996  0.7268 -0.4747
  233MOL   H14437728   3.447   3.260   6.245  0.6647 -0.2243  0.1086
  233MOL   H14537729   3.346   3.386   6.281 -0.0624  1.0019 -0.5384
  233MOL   C14637730   3.618   3.413   6.385 -0.4147 -0.4174 -0.1457
  233MOL   C14737731   3.698   3.530   6.436  0.0864 -0.2646 -0.2342
  233MOL   C14837732   3.848   3.525   6.411  0.4508  0.0673 -1.1204
  233MOL   O14937733   3.912   3.422   6.388 -0.2239 -0.1080 -0.2118
  233MOL   H15037734   3.670   3.318   6.377 -1.1874 -1.0573  2.2193
  233MOL   H15137735   3.534   3.399   6.452  0.7784  0.3156  1.5276
  233MOL   H15237736   3.691   3.533   6.544  0.1971 -0.8120 -0.2103
  233MOL   H15337737   3.658   3.627   6.406  1.3234  0.2524 -0.2306
  233MOL   C15437738   3.916   3.662   6.420  0.2429 -0.2550  0.3271
  233MOL   C15537739   3.927   3.729   6.280 -0.3495  0.2338  0.8016
  233MOL   C15637740   4.078   3.725   6.233 -0.4551  0.7977 -0.9992
  233MOL   O15737741   4.160   3.796   6.291  0.3630 -0.4284 -0.2293
  233MOL   H15837742   4.009   3.638   6.470 -0.6438  0.5532  2.4497
  233MOL   H15937743   3.864   3.733   6.485 -3.4479 -2.6143  0.1058
  233MOL   H16037744   3.910   3.837   6.281  0.3495  0.5697 -5.1887
  233MOL   H16137745   3.860   3.677   6.211 -0.9396  0.7656  0.9706
  233MOL   H16237746   4.099   3.656   6.151 -0.7610  2.4460 -2.4996
  234MOL     C137747   6.742   6.387   3.279 -0.6979  0.8456  0.3406
  234MOL     C237748   6.679   6.447   3.401  0.0635 -0.6540 -0.3154
  234MOL     C337749   6.692   6.598   3.395  0.1787 -0.7512 -0.7578
  234MOL     O437750   6.730   6.655   3.294 -0.0622  0.2248 -0.5580
  234MOL     H537751   6.709   6.440   3.190 -0.0965  1.0936  0.2662
  234MOL     H637752   6.847   6.385   3.306 -0.3381  3.0357 -0.7687
  234MOL     H737753   6.737   6.419   3.489  0.5220  0.0431 -0.3836
  234MOL     H837754   6.578   6.408   3.409  0.1274 -0.5849  1.0092
  234MOL     H937755   6.698   6.287   3.267  1.7803 -0.1265 -0.9513
  234MOL    C1037756   6.669   6.671   3.522 -0.4948 -0.5231  0.3244
  234MOL    C1137757   6.764   6.782   3.544  0.1238 -0.4640  0.5309
  234MOL    C1237758   6.688   6.908   3.590 -0.4127  0.4826 -0.1003
  234MOL    O1337759   6.605   6.960   3.516 -0.5783  0.6571  0.2820
  234MOL    H1437760   6.674   6.612   3.613 -0.6531  0.0141  0.6775
  234MOL    H1537761   6.567   6.706   3.503 -0.4301 -2.0799 -3.6072
  234MOL    H1637762   6.818   6.805   3.453  1.1078  0.8060  1.4289
  234MOL    H1737763   6.831   6.762   3.628  0.4755  0.6965  0.5352
  234MOL    C1837764   6.730   6.967   3.725 -0.4793  0.1894  0.0578
  234MOL    C1937765   6.668   7.105   3.747 -0.1620 -0.0841 -0.2316
  234MOL    C2037766   6.762   7.221   3.787 -0.5618 -0.2160 -0.1454
  234MOL    O2137767   6.885   7.210   3.779  0.3082 -0.4264 -0.8187
  234MOL    H2237768   6.839   6.966   3.728 -0.4004  0.1282 -2.2569
  234MOL    H2337769   6.694   6.900   3.803  0.1538 -0.0639  0.1373
  234MOL    H2437770   6.588   7.087   3.818  0.4447 -1.0600  0.2021
  234MOL    H2537771   6.621   7.132   3.652 -1.7321 -0.3786  0.4504
  234MOL    C2637772   6.702   7.350   3.830  0.0480 -0.3495 -0.4896
  234MOL    C2737773   6.803   7.476   3.840  0.4811  0.1516 -0.6183
  234MOL    C2837774   6.737   7.612   3.809 -0.5584  0.2787  0.5517
  234MOL    O2937775   6.616   7.622   3.796 -0.0588  0.0637  0.5855
  234MOL    H3037776   6.646   7.334   3.922 -0.2960 -1.7139 -0.9382
  234MOL    H3137777   6.630   7.371   3.751 -0.3343 -1.3746 -0.4185
  234MOL    H3237778   6.895   7.463   3.784  1.0680  0.4992  0.2432
  234MOL    H3337779   6.845   7.497   3.939  0.4937 -1.5257 -0.2522
  234MOL    C3437780   6.830   7.736   3.810  0.8180 -0.0252 -0.2384
  234MOL    C3537781   6.757   7.849   3.885  0.1727 -0.3153  0.1250
  234MOL    C3637782   6.665   0.079   3.798  0.3983 -0.4670  0.2963
  234MOL    O3737783   6.684   0.105   3.678  0.0604  0.0044 -0.6757
  234MOL    H3837784   6.868   7.773   3.715  0.3715  0.7710 -0.1154
  234MOL    H3937785   6.921   7.723   3.868 -0.0013 -0.8633  0.8763
  234MOL    H4037786   6.832   0.057   3.928  0.1485 -0.3616  0.2391
  234MOL    H4137787   6.710   7.797   3.968  0.4159 -0.9610 -0.1325
  234MOL    C4237788   6.550   0.148   3.881  0.2003 -0.7676  0.4105
  234MOL    C4337789   6.454   0.234   3.793  0.0141 -0.3116 -0.5970
  234MOL    C4437790   6.322   0.244   3.871  0.0598 -0.1602  0.6043
  234MOL    O4537791   6.265   0.143   3.903 -0.7261  0.4321 -0.8544
  234MOL    H4637792   6.595   0.212   3.956 -0.4260  0.8710 -0.5874
  234MOL    H4737793   6.498   0.064   3.927  2.9755 -2.2691  0.9418
  234MOL    H4837794   6.427   0.196   3.695 -0.1135 -2.6494  0.3096
  234MOL    H4937795   6.512   0.326   3.780 -0.2216 -0.1785 -0.6995
  234MOL    C5037796   6.252   0.381   3.879  0.0553  0.1267  0.1023
  234MOL    C5137797   6.101   0.368   3.931 -0.0211  0.0099  0.0131
  234MOL    C5237798   6.040   0.498   3.972 -0.6643  0.3599  0.7176
  234MOL    O5337799   6.101   0.602   3.942  0.6828 -0.0912 -0.4354
  234MOL    H5437800   6.250   0.408   3.774 -1.3669 -0.0880  0.0649
  234MOL    H5537801   6.306   0.453   3.941  2.6287 -0.3161 -1.5406
  234MOL    H5637802   6.116   0.308   4.020  1.9511 -0.3834 -0.5550
  234MOL    H5737803   6.030   0.308   3.874 -1.2639  1.7702 -0.3583
  234MOL    C5837804   5.897   0.501   4.037 -0.8185 -0.7292  0.0679
  234MOL    C5937805   5.823   0.633   4.024 -0.2264 -0.4054  0.9109
  234MOL    C6037806   5.752   0.631   3.888 -0.1292  0.0103  0.0526
  234MOL    O6137807   5.811   0.667   3.785  0.3185 -0.3258  0.0515
  234MOL    H6237808   5.909   0.480   4.143  0.0609  0.4221  0.2151
  234MOL    H6337809   5.841   0.417   3.996  0.3356 -0.3523 -2.3457
  234MOL    H6437810   5.885   0.722   4.028  1.5778 -1.3945 -2.9149
  234MOL    H6537811   5.746   0.638   4.101 -1.5401 -0.6654 -0.3630
  234MOL    C6637812   5.598   0.600   3.886 -0.6253 -0.7205 -0.6750
  234MOL    C6737813   5.507   0.716   3.858  0.7305  0.1852 -0.1714
  234MOL    C6837814   5.358   0.676   3.857 -0.8906  0.2282  0.3851
  234MOL    O6937815   5.315   0.560   3.873 -0.5344 -0.0880  0.1986
  234MOL    H7037816   5.586   0.563   3.988  0.4379  2.0692  0.5275
  234MOL    H7137817   5.576   0.514   3.823  0.6556 -0.4196 -1.5477
  234MOL    H7237818   5.530   0.767   3.765  0.0201  1.5794  0.4041
  234MOL    H7337819   5.524   0.798   3.927 -1.2285 -0.0325  0.6007
  234MOL    C7437820   5.264   0.788   3.820  0.3444  0.5851  0.1988
  234MOL    C7537821   5.121   0.745   3.839 -0.1665 -0.0362 -0.5276
  234MOL    C7637822   5.054   0.691   3.714 -0.4074  0.0286 -0.1405
  234MOL    O7737823   5.107   0.697   3.601  0.6091 -0.8896  0.5467
  234MOL    H7837824   5.291   0.815   3.718  0.0963  0.7145  0.1666
  234MOL    H7937825   5.272   0.883   3.872  0.5401 -0.7406  2.6666
  234MOL    H8037826   5.067   0.834   3.870 -0.2867 -0.0152 -0.8050
  234MOL    H8137827   5.114   0.673   3.921  1.3962  0.4264  0.0391
  234MOL    C8237828   4.914   0.619   3.729  1.0005  0.1361  0.3937
  234MOL    C8337829   4.853   0.550   3.600  0.2381  0.3076 -0.5977
  234MOL    C8437830   4.697   0.552   3.606 -0.1882 -0.0778  0.2155
  234MOL    O8537831   4.637   0.609   3.515 -0.5098  0.1818 -0.7818
  234MOL    H8637832   4.845   0.695   3.763  0.0500 -0.7124  0.3725
  234MOL    H8737833   4.915   0.537   3.801 -0.6738  0.6294  0.9944
  234MOL    H8837834   4.886   0.447   3.586 -1.4884  0.1936 -4.1313
  234MOL    H8937835   4.886   0.607   3.513 -1.3300 -0.1534 -1.5038
  234MOL    C9037836   4.621   0.508   3.732 -0.1609  0.2094 -0.4758
  234MOL    C9137837   4.486   0.439   3.702  0.4480  0.1981 -0.1950
  234MOL    C9237838   4.365   0.498   3.764 -0.1692 -0.1824  0.3470
  234MOL    O9337839   4.373   0.591   3.846  0.6409  0.1162  0.6510
  234MOL    H9437840   4.617   0.586   3.808 -2.1099  1.9658 -2.3305
  234MOL    H9537841   4.683   0.431   3.780  1.0681  2.2454  1.3083
  234MOL    H9637842   4.492   0.333   3.729 -0.4009  0.1177 -0.3125
  234MOL    H9737843   4.460   0.436   3.596  0.3784 -0.2195 -0.1674
  234MOL    C9837844   4.234   0.427   3.737 -0.4083 -0.0843 -0.3452
  234MOL    C9937845   4.107   0.510   3.759 -0.3662  0.4018 -0.5002
  234MOL   C10037846   4.044   0.466   3.900 -1.0767 -0.7691  0.2702
  234MOL   O10137847   4.083   0.367   3.962  0.2698  0.3550 -0.3063
  234MOL   H10237848   4.232   0.323   3.768 -0.2789 -0.1908 -0.6948
  234MOL   H10337849   4.233   0.432   3.628  0.3873  0.6155 -0.3244
  234MOL   H10437850   4.046   0.501   3.669 -0.3660  0.7706 -0.5414
  234MOL   H10537851   4.127   0.617   3.764 -0.3619  0.3921 -0.3211
  234MOL   C10637852   3.916   0.533   3.940  0.6315  0.6223 -0.3229
  234MOL   C10737853   3.919   0.684   3.951  0.0631 -0.0462  0.4175
  234MOL   C10837854   3.872   0.759   3.826 -0.0348  0.5094  0.0275
  234MOL   O10937855   3.798   0.703   3.748 -0.4760 -0.4068  0.2421
  234MOL   H11037856   3.888   0.491   4.036 -0.1042  0.8615 -0.4333
  234MOL   H11137857   3.846   0.499   3.865 -0.7909  1.2007  0.7236
  234MOL   H11237858   4.018   0.713   3.987  0.8203 -1.7072 -0.2997
  234MOL   H11337859   3.844   0.707   4.027  1.4006  3.7715  0.7197
  234MOL   C11437860   3.942   0.889   3.794 -0.0105  0.3312  0.2571
  234MOL   C11537861   4.052   0.850   3.702 -0.4499  0.1611 -0.2693
  234MOL   C11637862   4.199   0.892   3.739  0.3464 -0.2583 -0.4499
  234MOL   O11737863   4.223   0.924   3.856 -0.5081 -0.5480  0.1115
  234MOL   H11837864   3.970   0.938   3.888 -0.1270 -0.5079  0.7362
  234MOL   H11937865   3.875   0.959   3.744 -0.2916 -0.5177 -0.5497
  234MOL   H12037866   4.037   0.923   3.622  3.1704  0.0470 -1.1598
  234MOL   H12137867   4.052   0.750   3.660  2.3216  0.7559 -1.8706
  234MOL   C12237868   4.303   0.879   3.629  0.3040  0.8343  0.3832
  234MOL   C12337869   4.446   0.880   3.684  0.8639  0.5606  0.0956
  234MOL   C12437870   4.501   1.015   3.721 -0.3990 -0.7725  0.0382
  234MOL   O12537871   4.510   1.103   3.636 -0.4411 -0.3661 -0.0827
  234MOL   H12637872   4.284   0.969   3.570  0.0917  2.8679  3.4458
  234MOL   H12737873   4.287   0.787   3.573  0.6753 -1.9953  4.7253
  234MOL   H12837874   4.510   0.831   3.611  0.5102 -1.0976  0.8689
  234MOL   H12937875   4.448   0.814   3.771  0.8646  3.4956  2.4207
  234MOL   C13037876   4.577   1.020   3.854 -0.9921 -0.7452 -0.2581
  234MOL   C13137877   4.685   1.133   3.847  0.4066 -0.0571 -0.4389
  234MOL   C13237878   4.831   1.091   3.860  0.1161 -0.1992 -0.5858
  234MOL   O13337879   4.859   0.979   3.895  0.0789  0.5992 -0.3755
  234MOL   H13437880   4.618   0.919   3.864 -0.3397 -0.5358 -0.7843
  234MOL   H13537881   4.510   1.029   3.939 -0.1673 -0.1710  0.3305
  234MOL   H13637882   4.684   1.209   3.926  1.4861  0.6754 -1.1126
  234MOL   H13737883   4.683   1.190   3.754 -1.9468  1.2590  0.3701
  234MOL   C13837884   4.943   1.196   3.840 -0.8019 -0.5783 -0.1331
  234MOL   C13937885   5.073   1.170   3.924  0.7880 -0.3055  0.1662
  234MOL   C14037886   5.100   1.266   4.039 -0.7327 -0.0451  0.1571
  234MOL   O14137887   5.029   1.368   4.053  0.2003 -0.0771  0.1685
  234MOL   H14237888   4.905   1.296   3.860  0.0006 -0.7439  2.4252
  234MOL   H14337889   4.969   1.204   3.735 -0.3559 -2.2700 -0.1748
  234MOL   H14437890   5.164   1.159   3.866  1.1787  3.3698 -0.0515
  234MOL   H14537891   5.048   1.077   3.976  1.6304 -1.0128 -0.6857
  234MOL   C14637892   5.218   1.233   4.131  0.1805 -0.6037 -0.1057
  234MOL   C14737893   5.228   1.320   4.265 -0.0179  0.3342  0.7881
  234MOL   C14837894   5.352   1.406   4.273  0.6660  0.6864  0.1798
  234MOL   O14937895   5.466   1.370   4.230 -0.3048 -0.0120  0.1278
  234MOL   H15037896   5.308   1.249   4.071 -0.2248  0.1338 -0.5202
  234MOL   H15137897   5.224   1.126   4.154  1.9035 -0.0921  1.9558
  234MOL   H15237898   5.252   1.240   4.335  0.5692 -0.5611 -0.4056
  234MOL   H15337899   5.134   1.355   4.306 -0.1077  0.8936  0.1227
  234MOL   C15437900   5.325   1.546   4.327 -0.4867 -0.2657 -0.8079
  234MOL   C15537901   5.446   1.643   4.348  0.0127  0.0012 -0.6476
  234MOL   C15637902   5.545   1.603   4.454 -0.3669  0.0212 -0.4270
  234MOL   O15737903   5.508   1.526   4.541  0.2228  0.0022  0.1666
  234MOL   H15837904   5.282   1.543   4.427 -0.4128  1.7050 -0.6856
  234MOL   H15937905   5.241   1.599   4.282  0.9780  3.1445  0.2541
  234MOL   H16037906   5.391   1.731   4.381  0.5245 -0.4407  1.4623
  234MOL   H16137907   5.493   1.674   4.255 -1.2804  0.2944 -1.2180
  234MOL   H16237908   5.645   1.647   4.452 -0.6674  0.7146 -0.3368
  235MOL     C137909   6.577   4.126   3.495  0.2573  0.2758  0.1719
  235MOL     C237910   6.506   4.060   3.615  0.5992 -0.5057 -0.0701
  235MOL     C337911   6.452   4.174   3.698  0.7747 -0.2764  0.1687
  235MOL     O437912   6.457   4.292   3.665  0.4178 -0.2709 -0.0733
  235MOL     H537913   6.502   4.169   3.429 -1.0871 -1.2362  0.6845
  235MOL     H637914   6.642   4.203   3.538 -0.6582  1.7963 -1.1188
  235MOL     H737915   6.579   4.015   3.682  0.1029  0.3696  1.0619
  235MOL     H837916   6.421   3.992   3.602 -0.4254  0.8022 -0.3172
  235MOL     H937917   6.633   4.051   3.440 -0.0136  0.7459 -0.7400
  235MOL    C1037918   6.390   4.134   3.832  0.1282  0.3032  0.1784
  235MOL    C1137919   6.385   4.245   3.940 -0.6166 -0.0829 -0.1973
  235MOL    C1237920   6.271   4.238   4.041 -0.6383  0.2796  0.1396
  235MOL    O1337921   6.187   4.150   4.025 -0.1864 -0.3903  0.8741
  235MOL    H1437922   6.436   4.044   3.873 -2.1591 -1.5950 -1.2896
  235MOL    H1537923   6.289   4.112   3.798  1.0817 -1.2418 -1.7838
  235MOL    H1637924   6.358   4.342   3.897  0.7285  0.1925 -0.4552
  235MOL    H1737925   6.478   4.242   3.997 -1.4729 -0.2424  1.2020
  235MOL    C1837926   6.266   4.347   4.145 -0.5135 -0.4175  0.5162
  235MOL    C1937927   6.193   4.308   4.274  0.2246  0.4401 -0.3242
  235MOL    C2037928   6.090   4.413   4.302 -0.2598  0.3497 -0.4788
  235MOL    O2137929   6.109   4.506   4.380 -0.2688 -0.2142 -0.3258
  235MOL    H2237930   6.233   4.435   4.089 -0.6523 -1.3394 -0.8665
  235MOL    H2337931   6.366   4.383   4.168 -0.3930 -1.0261  0.9468
  235MOL    H2437932   6.269   4.310   4.352  1.7818 -3.8924 -1.6243
  235MOL    H2537933   6.146   4.210   4.283  1.0143  0.1347  0.6470
  235MOL    C2637934   5.951   4.396   4.243  0.2503 -0.2411 -0.0480
  235MOL    C2737935   5.873   4.532   4.225 -0.3628  0.6185 -0.9632
  235MOL    C2837936   5.926   4.601   4.101 -0.2459 -0.3648 -0.3705
  235MOL    O2937937   5.953   4.531   4.002 -0.5787 -0.6950  0.6327
  235MOL    H3037938   5.902   4.325   4.309  0.6777  2.1891  2.9552
  235MOL    H3137939   5.971   4.343   4.149 -1.4518 -1.4103  0.2260
  235MOL    H3237940   5.897   4.595   4.311 -1.0775 -0.1033 -0.2335
  235MOL    H3337941   5.767   4.505   4.223  0.2066 -1.6221 -3.0210
  235MOL    C3437942   5.931   4.748   4.092  0.2066 -0.1776  0.7274
  235MOL    C3537943   5.870   4.804   3.969  0.0458 -0.3955 -0.4290
  235MOL    C3637944   5.763   4.902   3.989  0.8801  0.2605 -0.2632
  235MOL    O3737945   5.762   4.975   4.090 -0.5160  0.1441  0.3118
  235MOL    H3837946   6.039   4.762   4.095  0.3207 -0.7475 -0.4225
  235MOL    H3937947   5.884   4.797   4.177  0.9362 -0.3029  1.2097
  235MOL    H4037948   5.852   4.738   3.884  0.2387  0.5787 -1.2354
  235MOL    H4137949   5.949   4.866   3.926 -0.0057 -1.2881 -1.8368
  235MOL    C4237950   5.665   4.911   3.874 -0.1464 -0.1759  0.0851
  235MOL    C4337951   5.567   5.016   3.892 -0.0165  0.4312  0.3192
  235MOL    C4437952   5.449   5.016   3.790  0.1740 -0.5389 -0.4357
  235MOL    O4537953   5.334   4.990   3.826  0.0355 -0.0648  0.0110
  235MOL    H4637954   5.605   4.821   3.865  0.5869 -0.7746  1.1115
  235MOL    H4737955   5.729   4.916   3.785  1.8494 -0.7162  1.4505
  235MOL    H4837956   5.615   5.114   3.888 -0.3486  0.6179  0.8223
  235MOL    H4937957   5.532   5.004   3.995  0.9473  0.5496  0.6676
  235MOL    C5037958   5.488   5.046   3.646 -0.3685 -0.4637 -0.3345
  235MOL    C5137959   5.388   5.004   3.542  0.0838  0.0019  0.2220
  235MOL    C5237960   5.423   4.889   3.451 -0.4593  0.1461 -0.1551
  235MOL    O5337961   5.521   4.811   3.479 -0.1470 -0.6984  0.5484
  235MOL    H5437962   5.589   5.016   3.621 -0.0446 -0.2418  0.6733
  235MOL    H5537963   5.488   5.155   3.647  0.9338 -0.4450  3.6790
  235MOL    H5637964   5.369   5.091   3.479 -1.8478  0.2575  1.1185
  235MOL    H5737965   5.287   4.981   3.577 -0.2830 -0.6543 -1.2277
  235MOL    C5837966   5.353   4.888   3.314  0.9426 -0.0721 -0.0725
  235MOL    C5937967   5.384   4.771   3.218 -0.3768  0.1031  0.2419
  235MOL    C6037968   5.519   4.779   3.157 -0.2343  0.8512  0.3140
  235MOL    O6137969   5.581   4.885   3.152  0.7839  0.4298  0.1169
  235MOL    H6237970   5.360   4.989   3.274 -1.1187  0.2438  0.3138
  235MOL    H6337971   5.256   4.862   3.358  0.8100 -0.2039 -0.4421
  235MOL    H6437972   5.310   4.761   3.138  0.6496 -1.9453 -0.4706
  235MOL    H6537973   5.387   4.680   3.278 -0.3180  0.1388  0.2931
  235MOL    C6637974   5.578   4.650   3.088 -0.0949  0.0614  0.6459
  235MOL    C6737975   5.675   4.578   3.175 -0.3347  0.0094 -0.1877
  235MOL    C6837976   5.818   4.583   3.116  0.3133 -0.1157 -0.3356
  235MOL    O6937977   5.905   4.655   3.165  0.8338 -0.6687  0.1610
  235MOL    H7037978   5.618   4.695   2.997  1.4048  0.6437  1.5765
  235MOL    H7137979   5.490   4.590   3.066 -0.8050  1.4066 -0.2977
  235MOL    H7237980   5.640   4.480   3.205 -0.2570 -0.4546 -1.5503
  235MOL    H7337981   5.687   4.635   3.267  1.4850 -0.5275 -0.0649
  235MOL    C7437982   5.849   4.498   2.992 -0.4616  0.6483 -0.8575
  235MOL    C7537983   5.997   4.484   2.951 -0.1819 -0.3849  0.6491
  235MOL    C7637984   6.014   4.406   2.820 -0.1533 -0.0877  0.0581
  235MOL    O7737985   5.962   4.296   2.801 -0.0437 -0.2259  0.1804
  235MOL    H7837986   5.789   4.540   2.912 -2.9486 -0.1930  0.4788
  235MOL    H7937987   5.802   4.401   3.010 -0.0548  0.6276  0.1480
  235MOL    H8037988   6.056   4.453   3.038  0.6269  0.7189  0.5080
  235MOL    H8137989   6.038   4.582   2.926 -0.7083 -0.3465 -0.0626
  235MOL    C8237990   6.106   4.465   2.706 -0.3221 -0.2594 -0.3055
  235MOL    C8337991   6.137   4.375   2.583  0.1237 -0.1212 -0.1736
  235MOL    C8437992   6.272   4.303   2.599  0.4231 -0.0698  0.4973
  235MOL    O8537993   6.333   4.298   2.707 -0.5011  0.4414 -0.0799
  235MOL    H8637994   6.201   4.504   2.742  0.6444  1.5444 -4.5456
  235MOL    H8737995   6.057   4.553   2.664 -0.2683 -0.6391 -1.1637
  235MOL    H8837996   6.142   4.437   2.494  0.1590  1.2878  0.7882
  235MOL    H8937997   6.066   4.294   2.566 -0.5792 -0.0726  2.3273
  235MOL    C9037998   6.331   4.235   2.476 -0.1223  0.6853  0.1774
  235MOL    C9137999   6.442   4.132   2.497  0.1306  0.5598  0.7507
  235MOL    C9238000   6.529   4.113   2.375  0.2124 -0.2491  0.0028
  235MOL    O9338001   6.525   4.186   2.277 -0.0935 -0.1223 -0.1239
  235MOL    H9438002   6.368   4.320   2.419  0.9285  0.4749  0.5162
  235MOL    H9538003   6.253   4.203   2.407 -1.7886  1.0415  1.8787
  235MOL    H9638004   6.393   4.035   2.503 -0.6374  0.8459 -0.6460
  235MOL    H9738005   6.497   4.140   2.590 -0.6712  1.9490  1.1206
  235MOL    C9838006   6.633   4.001   2.395  0.1563  0.8138 -0.4795
  235MOL    C9938007   6.672   3.935   2.257  0.1516  0.1801  0.0249
  235MOL   C10038008   6.590   3.810   2.233 -0.4164 -1.1438 -0.1507
  235MOL   O10138009   6.501   3.769   2.307 -0.3583  0.9317  0.3018
  235MOL   H10238010   6.591   3.920   2.455  0.9031  0.1463 -0.8517
  235MOL   H10338011   6.721   4.032   2.451  1.1072  0.1622 -1.5988
  235MOL   H10438012   6.779   3.919   2.241 -0.3658  0.0400 -3.6907
  235MOL   H10538013   6.638   4.001   2.178  2.0473 -0.4044 -1.3298
  235MOL   C10638014   6.599   3.746   2.093 -0.4016 -0.5210  0.4523
  235MOL   C10738015   6.468   3.672   2.042 -0.1636  0.0743 -0.3109
  235MOL   C10838016   6.435   3.710   1.904  0.6831  0.3691 -0.1380
  235MOL   O10938017   6.507   3.786   1.845  0.2837  0.4632  0.1176
  235MOL   H11038018   6.683   3.678   2.080  0.4287  0.2591  1.7416
  235MOL   H11138019   6.634   3.828   2.030 -1.3873 -0.1462  0.3861
  235MOL   H11238020   6.382   3.701   2.102  1.4578  0.8103  1.7311
  235MOL   H11338021   6.473   3.563   2.051 -1.6935  0.1330  1.5169
  235MOL   C11438022   6.304   3.666   1.845 -0.4325 -0.0805  0.6320
  235MOL   C11538023   6.210   3.786   1.820  0.0867  0.1975 -0.0706
  235MOL   C11638024   6.108   3.774   1.700 -0.8035 -0.2482  0.2584
  235MOL   O11738025   6.084   3.874   1.631 -0.3289 -0.9815  0.3377
  235MOL   H11838026   6.259   3.593   1.913 -0.7832 -0.3633  0.0988
  235MOL   H11938027   6.329   3.614   1.753  2.8540  1.9671  0.2967
  235MOL   H12038028   6.275   3.872   1.802  1.2664 -0.9833 -1.6811
  235MOL   H12138029   6.156   3.801   1.913  3.8668 -2.0452  2.6116
  235MOL   C12238030   6.037   3.639   1.677 -0.4365  0.0368  0.3364
  235MOL   C12338031   5.941   3.590   1.787  0.2311  0.0571 -0.5547
  235MOL   C12438032   5.943   3.443   1.830 -0.0856  0.1667 -0.4006
  235MOL   O12538033   6.039   3.379   1.842 -0.7089 -0.0268  0.1525
  235MOL   H12638034   6.125   3.575   1.666 -0.1123  0.0169  2.9111
  235MOL   H12738035   5.984   3.640   1.582 -1.6681 -0.3415  1.0083
  235MOL   H12838036   5.842   3.632   1.766  1.3117  2.4491 -1.0161
  235MOL   H12938037   5.972   3.641   1.879  2.4820 -0.1726 -1.1637
  235MOL   C13038038   5.802   3.385   1.864  0.5648 -0.3196 -0.1342
  235MOL   C13138039   5.782   3.246   1.804 -0.0052  0.6875 -0.2534
  235MOL   C13238040   5.868   3.144   1.880  0.2395  0.1349  0.4053
  235MOL   O13338041   5.895   3.149   2.000 -0.0797  0.6586 -0.7221
  235MOL   H13438042   5.725   3.450   1.821  0.2141  0.2105  1.2931
  235MOL   H13538043   5.789   3.375   1.971  0.6741 -0.4847 -0.1364
  235MOL   H13638044   5.808   3.241   1.698 -0.5184  0.3705 -0.3650
  235MOL   H13738045   5.682   3.203   1.812 -0.7700  2.6540  1.3330
  235MOL   C13838046   5.930   3.036   1.784  0.2635  0.0656  0.0556
  235MOL   C13938047   5.968   2.900   1.851  0.1501 -0.2608 -0.0383
  235MOL   C14038048   6.114   2.864   1.820 -0.9292  0.3070  0.3694
  235MOL   O14138049   6.206   2.944   1.821 -0.4383 -0.4505 -0.6559
  235MOL   H14238050   6.011   3.083   1.727  1.4885 -1.7719  0.2471
  235MOL   H14338051   5.857   3.020   1.705 -1.1564 -0.0203  1.3650
  235MOL   H14438052   5.900   2.823   1.813  0.0321  0.1684 -0.7104
  235MOL   H14538053   5.955   2.909   1.958 -1.9893 -1.8756 -0.1098
  235MOL   C14638054   6.136   2.723   1.773 -1.0031 -0.0511 -0.5374
  235MOL   C14738055   6.284   2.665   1.809 -0.0136  0.3147  0.0474
  235MOL   C14838056   6.356   2.622   1.686 -0.1940 -0.4062  0.4806
  235MOL   O14938057   6.322   2.652   1.569  0.3962 -0.0799 -0.2230
  235MOL   H15038058   6.127   2.723   1.664 -0.0453 -1.7914 -0.6352
  235MOL   H15138059   6.062   2.660   1.823 -1.1704  0.6567  0.1007
  235MOL   H15238060   6.289   2.577   1.873 -1.6727 -0.2800 -0.6030
  235MOL   H15338061   6.332   2.750   1.858  0.0984  0.3770 -0.1715
  235MOL   C15438062   6.489   2.549   1.710 -0.0301  0.5897 -0.0450
  235MOL   C15538063   6.542   2.471   1.591  0.2734  0.0237 -0.0569
  235MOL   C15638064   6.690   2.441   1.614  0.3905  0.1576  0.8676
  235MOL   O15738065   6.746   2.442   1.723  0.6613 -0.0381 -0.3647
  235MOL   H15838066   6.465   2.485   1.794 -0.8361  0.0127 -0.7007
  235MOL   H15938067   6.559   2.624   1.746 -1.2556  1.9070 -0.3474
  235MOL   H16038068   6.537   2.529   1.499 -1.4158  0.2344  0.1627
  235MOL   H16138069   6.493   2.373   1.586 -0.3357  0.2965  0.5813
  235MOL   H16238070   6.751   2.403   1.532 -0.1007  1.3179 -0.0559
  236MOL     C138071   2.836   6.335   3.469  0.0321  0.6290  0.7247
  236MOL     C238072   2.735   6.372   3.576 -0.2979  0.2575 -0.0172
  236MOL     C338073   2.772   6.342   3.721 -1.5621  0.6306  0.2367
  236MOL     O438074   2.862   6.256   3.735  0.7582 -0.4996 -0.0992
  236MOL     H538075   2.931   6.378   3.501  0.3880  0.5455 -0.2084
  236MOL     H638076   2.834   6.232   3.434  1.0888  0.8037  0.1391
  236MOL     H738077   2.635   6.330   3.567 -0.1284 -0.3437  0.9308
  236MOL     H838078   2.727   6.480   3.564  0.3729  0.0990 -2.1104
  236MOL     H938079   2.806   6.396   3.384 -0.7384 -1.2260 -0.3699
  236MOL    C1038080   2.708   6.403   3.839  0.2896  0.1191 -0.2397
  236MOL    C1138081   2.798   6.490   3.915 -0.3566  0.0124 -0.1037
  236MOL    C1238082   2.748   6.634   3.931 -0.3950 -0.4646  0.4896
  236MOL    O1338083   2.638   6.663   3.975 -0.1022  0.2107 -0.2319
  236MOL    H1438084   2.667   6.326   3.905  1.9463 -1.1787 -0.6756
  236MOL    H1538085   2.622   6.454   3.795 -0.1684  0.5410  1.1324
  236MOL    H1638086   2.903   6.478   3.886  0.3227  3.1587  0.8496
  236MOL    H1738087   2.795   6.444   4.013  1.0558  0.4476  0.1611
  236MOL    C1838088   2.844   6.748   3.895  0.4014  0.4766 -0.0119
  236MOL    C1938089   2.771   6.884   3.878  0.8689  0.8087  0.5001
  236MOL    C2038090   2.754   6.926   3.732 -0.0131  0.3111 -0.9278
  236MOL    O2138091   2.763   6.850   3.635 -0.4480  0.0444  0.0982
  236MOL    H2238092   2.917   6.729   3.817  1.2353  1.2608  0.5685
  236MOL    H2338093   2.899   6.767   3.987 -0.2039 -0.3220  0.5291
  236MOL    H2438094   2.831   6.951   3.939  1.4846 -0.9018  1.8092
  236MOL    H2538095   2.670   6.877   3.918 -0.8540  4.7496 -2.8312
  236MOL    C2638096   2.712   7.066   3.718  0.3876  0.0977  0.4304
  236MOL    C2738097   2.781   7.144   3.602  0.5391  0.1335 -0.3809
  236MOL    C2838098   2.700   7.140   3.475 -0.1837 -0.2805 -0.1786
  236MOL    O2938099   2.726   7.056   3.387 -0.1761 -0.3921 -0.2283
  236MOL    H3038100   2.752   7.123   3.802 -2.5718  2.0874  0.5465
  236MOL    H3138101   2.605   7.071   3.734  0.3677  0.4025  0.2194
  236MOL    H3238102   2.877   7.097   3.581  0.2404 -0.9357  0.5518
  236MOL    H3338103   2.797   7.248   3.629 -1.2864  0.5190 -0.7746
  236MOL    C3438104   2.598   7.241   3.453  0.1299  0.4374 -0.1211
  236MOL    C3538105   2.458   7.187   3.450  0.0714 -0.1940 -0.2927
  236MOL    C3638106   2.420   7.125   3.316  0.1401  0.3413  0.6691
  236MOL    O3738107   2.375   7.010   3.318  0.1470  0.3210  0.1070
  236MOL    H3838108   2.621   7.293   3.360  1.3636  0.0936 -0.0161
  236MOL    H3938109   2.607   7.325   3.522 -1.3665  0.4351  0.0920
  236MOL    H4038110   2.387   7.269   3.466  1.8802  1.2988  0.3761
  236MOL    H4138111   2.440   7.119   3.533  0.0738  1.7270  1.3107
  236MOL    C4238112   2.424   7.197   3.180  0.7028  0.2816  0.6076
  236MOL    C4338113   2.461   7.110   3.057  0.0450  0.4072 -0.5620
  236MOL    C4438114   2.614   7.088   3.035  0.5406 -0.5579 -0.6359
  236MOL    O4538115   2.680   7.173   2.982  0.3275  0.3267 -0.3801
  236MOL    H4638116   2.487   7.285   3.181  0.2633  0.6259 -0.9573
  236MOL    H4738117   2.326   7.242   3.164  0.9250  0.8366  0.7951
  236MOL    H4838118   2.423   7.156   2.966 -2.2100 -2.8216 -1.3349
  236MOL    H4938119   2.413   7.013   3.064 -0.7812  0.7276 -1.6507
  236MOL    C5038120   2.672   6.964   3.091  0.5121  0.0963  0.4043
  236MOL    C5138121   2.817   6.974   3.099 -0.3217 -0.2508 -0.6417
  236MOL    C5238122   2.886   6.844   3.147 -0.9389 -0.4712  0.2594
  236MOL    O5338123   2.837   6.732   3.127  0.0984  0.4787  0.8555
  236MOL    H5438124   2.635   6.892   3.018  0.9826  0.9649 -0.7076
  236MOL    H5538125   2.623   6.955   3.188  1.1600  1.3190  0.8485
  236MOL    H5638126   2.832   7.050   3.176  1.1629 -1.3016  0.1319
  236MOL    H5738127   2.860   7.004   3.003  0.8029  0.6272  0.1142
  236MOL    C5838128   3.015   6.858   3.225  0.4903  0.1480  0.1393
  236MOL    C5938129   3.001   6.823   3.376 -0.0384 -0.1901 -0.6363
  236MOL    C6038130   3.115   6.755   3.446  0.5243  0.7097  0.5707
  236MOL    O6138131   3.221   6.733   3.389  0.3419 -1.0549  0.1145
  236MOL    H6238132   3.073   6.949   3.206 -0.6234  0.9362  0.4237
  236MOL    H6338133   3.071   6.771   3.193  0.3473 -0.3700  1.2769
  236MOL    H6438134   2.923   6.748   3.385 -1.2197  1.0859  0.0414
  236MOL    H6538135   2.962   6.913   3.424 -0.9502  0.1454 -1.9830
  236MOL    C6638136   3.088   6.707   3.588 -0.2250  0.3016 -0.1214
  236MOL    C6738137   3.217   6.694   3.678 -0.4544 -0.0429 -0.2322
  236MOL    C6838138   3.217   6.585   3.786 -0.0197 -0.1736 -0.9240
  236MOL    O6938139   3.141   6.593   3.880  0.2389  0.1141 -0.4050
  236MOL    H7038140   3.043   6.608   3.591 -0.4025  0.4156  1.6928
  236MOL    H7138141   3.026   6.781   3.638 -1.6434  0.3433 -1.8917
  236MOL    H7238142   3.233   6.782   3.740  0.0941 -1.1667  1.2649
  236MOL    H7338143   3.310   6.673   3.626 -0.4319  0.2467 -0.3109
  236MOL    C7438144   3.303   6.462   3.765 -0.9324  0.0621 -0.0302
  236MOL    C7538145   3.223   6.333   3.731  0.0260  0.4223 -0.0327
  236MOL    C7638146   3.206   6.302   3.582 -0.1423 -0.0530 -0.6298
  236MOL    O7738147   3.257   6.379   3.495  0.4341 -0.2421 -0.0684
  236MOL    H7838148   3.378   6.450   3.844 -2.6974  2.0303  1.9914
  236MOL    H7938149   3.365   6.477   3.676  0.7588 -2.7244  0.5870
  236MOL    H8038150   3.120   6.342   3.764 -0.8793  0.1272 -2.7442
  236MOL    H8138151   3.256   6.240   3.780 -2.7899 -0.9886 -0.7174
  236MOL    C8238152   3.126   6.178   3.549 -0.3107 -0.6233  0.3540
  236MOL    C8338153   3.137   6.147   3.397 -0.7101  0.3260  1.3533
  236MOL    C8438154   3.115   6.002   3.369 -0.6173  0.6637 -0.5714
  236MOL    O8538155   3.112   5.909   3.454 -0.2031 -0.9597 -0.2521
  236MOL    H8638156   3.027   6.181   3.595  0.1385 -0.2626  1.3212
  236MOL    H8738157   3.179   6.104   3.609  2.1712  0.1753 -0.7744
  236MOL    H8838158   3.235   6.173   3.358 -0.8730  0.8708  1.2972
  236MOL    H8938159   3.064   6.207   3.342 -0.5395  0.4931  1.3110
  236MOL    C9038160   3.092   5.960   3.226  0.8475  0.8627  0.4749
  236MOL    C9138161   3.112   5.809   3.191  0.3064 -0.2948 -0.5420
  236MOL    C9238162   3.252   5.777   3.133 -0.7216  0.0225  0.1141
  236MOL    O9338163   3.349   5.851   3.141  0.3346 -0.1050 -0.2734
  236MOL    H9438164   3.162   6.014   3.162 -1.3211  1.7539 -1.2364
  236MOL    H9538165   2.990   5.977   3.191  0.9499 -0.4107 -0.4741
  236MOL    H9638166   3.027   5.772   3.134  1.2053  0.6791 -2.5818
  236MOL    H9738167   3.108   5.741   3.276 -0.9900  0.3054 -0.1182
  236MOL    C9838168   3.277   5.634   3.086  0.8531 -0.2908  0.7180
  236MOL    C9938169   3.429   5.608   3.076 -0.1046 -0.5074  0.1459
  236MOL   C10038170   3.495   5.639   2.944 -0.4184 -0.0309  0.2065
  236MOL   O10138171   3.437   5.631   2.836  0.1989 -0.0504 -0.7530
  236MOL   H10238172   3.226   5.619   2.990 -0.4002  0.3421  1.2719
  236MOL   H10338173   3.241   5.563   3.160  2.1133 -0.9110  0.7412
  236MOL   H10438174   3.456   5.503   3.087  0.1464 -0.4713 -0.1260
  236MOL   H10538175   3.477   5.657   3.161 -1.0627  0.3817  0.1950
  236MOL   C10638176   3.642   5.695   2.950  1.0705 -0.4779  0.1784
  236MOL   C10738177   3.660   5.826   2.873 -0.1345  0.4566  0.6881
  236MOL   C10838178   3.798   5.829   2.796  0.0903  0.2204 -0.1085
  236MOL   O10938179   3.867   5.734   2.774  0.3840  0.3641 -0.1899
  236MOL   H11038180   3.712   5.622   2.910 -0.5497 -2.4635  0.8525
  236MOL   H11138181   3.674   5.711   3.053 -0.3059  1.8998  0.2731
  236MOL   H11238182   3.666   5.912   2.939  1.2505  0.9876 -0.0907
  236MOL   H11338183   3.581   5.841   2.799  0.4321  0.4034  0.0638
  236MOL   C11438184   3.827   5.962   2.734 -0.3504 -0.6813 -0.6192
  236MOL   C11538185   3.944   5.959   2.626 -0.1414 -0.8934 -0.5342
  236MOL   C11638186   4.085   5.956   2.685  0.2666 -0.4478  0.2050
  236MOL   O11738187   4.102   6.021   2.786  0.2108 -0.3750  0.4888
  236MOL   H11838188   3.845   6.036   2.812 -1.8623  1.1545 -1.9797
  236MOL   H11938189   3.741   5.992   2.675  0.8929 -0.0528 -2.1388
  236MOL   H12038190   3.940   6.054   2.573  1.3476 -0.0914  0.7203
  236MOL   H12138191   3.936   5.888   2.543  0.8303  1.1080 -2.4065
  236MOL   C12238192   4.189   5.862   2.618  0.4891  0.3126 -0.7756
  236MOL   C12338193   4.329   5.878   2.675  0.1131 -0.4606  0.4915
  236MOL   C12438194   4.375   5.758   2.762  0.4547  0.2975 -0.3002
  236MOL   O12538195   4.299   5.658   2.781  0.0889 -0.4208  0.3361
  236MOL   H12638196   4.188   5.889   2.513  0.3144 -2.0032 -1.3998
  236MOL   H12738197   4.149   5.761   2.625  0.7181  0.3230  0.9524
  236MOL   H12838198   4.347   5.967   2.736  1.7503 -0.6793  0.3473
  236MOL   H12938199   4.401   5.871   2.594 -1.4413 -1.6416 -0.8051
  236MOL   C13038200   4.520   5.745   2.805  0.3942  0.2557  0.0059
  236MOL   C13138201   4.541   5.684   2.945  0.0797  0.4811 -0.3687
  236MOL   C13238202   4.524   5.780   3.066  0.5440  0.1351 -0.2730
  236MOL   O13338203   4.530   5.903   3.054  0.3964  0.5599 -0.1408
  236MOL   H13438204   4.572   5.841   2.801  1.8732 -0.5256  0.2193
  236MOL   H13538205   4.566   5.673   2.738 -0.6032  0.1352 -0.5681
  236MOL   H13638206   4.640   5.640   2.938 -0.8108 -1.4099 -1.2085
  236MOL   H13738207   4.467   5.606   2.958 -0.0390  0.7412  0.5980
  236MOL   C13838208   4.473   5.719   3.204  0.4087 -0.3001  0.1619
  236MOL   C13938209   4.396   5.815   3.288  0.5477 -0.2288  0.1311
  236MOL   C14038210   4.274   5.754   3.359 -0.2984 -0.9606 -0.6243
  236MOL   O14138211   4.214   5.660   3.308 -0.9204 -0.9519  0.4475
  236MOL   H14238212   4.561   5.689   3.260 -2.0420  0.3204  4.5576
  236MOL   H14338213   4.407   5.635   3.179 -1.5648  1.1121  0.5181
  236MOL   H14438214   4.352   5.891   3.223  1.0497  0.6086  0.7556
  236MOL   H14538215   4.454   5.861   3.368 -1.5396  0.5433  1.2571
  236MOL   C14638216   4.242   5.808   3.500  0.0570 -0.7390  0.4880
  236MOL   C14738217   4.259   5.702   3.613  0.2553  0.0258 -0.5136
  236MOL   C14838218   4.409   5.681   3.657 -0.8582  0.1477 -0.0738
  236MOL   O14938219   4.501   5.709   3.580  0.2604 -0.2125 -0.5678
  236MOL   H15038220   4.141   5.849   3.501  0.2101 -0.3873  1.5911
  236MOL   H15138221   4.300   5.897   3.521 -2.5524  0.8227  1.2668
  236MOL   H15238222   4.223   5.605   3.580  1.3002 -0.6310  0.2569
  236MOL   H15338223   4.200   5.725   3.702  2.5538 -1.4519  1.4386
  236MOL   C15438224   4.440   5.640   3.805  0.4930  0.3625  0.6808
  236MOL   C15538225   4.500   5.759   3.877 -0.4286  0.1070 -0.4239
  236MOL   C15638226   4.568   5.722   4.010 -0.1570  0.1416  0.8710
  236MOL   O15738227   4.541   5.621   4.075 -0.1169  0.2728  0.7923
  236MOL   H15838228   4.509   5.557   3.792  1.1553  1.3563 -2.5665
  236MOL   H15938229   4.350   5.618   3.863  0.7045  2.7082  1.9590
  236MOL   H16038230   4.417   5.818   3.915  0.8440  1.9266 -0.4356
  236MOL   H16138231   4.574   5.810   3.816  0.3073 -2.1551 -1.4779
  236MOL   H16238232   4.644   5.798   4.029  1.0224 -1.1740  1.4922
  237MOL     C138233   6.969   3.962   0.422 -0.8129  0.2324 -0.8851
  237MOL     C238234   7.056   3.844   0.467 -0.0662 -0.0954  0.0091
  237MOL     C338235   7.200   3.856   0.408 -0.5823 -0.4266  0.6616
  237MOL     O438236   7.245   3.955   0.353 -0.0680 -0.2037  0.7727
  237MOL     H538237   6.956   3.957   0.314 -1.2277  1.6823 -0.9187
  237MOL     H638238   6.875   3.960   0.479  0.3169  0.3388  1.0373
  237MOL     H738239   7.007   3.751   0.441 -1.2172 -0.2582  2.6033
  237MOL     H838240   7.081   3.829   0.572  0.4149 -1.4842 -0.2924
  237MOL     H938241   7.022   4.057   0.434 -0.6900  0.1906 -1.1058
  237MOL    C1038242   7.300   3.746   0.435  0.3064 -0.2295  0.3573
  237MOL    C1138243   7.289   3.627   0.331 -0.4877 -0.9584 -0.1760
  237MOL    C1238244   7.227   3.505   0.388  0.1668  0.3221  0.2652
  237MOL    O1338245   7.126   3.517   0.463 -0.1975  0.5779  0.9911
  237MOL    H1438246   7.270   3.710   0.533  1.2133 -1.2709  0.2659
  237MOL    H1538247   7.401   3.787   0.443  1.4544 -2.8526 -0.0624
  237MOL    H1638248   7.394   3.612   0.309 -0.5088 -0.0461 -0.9509
  237MOL    H1738249   7.248   3.651   0.233  0.5373 -0.6206 -0.5318
  237MOL    C1838250   7.294   3.369   0.354  0.1446  0.4208 -0.0436
  237MOL    C1938251   7.212   3.241   0.383  0.1091 -0.7537  0.1649
  237MOL    C2038252   7.245   3.126   0.295  0.1138 -0.5142  0.3437
  237MOL    O2138253   7.312   3.135   0.193  0.3367 -0.3248 -0.0886
  237MOL    H2238254   7.389   3.378   0.407 -0.0494  3.1910 -0.0959
  237MOL    H2338255   7.325   3.370   0.250 -0.7099  0.7680 -0.2959
  237MOL    H2438256   7.106   3.261   0.368  0.1230 -0.4016  0.5267
  237MOL    H2538257   7.247   3.201   0.478  1.3560 -3.3582 -1.3425
  237MOL    C2638258   7.173   3.003   0.346  0.7146 -0.1734  0.8692
  237MOL    C2738259   7.185   2.894   0.240  0.1505  0.0083  0.4600
  237MOL    C2838260   7.203   2.747   0.295 -0.1602 -0.3006 -0.0874
  237MOL    O2938261   7.166   2.715   0.409 -0.2109 -0.3907  0.3061
  237MOL    H3038262   7.066   3.020   0.359  0.5299  1.6854 -2.5331
  237MOL    H3138263   7.221   2.969   0.438  1.1255  1.6587  1.3488
  237MOL    H3238264   7.274   2.911   0.179  0.8352 -1.0050  1.1576
  237MOL    H3338265   7.105   2.894   0.166  0.0097  0.3084  0.6142
  237MOL    C3438266   7.275   2.637   0.210 -0.0146 -0.4631 -0.4043
  237MOL    C3538267   7.296   2.499   0.275  0.1968 -0.3979 -0.4034
  237MOL    C3638268   7.433   2.431   0.255 -0.6260  0.3708  0.1213
  237MOL    O3738269   7.496   2.457   0.151 -0.0037  0.2593 -0.2737
  237MOL    H3838270   7.378   2.672   0.199  0.1881 -0.6318  0.8763
  237MOL    H3938271   7.228   2.628   0.112  0.2719  1.4411 -0.7500
  237MOL    H4038272   7.211   2.437   0.244 -0.9337  1.9398 -2.1401
  237MOL    H4138273   7.284   2.512   0.383 -1.3824  0.2304 -0.6377
  237MOL    C4238274   7.479   2.337   0.359  0.1979  0.8171  0.1492
  237MOL    C4338275   7.634   2.327   0.369 -0.1140 -0.1312 -0.2510
  237MOL    C4438276   7.693   2.448   0.438 -0.0746 -0.1286  0.0857
  237MOL    O4538277   7.624   2.533   0.490  0.6363  0.0155  0.6678
  237MOL    H4638278   7.444   2.235   0.339  2.1574 -0.0584  0.9676
  237MOL    H4738279   7.451   2.365   0.460  1.2592 -0.7348  0.8994
  237MOL    H4838280   7.682   2.330   0.272 -1.0807  0.5439 -0.7228
  237MOL    H4938281   7.675   2.238   0.417 -0.6954 -0.6187 -0.6518
  237MOL    C5038282   7.843   2.438   0.453  0.1974  0.4696 -0.0157
  237MOL    C5138283   0.050   2.584   0.469  0.0185 -0.1431 -0.2707
  237MOL    C5238284   0.085   2.627   0.613  0.4191  0.4201 -0.0164
  237MOL    O5338285   0.062   2.552   0.712  0.2381  0.1333 -0.5352
  237MOL    H5438286   0.031   2.394   0.366 -0.3423 -1.1648  0.5140
  237MOL    H5538287   0.001   2.364   0.531 -4.2885 -0.8982 -0.2148
  237MOL    H5638288   7.829   2.654   0.446 -0.2313 -0.6871 -1.0776
  237MOL    H5738289   0.138   2.604   0.408  0.1888 -0.4177 -0.1165
  237MOL    C5838290   0.145   2.766   0.628 -0.4765 -0.3432 -0.2094
  237MOL    C5938291   0.188   2.805   0.773  0.7293  0.4327  0.1839
  237MOL    C6038292   0.280   2.924   0.759 -0.3417 -0.1965  0.1325
  237MOL    O6138293   0.295   2.992   0.654  0.2504 -0.2049  0.2818
  237MOL    H6238294   0.079   2.838   0.579  0.0461  0.0230 -0.3835
  237MOL    H6338295   0.232   2.766   0.562 -0.0139  0.2135  0.3864
  237MOL    H6438296   0.236   2.724   0.828 -0.7858  0.7756  2.0647
  237MOL    H6538297   0.105   2.843   0.831 -0.9428  0.2975 -2.0387
  237MOL    C6638298   0.373   2.953   0.876 -0.0510  0.4149  0.6368
  237MOL    C6738299   0.461   2.830   0.910  0.1129 -0.2188 -0.2628
  237MOL    C6838300   0.427   2.764   1.042  0.4358  0.5462  0.2813
  237MOL    O6938301   0.357   2.661   1.044 -0.2031  0.1991  0.1983
  237MOL    H7038302   0.315   2.973   0.966  1.0762  0.0857  1.4482
  237MOL    H7138303   0.423   3.047   0.854 -1.6253  1.0805 -0.2026
  237MOL    H7238304   0.565   2.859   0.921 -0.9397  3.0722  1.9510
  237MOL    H7338305   0.458   2.753   0.833  0.0594 -0.8227  0.3447
  237MOL    C7438306   0.456   2.827   1.176  0.1133  0.3549  0.1450
  237MOL    C7538307   0.608   2.824   1.202  0.2359 -0.3586 -0.3984
  237MOL    C7638308   0.653   2.899   1.325  0.3572  0.2694 -0.0222
  237MOL    O7738309   0.564   2.947   1.404 -0.1960  0.3924  0.3738
  237MOL    H7838310   0.394   2.774   1.248 -1.1993  1.7374  0.0831
  237MOL    H7938311   0.416   2.929   1.178  1.6351  0.9592  1.1539
  237MOL    H8038312   0.658   2.858   1.111 -0.3170 -0.4076 -0.7208
  237MOL    H8138313   0.641   2.722   1.221 -2.2383 -0.9633  0.7582
  237MOL    C8238314   0.797   2.936   1.333 -0.2512  0.5515 -1.0696
  237MOL    C8338315   0.833   3.034   1.450 -0.5970  0.1583  0.3099
  237MOL    C8438316   0.956   3.117   1.423  0.4220  0.8943 -0.9209
  237MOL    O8538317   1.022   3.108   1.324 -0.2838 -0.5134  0.1842
  237MOL    H8638318   0.824   2.977   1.236 -0.4398 -3.0526 -2.7357
  237MOL    H8738319   0.853   2.842   1.345 -0.0979  0.6622 -0.9011
  237MOL    H8838320   0.840   2.982   1.545  0.5860  0.1689  0.2458
  237MOL    H8938321   0.741   3.089   1.466 -1.2175 -0.5370 -0.8368
  237MOL    C9038322   0.984   3.212   1.537  0.0661  0.0905 -0.3375
  237MOL    C9138323   1.126   3.265   1.547 -0.2664 -0.1978 -0.0900
  237MOL    C9238324   1.225   3.153   1.587 -0.4258 -0.5406 -0.2460
  237MOL    O9338325   1.195   3.044   1.631  0.5367 -0.4946 -0.0062
  237MOL    H9438326   0.970   3.149   1.625 -0.6875  0.8384  0.0740
  237MOL    H9538327   0.907   3.289   1.535 -1.3773 -1.3438 -1.6494
  237MOL    H9638328   1.141   3.343   1.622  2.7668 -0.1184 -0.7139
  237MOL    H9738329   1.152   3.312   1.452  2.6219 -0.5080  0.5141
  237MOL    C9838330   1.372   3.179   1.554  0.6470  0.0454  1.2998
  237MOL    C9938331   1.471   3.119   1.655 -0.0178  0.1051  0.1346
  237MOL   C10038332   1.592   3.211   1.667  0.2890 -0.1468 -0.7393
  237MOL   O10138333   1.596   3.301   1.587  0.4464 -0.3716 -0.0073
  237MOL   H10238334   1.384   3.285   1.574  0.1257  0.1579  1.0359
  237MOL   H10338335   1.397   3.167   1.448 -2.8769  0.2197  0.3635
  237MOL   H10438336   1.500   3.016   1.632  0.9038  0.5708 -0.8655
  237MOL   H10538337   1.429   3.120   1.755  1.5893  0.0581  0.8145
  237MOL   C10638338   1.691   3.197   1.781 -0.0308  1.1119  0.7168
  237MOL   C10738339   1.645   3.283   1.899 -0.1599  0.0540  0.2221
  237MOL   C10838340   1.582   3.204   2.019 -0.4334  0.1381 -0.2193
  237MOL   O10938341   1.618   3.085   2.040 -0.2079  0.0193  0.4261
  237MOL   H11038342   1.784   3.242   1.745 -0.9557  2.9027  0.4998
  237MOL   H11138343   1.703   3.091   1.804  1.0088  0.3055 -3.2662
  237MOL   H11238344   1.582   3.362   1.858  1.0142  0.5366 -0.7049
  237MOL   H11338345   1.737   3.323   1.943  1.8422  0.5412 -4.1205
  237MOL   C11438346   1.473   3.268   2.105 -0.1422 -0.8228 -0.0790
  237MOL   C11538347   1.339   3.194   2.090  0.1355 -0.0420  0.5900
  237MOL   C11638348   1.248   3.251   1.980  0.1459  0.4048  0.3632
  237MOL   O11738349   1.301   3.315   1.885  0.2805  0.7290 -0.2827
  237MOL   H11838350   1.464   3.375   2.087 -1.1936 -0.7820  0.6714
  237MOL   H11938351   1.518   3.250   2.203  2.2664 -2.5879 -1.4424
  237MOL   H12038352   1.280   3.214   2.179  0.6789  3.5539  0.2191
  237MOL   H12138353   1.360   3.088   2.080 -1.1866 -0.3249  0.6838
  237MOL   C12238354   1.099   3.224   1.984 -0.3379 -0.3715 -0.4144
  237MOL   C12338355   1.021   3.329   1.899  0.2345  0.4590  0.4651
  237MOL   C12438356   0.867   3.309   1.924  0.7498 -0.0785 -0.2248
  237MOL   O12538357   0.821   3.301   2.038 -0.2811  0.5073  0.3336
  237MOL   H12638358   1.074   3.219   2.090  1.3348  1.0979  0.0778
  237MOL   H12738359   1.082   3.124   1.945 -0.3830 -0.4533 -0.1882
  237MOL   H12838360   1.041   3.312   1.794  1.4345 -0.9319  0.9042
  237MOL   H12938361   1.041   3.433   1.923  1.1327  1.0027 -2.5214
  237MOL   C13038362   0.784   3.331   1.805 -1.2582 -0.1514  0.4812
  237MOL   C13138363   0.637   3.365   1.828  0.3035 -0.0615 -0.5164
  237MOL   C13238364   0.559   3.356   1.697 -0.0007 -0.1471  0.5165
  237MOL   O13338365   0.596   3.286   1.608  0.6554  0.7628  0.0175
  237MOL   H13438366   0.807   3.255   1.731 -2.3498  0.8837 -0.9550
  237MOL   H13538367   0.824   3.422   1.761 -2.1281 -0.6160 -1.3454
  237MOL   H13638368   0.619   3.465   1.867  0.2197 -0.3126  0.0997
  237MOL   H13738369   0.608   3.291   1.903 -1.4399  1.0256 -0.0866
  237MOL   C13838370   0.464   3.476   1.660 -0.5427  0.3765 -0.5956
  237MOL   C13938371   0.340   3.435   1.577  0.6158  0.4264 -0.5468
  237MOL   C14038372   0.202   3.471   1.641 -0.0841  0.8389  0.3939
  237MOL   O14138373   0.183   3.578   1.704 -0.6699 -0.3177 -0.0872
  237MOL   H14238374   0.531   3.537   1.600  1.3822 -0.3746  0.7218
  237MOL   H14338375   0.444   3.525   1.756 -1.0457  0.9398 -0.9919
  237MOL   H14438376   0.341   3.329   1.555 -1.6922 -0.2490  2.3318
  237MOL   H14538377   0.359   3.476   1.478 -1.4895  0.9457 -0.7506
  237MOL   C14638378   0.091   3.366   1.633 -0.3196 -0.2876  0.1160
  237MOL   C14738379   7.851   3.386   1.754 -0.7913 -0.1295  0.5051
  237MOL   C14838380   7.718   3.445   1.723  0.3386  0.4418 -0.5624
  237MOL   O14938381   7.668   3.448   1.607 -1.1510  0.4242 -0.4550
  237MOL   H15038382   0.130   3.264   1.632 -0.7361 -0.4465  0.0818
  237MOL   H15138383   0.040   3.375   1.537  0.9617 -0.1602 -0.5698
  237MOL   H15238384   0.039   3.450   1.829 -2.1952  1.7819 -0.2064
  237MOL   H15338385   7.844   3.291   1.806  1.2871 -2.2213 -2.8320
  237MOL   C15438386   7.633   3.491   1.845  0.6393 -0.4883  0.4680
  237MOL   C15538387   7.500   3.554   1.807 -0.1486  0.5367  0.0829
  237MOL   C15638388   7.380   3.466   1.841  0.1453 -0.2316 -0.6650
  237MOL   O15738389   7.385   3.411   1.950  0.4940  0.1257 -0.6063
  237MOL   H15838390   7.693   3.558   1.906 -1.8708  3.5318 -1.3209
  237MOL   H15938391   7.627   3.399   1.904  1.3701  0.0445  1.3813
  237MOL   H16038392   7.493   3.581   1.702  0.8958 -0.6523 -0.2920
  237MOL   H16138393   7.485   3.646   1.865 -2.4268  1.1923 -1.4782
  237MOL   H16238394   7.300   3.439   1.772 -1.9509 -0.2465  1.7424
  238MOL     C138395   7.854   5.192   3.208  0.1076  0.0951 -0.3626
  238MOL     C238396   0.087   5.113   3.308  0.2428  0.2438 -0.4645
  238MOL     C338397   0.192   5.027   3.230  0.3474 -0.6361 -0.3304
  238MOL     O438398   0.160   4.919   3.185 -0.6972 -0.3157 -0.9966
  238MOL     H538399   7.824   5.122   3.130  0.5099  0.0293 -0.4638
  238MOL     H638400   7.770   5.245   3.253  1.3703  0.6190  1.4787
  238MOL     H738401   0.022   5.064   3.380  1.0440  1.3636  1.0389
  238MOL     H838402   0.147   5.186   3.363  1.2987 -0.0013 -1.2693
  238MOL     H938403   0.064   5.268   3.171 -0.0210  0.7294  0.6827
  238MOL    C1038404   0.339   5.075   3.224 -0.5555  0.2244  0.3526
  238MOL    C1138405   0.444   4.959   3.243  0.2939 -0.1412 -0.1204
  238MOL    C1238406   0.565   4.973   3.150 -0.4589 -0.3070 -0.4683
  238MOL    O1338407   0.590   5.087   3.098  0.4522 -0.1519  0.4211
  238MOL    H1438408   0.365   5.159   3.288  1.3780 -0.2629  0.2525
  238MOL    H1538409   0.345   5.112   3.122 -3.7325  1.5028  0.5888
  238MOL    H1638410   0.402   4.863   3.215 -1.5441  0.5406  0.2464
  238MOL    H1738411   0.467   4.949   3.349 -1.6961  2.5431  0.6155
  238MOL    C1838412   0.638   4.846   3.109  0.1266  0.1217 -0.3284
  238MOL    C1938413   0.751   4.870   3.010  0.4206 -0.1676 -0.0487
  238MOL    C2038414   0.873   4.764   3.013  0.1870 -0.3250  0.9725
  238MOL    O2138415   0.859   4.659   3.076  0.3563  0.0782  0.6818
  238MOL    H2238416   0.568   4.773   3.069 -0.1085 -0.0825  0.4679
  238MOL    H2338417   0.681   4.808   3.202 -0.4565  1.7646  0.6235
  238MOL    H2438418   0.778   4.976   3.015 -0.2181  0.0060 -0.2324
  238MOL    H2538419   0.703   4.872   2.912  1.2118 -0.4314 -0.4433
  238MOL    C2638420   1.007   4.805   2.943  0.2455  0.1938 -0.6334
  238MOL    C2738421   1.124   4.724   2.998 -0.0122  0.0526  0.2683
  238MOL    C2838422   1.222   4.815   3.071  0.3047 -0.3559 -0.1912
  238MOL    O2938423   1.206   4.936   3.082 -0.0616  0.5278 -0.4968
  238MOL    H3038424   1.019   4.913   2.958  0.5141  0.0533  0.1718
  238MOL    H3138425   0.994   4.788   2.836 -0.5773 -2.1573 -0.1948
  238MOL    H3238426   1.179   4.693   2.909  0.1618 -1.9187  1.0406
  238MOL    H3338427   1.090   4.633   3.048  1.2166  0.3744  1.7232
  238MOL    C3438428   1.343   4.757   3.138 -0.3964 -0.4726 -0.2349
  238MOL    C3538429   1.397   4.835   3.259 -0.0715 -0.2485  0.3072
  238MOL    C3638430   1.359   4.766   3.385 -0.5464  0.4592  0.5611
  238MOL    O3738431   1.336   4.645   3.394  0.0546 -0.4104 -0.3541
  238MOL    H3838432   1.414   4.727   3.061 -1.2682  0.6251 -1.4748
  238MOL    H3938433   1.305   4.657   3.161 -2.0528  0.6013  1.9555
  238MOL    H4038434   1.363   4.938   3.265 -0.3483 -0.2593 -0.9821
  238MOL    H4138435   1.506   4.834   3.273 -0.0678  0.2514  0.3191
  238MOL    C4238436   1.351   4.857   3.505  0.1289 -0.0730  0.7712
  238MOL    C4338437   1.402   4.791   3.634  0.1686 -0.3890 -0.0377
  238MOL    C4438438   1.294   4.792   3.742 -0.0584  0.0817  0.1271
  238MOL    O4538439   1.212   4.883   3.754 -0.5885  0.0953  0.2837
  238MOL    H4638440   1.244   4.872   3.496  0.2438  0.0365 -0.3809
  238MOL    H4738441   1.404   4.951   3.487 -2.3986  1.0469 -1.1619
  238MOL    H4838442   1.480   4.863   3.662 -0.5187  0.2298  0.3165
  238MOL    H4938443   1.441   4.690   3.627 -0.3468 -0.6522  0.7948
  238MOL    C5038444   1.307   4.672   3.839  0.3184 -0.2831  0.7794
  238MOL    C5138445   1.189   4.574   3.803  0.0374  0.1735  0.6343
  238MOL    C5238446   1.058   4.612   3.873 -1.1577 -0.0488  0.1665
  238MOL    O5338447   1.051   4.681   3.972 -0.2660  0.2703  0.2276
  238MOL    H5438448   1.303   4.703   3.943  2.4616 -1.9153  1.3826
  238MOL    H5538449   1.404   4.626   3.822  0.0239 -0.4526 -0.5212
  238MOL    H5638450   1.214   4.471   3.827 -1.6724 -0.3373  0.2702
  238MOL    H5738451   1.160   4.569   3.698  0.0535 -0.1859  0.6485
  238MOL    C5838452   0.929   4.569   3.801 -0.2491  0.1088  0.7247
  238MOL    C5938453   0.808   4.662   3.823  0.4974 -0.0897 -0.5837
  238MOL    C6038454   0.706   4.620   3.932 -0.2588  0.3400 -0.4396
  238MOL    O6138455   0.694   4.508   3.981 -0.2379 -0.4318  0.3650
  238MOL    H6238456   0.898   4.472   3.839  0.9991 -0.8192 -0.5777
  238MOL    H6338457   0.947   4.565   3.694 -1.4731  2.0361  0.4149
  238MOL    H6438458   0.743   4.663   3.735  0.4523  0.1598 -0.5476
  238MOL    H6538459   0.821   4.767   3.847 -0.6162 -0.7432  3.1040
  238MOL    C6638460   0.626   4.740   3.986  0.0081 -0.7419 -0.0110
  238MOL    C6738461   0.505   4.713   4.079 -0.9414 -0.2573  0.6490
  238MOL    C6838462   0.523   4.737   4.226 -0.0825  0.4945  0.1418
  238MOL    O6938463   0.598   4.825   4.266 -0.1119 -0.4799 -0.3440
  238MOL    H7038464   0.596   4.793   3.896  0.1821  0.6206  0.7167
  238MOL    H7138465   0.703   4.806   4.027  0.9661 -1.7588 -0.1567
  238MOL    H7238466   0.481   4.607   4.068 -0.6607 -0.3275  0.7275
  238MOL    H7338467   0.407   4.758   4.058 -0.4634  0.8558  0.7523
  238MOL    C7438468   0.415   4.683   4.324  0.2428 -0.2341 -0.3381
  238MOL    C7538469   0.426   4.747   4.466 -0.6045  0.0924  0.6377
  238MOL    C7638470   0.337   4.674   4.570 -0.2080  0.3321  0.3107
  238MOL    O7738471   0.237   4.604   4.541  0.1632  0.1041 -0.1589
  238MOL    H7838472   0.417   4.574   4.327  1.5238 -0.2165  5.7583
  238MOL    H7938473   0.319   4.708   4.279  0.1043  0.1061  0.1376
  238MOL    H8038474   0.404   4.854   4.466 -2.3955 -0.1364 -5.0662
  238MOL    H8138475   0.525   4.740   4.510 -0.6883 -2.4000  0.4942
  238MOL    C8238476   0.372   4.709   4.717  0.6748  0.7049  0.0821
  238MOL    C8338477   0.304   4.833   4.759 -0.4316  0.4830  0.0803
  238MOL    C8438478   0.280   4.837   4.908 -0.5572  0.0361 -0.2378
  238MOL    O8538479   0.355   4.780   4.988  0.3870  0.3392  0.5066
  238MOL    H8638480   0.481   4.718   4.713  0.5437  2.1620 -0.4118
  238MOL    H8738481   0.338   4.620   4.771  2.6831  0.1779  0.5303
  238MOL    H8838482   0.209   4.848   4.709  0.0290 -0.3331 -1.0813
  238MOL    H8938483   0.372   4.912   4.729  0.6947 -0.7066 -0.5778
  238MOL    C9038484   0.159   4.921   4.957  0.0869  0.9109  0.2716
  238MOL    C9138485   0.132   4.927   5.118  0.0629 -0.3649  0.0828
  238MOL    C9238486   0.231   5.008   5.200 -0.7792  0.4280  0.2113
  238MOL    O9338487   0.240   5.130   5.187 -0.6014 -0.5658  0.4517
  238MOL    H9438488   0.065   4.889   4.913  1.2600 -0.6124 -1.1675
  238MOL    H9538489   0.193   5.017   4.918  1.2251 -0.3143 -1.7849
  238MOL    H9638490   0.120   4.824   5.153  0.3754 -0.4186  0.0345
  238MOL    H9738491   0.040   4.984   5.126  0.3018  0.0968 -0.3976
  238MOL    C9838492   0.337   4.928   5.284 -0.0402  0.1178  0.4354
  238MOL    C9938493   0.406   4.994   5.402  0.0687 -0.0774 -0.3578
  238MOL   C10038494   0.350   4.932   5.526  0.0545 -0.6365 -0.2096
  238MOL   O10138495   0.400   4.830   5.562  0.3944 -0.3963 -0.0571
  238MOL   H10238496   0.415   4.900   5.213 -1.4603  0.1941 -1.2069
  238MOL   H10338497   0.283   4.838   5.315  1.7748 -0.9765  0.4847
  238MOL   H10438498   0.395   5.102   5.412  1.2257  0.0617 -0.4717
  238MOL   H10538499   0.512   4.971   5.413  0.5691  0.6841 -3.1847
  238MOL   C10638500   0.214   4.984   5.572  0.7519 -0.3378  0.2356
  238MOL   C10738501   0.112   4.879   5.621  0.5464 -0.5328 -0.6405
  238MOL   C10838502   0.042   4.791   5.513 -0.3362  0.2302 -0.3053
  238MOL   O10938503   0.071   4.800   5.394  0.2656 -0.3038 -0.5000
  238MOL   H11038504   0.168   5.038   5.489  2.1132 -1.0843 -1.0134
  238MOL   H11138505   0.228   5.045   5.662 -2.7404 -1.4024  1.5726
  238MOL   H11238506   0.029   4.932   5.667 -0.9035 -0.0321 -3.7175
  238MOL   H11338507   0.154   4.811   5.695  0.2877  1.9463  1.8703
  238MOL   C11438508   7.789   4.698   5.556 -1.2098  0.8120 -0.1598
  238MOL   C11538509   7.688   4.666   5.444  0.0683  0.1205  0.2492
  238MOL   C11638510   7.570   4.758   5.446  0.5204 -0.0846 -0.3070
  238MOL   O11738511   7.556   4.844   5.534 -0.6389  0.1611  0.0707
  238MOL   H11838512   7.745   4.738   5.647 -0.2939 -1.0562  1.1297
  238MOL   H11938513   7.835   4.605   5.589 -0.9292  1.5063  1.4603
  238MOL   H12038514   7.656   4.562   5.452  0.2929  0.0318 -0.0126
  238MOL   H12138515   7.738   4.681   5.348 -0.0731 -0.2190  0.1193
  238MOL   C12238516   7.466   4.749   5.328  0.7590  0.4115  0.2454
  238MOL   C12338517   7.374   4.880   5.322 -0.4654  0.0913  0.1934
  238MOL   C12438518   7.314   4.903   5.186  0.0679  0.0764  0.2262
  238MOL   O12538519   7.345   4.832   5.085  0.5314  0.5003 -0.1905
  238MOL   H12638520   7.411   4.656   5.343 -0.1475  1.0425  0.8802
  238MOL   H12738521   7.525   4.731   5.238  0.8389 -1.2731  0.6154
  238MOL   H12838522   7.441   4.959   5.358  0.0023 -0.0259 -0.4139
  238MOL   H12938523   7.299   4.868   5.400 -2.0406  0.8278 -1.1900
  238MOL   C13038524   7.198   5.000   5.180  0.1822  0.0688  0.1864
  238MOL   C13138525   7.178   5.067   5.046 -0.3922 -0.7921 -0.1767
  238MOL   C13238526   7.230   5.209   5.041 -0.0291 -0.1324 -0.1691
  238MOL   O13338527   7.287   5.270   5.135 -0.2532 -0.0812  0.0975
  238MOL   H13438528   7.192   5.068   5.265  0.0147 -1.5977  1.5290
  238MOL   H13538529   7.109   4.944   5.206  0.5649  0.1469  1.7651
  238MOL   H13638530   7.073   5.092   5.033 -0.1377  0.2726 -0.2306
  238MOL   H13738531   7.217   5.013   4.960 -1.2882 -2.6586  0.5701
  238MOL   C13838532   7.220   5.272   4.895 -0.1926  0.0254  0.1367
  238MOL   C13938533   7.350   5.239   4.814  0.5109 -0.3033  0.0461
  238MOL   C14038534   7.325   5.146   4.697  0.2740  0.2595  0.8360
  238MOL   O14138535   7.249   5.049   4.705 -0.2298  0.6949 -0.5388
  238MOL   H14238536   7.202   5.379   4.905  0.3719  0.0897  0.4857
  238MOL   H14338537   7.134   5.227   4.846  0.1582  0.3926 -0.8410
  238MOL   H14438538   7.415   5.179   4.878  0.3488  0.0047  0.5018
  238MOL   H14538539   7.395   5.335   4.788  2.0714 -1.1660 -0.4981
  238MOL   C14638540   7.394   5.178   4.558  0.2205 -0.0659  0.2624
  238MOL   C14738541   7.353   5.076   4.446 -0.0237  0.4764 -0.2860
  238MOL   C14838542   7.400   5.124   4.309  0.2694 -0.3495  0.1327
  238MOL   O14938543   7.447   5.239   4.290 -0.6153 -0.0687  0.3135
  238MOL   H15038544   7.499   5.186   4.585  0.9649 -1.1220 -2.2273
  238MOL   H15138545   7.348   5.275   4.536 -2.1739 -1.4131 -0.8883
  238MOL   H15238546   7.244   5.073   4.454 -0.1285 -0.6932 -1.9266
  238MOL   H15338547   7.405   4.986   4.479  0.2708  1.6984  2.7037
  238MOL   C15438548   7.375   5.030   4.192  0.3668  1.0723 -0.0390
  238MOL   C15538549   7.422   5.078   4.052  0.0044 -0.0171 -0.5967
  238MOL   C15638550   7.551   5.002   4.011  0.2069  0.7069  0.3097
  238MOL   O15738551   7.549   4.898   3.945  0.0811  0.2633 -0.2732
  238MOL   H15838552   7.267   5.019   4.198  0.3944 -1.1128 -2.5435
  238MOL   H15938553   7.413   4.929   4.207 -0.3221  0.7818 -0.2050
  238MOL   H16038554   7.435   5.186   4.048  5.3927 -0.5242 -1.1014
  238MOL   H16138555   7.342   5.054   3.982 -0.2671  2.2097 -1.0700
  238MOL   H16238556   7.640   5.064   4.025 -0.7133  1.6906  2.1031
  239MOL     C138557   5.693   4.624   4.935  0.7176  0.7975 -0.0365
  239MOL     C238558   5.792   4.715   5.009 -0.1208  0.3612  0.5565
  239MOL     C338559   5.772   4.866   4.991 -0.7708  0.2969 -1.0289
  239MOL     O438560   5.712   4.911   4.897  0.4984 -0.1434 -0.4192
  239MOL     H538561   5.734   4.524   4.947  0.7143  0.9005  0.8709
  239MOL     H638562   5.597   4.609   4.983  0.1444  0.4100 -1.2927
  239MOL     H738563   5.898   4.697   4.989 -0.1252 -0.8618  1.5064
  239MOL     H838564   5.788   4.693   5.116  0.9847 -0.2522  0.4785
  239MOL     H938565   5.684   4.663   4.833  0.3393 -1.5928 -0.9450
  239MOL    C1038566   5.862   4.955   5.081  0.3859 -0.1434  0.0689
  239MOL    C1138567   5.789   4.992   5.210  0.1481  0.1943 -0.4510
  239MOL    C1238568   5.827   5.121   5.273 -0.1559  0.2455 -0.8530
  239MOL    O1338569   5.896   5.205   5.216 -0.3750  0.2607 -0.0498
  239MOL    H1438570   5.867   5.054   5.036 -3.6322  0.7538  1.3914
  239MOL    H1538571   5.962   4.915   5.096  0.5373  1.4991  3.9687
  239MOL    H1638572   5.790   4.904   5.273  0.8137  0.1041 -0.5774
  239MOL    H1738573   5.686   5.011   5.179 -0.7936  0.1536  2.5627
  239MOL    C1838574   5.771   5.146   5.414 -0.3239  0.0630 -0.3932
  239MOL    C1938575   5.862   5.231   5.504 -0.1917  0.0930  0.5773
  239MOL    C2038576   5.778   5.335   5.586  0.4753  0.5667  0.2754
  239MOL    O2138577   5.660   5.360   5.560 -0.2004 -0.9173 -0.2017
  239MOL    H2238578   5.758   5.049   5.463 -0.7640 -0.8042 -2.1975
  239MOL    H2338579   5.671   5.188   5.406  0.5979  2.1193 -1.5283
  239MOL    H2438580   5.941   5.285   5.452 -1.7337  1.7292 -0.1158
  239MOL    H2538581   5.916   5.166   5.573 -0.4929 -0.6294  0.1303
  239MOL    C2638582   5.850   5.400   5.702  0.7039 -0.5328  0.4459
  239MOL    C2738583   5.998   5.442   5.686 -0.6091  0.1895 -0.4366
  239MOL    C2838584   6.098   5.368   5.766  0.4035 -0.0036 -0.0185
  239MOL    O2938585   6.083   5.363   5.889 -0.2516 -0.0472  0.0140
  239MOL    H3038586   5.850   5.324   5.781 -1.5061  0.0229  1.0145
  239MOL    H3138587   5.785   5.483   5.730  1.8868  0.2411  0.9242
  239MOL    H3238588   6.002   5.547   5.718  1.6455 -0.6875  2.3836
  239MOL    H3338589   6.030   5.445   5.582 -0.8498  0.1508 -0.5117
  239MOL    C3438590   6.216   5.289   5.701 -0.2609  0.7235 -0.8327
  239MOL    C3538591   6.194   5.145   5.722  0.2919  0.9336  0.3114
  239MOL    C3638592   6.286   5.059   5.645 -0.2676 -0.1211  0.5018
  239MOL    O3738593   6.354   5.105   5.552 -0.0166 -0.0383  0.0701
  239MOL    H3838594   6.316   5.322   5.728 -0.2232  0.8506 -1.1273
  239MOL    H3938595   6.205   5.322   5.598 -0.5706 -1.5003 -1.5330
  239MOL    H4038596   6.099   5.101   5.692  0.6689 -1.6848  2.6565
  239MOL    H4138597   6.210   5.119   5.827 -1.2955 -0.4436  0.2385
  239MOL    C4238598   6.285   4.910   5.684  0.0004 -0.0945 -0.1583
  239MOL    C4338599   6.379   4.822   5.605 -0.3722 -0.2808 -0.0766
  239MOL    C4438600   6.509   4.794   5.684 -0.0390  0.4300  0.3611
  239MOL    O4538601   6.541   4.679   5.718  0.2549  0.4004  0.0304
  239MOL    H4638602   6.181   4.885   5.668  0.3383 -1.6733 -0.0179
  239MOL    H4738603   6.306   4.897   5.791  1.8307 -0.0232 -0.4878
  239MOL    H4838604   6.403   4.866   5.508  0.1249  0.5094  0.4022
  239MOL    H4938605   6.332   4.728   5.575 -3.4326  1.0945  0.1810
  239MOL    C5038606   6.599   4.911   5.720 -0.1539 -0.2849 -0.3215
  239MOL    C5138607   6.618   4.918   5.877  0.3321  0.0825 -0.7748
  239MOL    C5238608   6.535   5.010   5.958  0.1560 -0.7140 -0.9133
  239MOL    O5338609   6.452   5.079   5.902  0.7391  0.3095 -0.4245
  239MOL    H5438610   6.554   5.000   5.676  1.9598 -0.4660 -2.9694
  239MOL    H5538611   6.696   4.894   5.674  0.2517  1.1433 -0.0066
  239MOL    H5638612   6.719   4.952   5.898  0.4919  0.1982 -1.7130
  239MOL    H5738613   6.609   4.816   5.915 -0.7328  0.6870  0.6493
  239MOL    C5838614   6.560   5.024   6.110  0.6915  0.1021  0.5338
  239MOL    C5938615   6.503   5.150   6.173  0.0629 -0.0858  0.4740
  239MOL    C6038616   6.362   5.135   6.213  0.2455  0.2176 -0.1043
  239MOL    O6138617   6.323   5.051   6.289  0.4166 -0.3353  0.1387
  239MOL    H6238618   6.669   5.036   6.110  0.8075 -0.9421  0.3844
  239MOL    H6338619   6.532   4.939   6.173  0.3040  1.3573  2.1063
  239MOL    H6438620   6.498   5.231   6.100 -1.2500 -1.2158 -0.7151
  239MOL    H6538621   6.563   5.189   6.255  1.4543 -2.7565  0.8183
  239MOL    C6638622   6.272   5.244   6.168  0.1197 -0.7061  0.1192
  239MOL    C6738623   6.117   5.199   6.173 -0.3224  0.0073 -0.2800
  239MOL    C6838624   6.021   5.302   6.231  0.1369 -0.6516 -0.5160
  239MOL    O6938625   6.055   5.376   6.319  0.4826  0.8078  0.1320
  239MOL    H7038626   6.299   5.275   6.067 -3.5140  1.4056 -0.3193
  239MOL    H7138627   6.291   5.333   6.230 -2.4089  1.4188 -2.0192
  239MOL    H7238628   6.109   5.132   6.259  3.4494  0.7599  0.7544
  239MOL    H7338629   6.084   5.162   6.076  1.8996  0.7578 -1.3780
  239MOL    C7438630   5.873   5.311   6.175  0.8203 -0.0367  0.2912
  239MOL    C7538631   5.833   5.440   6.106 -0.1283  0.4653  1.1459
  239MOL    C7638632   5.713   5.431   6.010  0.0872  0.1799 -0.2127
  239MOL    O7738633   5.683   5.314   5.969  0.3076 -0.8111 -0.3823
  239MOL    H7838634   5.801   5.272   6.247  0.2772  0.2552 -0.0872
  239MOL    H7938635   5.864   5.230   6.103 -2.1360  1.0422 -0.6310
  239MOL    H8038636   5.919   5.477   6.050  0.0209 -2.3133 -0.5306
  239MOL    H8138637   5.815   5.522   6.176 -0.0258  0.3777  1.2749
  239MOL    C8238638   5.633   5.559   5.974  0.4845  0.2670 -0.9776
  239MOL    C8338639   5.478   5.529   5.949  0.3944  0.3167  0.0408
  239MOL    C8438640   5.390   5.637   6.003  0.6236 -0.0885  0.1578
  239MOL    O8538641   5.435   5.744   6.028  0.1008 -0.0887 -0.3069
  239MOL    H8638642   5.680   5.593   5.882 -0.7715  3.2602 -0.5371
  239MOL    H8738643   5.640   5.624   6.060 -2.6933 -0.7678  0.1364
  239MOL    H8838644   5.444   5.435   5.993 -1.6541 -0.4132 -2.9638
  239MOL    H8938645   5.462   5.530   5.841 -1.9686 -1.0176  0.3547
  239MOL    C9038646   5.253   5.591   6.027 -0.1832 -0.6154  0.1590
  239MOL    C9138647   5.146   5.704   6.015 -0.3564 -0.2954  0.1356
  239MOL    C9238648   5.096   5.717   5.867 -0.7224 -0.7674  0.1627
  239MOL    O9338649   4.993   5.662   5.828  0.4903  0.2964 -0.2700
  239MOL    H9438650   5.253   5.534   6.120  0.8274 -1.4903 -0.3543
  239MOL    H9538651   5.226   5.515   5.952 -1.3773 -1.5744  1.5256
  239MOL    H9638652   5.189   5.794   6.061  0.1116 -1.1765  1.4465
  239MOL    H9738653   5.062   5.680   6.079 -0.7808 -0.3561 -0.4442
  239MOL    C9838654   5.186   5.806   5.777 -0.4178 -0.7244 -0.1055
  239MOL    C9938655   5.182   5.781   5.623 -0.1024  1.1542  0.1055
  239MOL   C10038656   5.295   5.690   5.574  0.0614  0.4709 -0.1798
  239MOL   O10138657   5.352   5.611   5.648  0.3882  0.0687 -0.1150
  239MOL   H10238658   5.288   5.818   5.812 -1.3543  2.6143  1.7603
  239MOL   H10338659   5.145   5.907   5.782 -1.1365 -1.0157  0.0427
  239MOL   H10438660   5.200   5.881   5.584 -1.8335 -0.4547 -5.2706
  239MOL   H10538661   5.087   5.745   5.583 -0.2154  0.6168  0.8491
  239MOL   C10638662   5.314   5.694   5.425 -0.3903  0.5967  0.8416
  239MOL   C10738663   5.430   5.611   5.365 -0.6829  0.4078 -0.0382
  239MOL   C10838664   5.390   5.471   5.296  0.3169 -0.5133  0.2452
  239MOL   O10938665   5.279   5.460   5.249  0.2063 -0.4188  0.0775
  239MOL   H11038666   5.313   5.797   5.391  3.1066  0.3823 -0.1459
  239MOL   H11138667   5.226   5.646   5.383  1.0798  0.0459 -1.6724
  239MOL   H11238668   5.506   5.590   5.440 -1.4141  3.9743  1.8042
  239MOL   H11338669   5.484   5.654   5.280  1.3048  0.1296  1.0495
  239MOL   C11438670   5.500   5.376   5.253  0.0986 -0.2273  0.2387
  239MOL   C11538671   5.432   5.233   5.240 -0.4642 -0.6249 -0.5405
  239MOL   C11638672   5.407   5.188   5.096  0.5311 -0.4134 -0.6118
  239MOL   O11738673   5.460   5.086   5.062  0.8044  0.9331  0.1054
  239MOL   H11838674   5.579   5.375   5.327 -1.3606 -1.4723  1.8366
  239MOL   H11938675   5.534   5.403   5.153 -0.4835 -1.3406 -0.2736
  239MOL   H12038676   5.332   5.227   5.285 -0.9273 -0.4134 -1.5340
  239MOL   H12138677   5.494   5.158   5.289 -0.5204 -1.0709 -1.1563
  239MOL   C12238678   5.323   5.275   4.998 -0.5043  0.2311  0.2825
  239MOL   C12338679   5.274   5.191   4.878 -0.2013 -0.3200 -0.5717
  239MOL   C12438680   5.125   5.211   4.842  0.3267  0.1533 -0.6682
  239MOL   O12538681   5.055   5.290   4.901  0.0604 -0.2915 -0.2353
  239MOL   H12638682   5.384   5.358   4.964  0.3458 -0.4760  0.0449
  239MOL   H12738683   5.236   5.319   5.045  0.7516  2.0059  0.9785
  239MOL   H12838684   5.290   5.084   4.891  1.6381  0.0889  0.6574
  239MOL   H12938685   5.325   5.222   4.787  1.3811 -2.4538 -0.4417
  239MOL   C13038686   5.066   5.122   4.735 -0.2963  0.2951  0.6743
  239MOL   C13138687   4.919   5.145   4.703  0.3744 -0.0915  0.4422
  239MOL   C13238688   4.827   5.034   4.756  1.1711 -0.6967 -0.1297
  239MOL   O13338689   4.869   4.957   4.842 -0.0139  0.0309  0.0909
  239MOL   H13438690   5.090   5.017   4.755  1.7069 -0.2557 -3.9866
  239MOL   H13538691   5.119   5.142   4.642  0.0637 -1.0630  0.5710
  239MOL   H13638692   4.895   5.137   4.597 -0.5933  1.8469  0.5013
  239MOL   H13738693   4.888   5.244   4.735  1.3742  0.4337 -0.2020
  239MOL   C13838694   4.689   5.027   4.686 -0.3538 -0.0546  0.3415
  239MOL   C13938695   4.696   4.904   4.585  0.9302 -0.1385  0.2598
  239MOL   C14038696   4.718   4.940   4.439 -0.0237 -0.3295  0.1761
  239MOL   O14138697   4.803   5.015   4.414 -0.1624 -0.2222 -0.2683
  239MOL   H14238698   4.657   5.117   4.634  0.0786  0.9401  1.7864
  239MOL   H14338699   4.615   5.001   4.762  0.3134  0.6419  1.2369
  239MOL   H14438700   4.596   4.862   4.592  1.0928 -0.8800 -1.6741
  239MOL   H14538701   4.763   4.826   4.621 -0.1290 -0.7473  0.9242
  239MOL   C14638702   4.636   4.863   4.334 -0.4756 -0.2524  0.0852
  239MOL   C14738703   4.660   4.900   4.186  0.1738 -0.5504 -0.3580
  239MOL   C14838704   4.709   4.777   4.111  0.5421  0.8997  0.0590
  239MOL   O14938705   4.815   4.726   4.143 -0.0128  0.0583 -0.9041
  239MOL   H15038706   4.530   4.849   4.355  0.1268 -1.5861  2.3764
  239MOL   H15138707   4.676   4.764   4.358  0.9694  0.2477 -0.2115
  239MOL   H15238708   4.725   4.987   4.176  2.0221 -1.9620 -1.0266
  239MOL   H15338709   4.566   4.931   4.141 -0.3611 -3.5795 -1.4329
  239MOL   C15438710   4.617   4.715   3.997  0.0448  0.2694 -0.8560
  239MOL   C15538711   4.667   4.571   3.945  1.0292  0.5885 -1.5108
  239MOL   C15638712   4.615   4.530   3.804 -0.0696  0.3056  0.0045
  239MOL   O15738713   4.567   4.615   3.731 -0.1344  0.1361  0.4139
  239MOL   H15838714   4.610   4.782   3.911  3.4326  2.5909  0.5412
  239MOL   H15938715   4.516   4.718   4.038  1.2767  0.4457  2.2739
  239MOL   H16038716   4.648   4.492   4.017  0.0950  2.6360  0.5676
  239MOL   H16138717   4.776   4.571   3.937  1.4068 -1.2315  2.3656
  239MOL   H16238718   4.635   4.428   3.773 -2.8934 -0.4395  0.4938
  240MOL     C138719   7.721   5.584   7.323  0.0166 -0.0963 -0.1521
  240MOL     C238720   7.622   5.568   7.445 -0.2657 -0.0492  0.6790
  240MOL     C338721   7.551   5.437   7.457  0.1316 -0.1644  0.4530
  240MOL     O438722   7.610   5.330   7.478 -0.4605 -0.2941 -0.5171
  240MOL     H538723   7.655   5.619   7.243  0.9106 -0.2927 -0.9950
  240MOL     H638724   7.799   5.659   7.339 -1.0371  0.5228  2.3119
  240MOL     H738725   7.542   5.643   7.445 -0.7806 -0.5844  0.2251
  240MOL     H838726   7.675   5.575   7.539  1.9148 -0.0883 -0.5116
  240MOL     H938727   7.776   5.497   7.287  1.6024  1.2878 -1.1556
  240MOL    C1038728   7.402   5.437   7.430  0.2592 -0.2224 -0.3189
  240MOL    C1138729   7.313   5.362   7.527  0.3069 -0.0111  0.9629
  240MOL    C1238730   7.195   5.444   7.579  0.2605 -0.2179  0.1224
  240MOL    O1338731   7.195   5.568   7.574  0.0958  0.3469  0.1386
  240MOL    H1438732   7.391   5.385   7.335 -1.1111  0.5431 -0.5951
  240MOL    H1538733   7.367   5.536   7.401  1.0941 -0.2333 -1.3884
  240MOL    H1638734   7.367   5.328   7.615 -0.5700 -0.2048  1.4286
  240MOL    H1738735   7.263   5.283   7.471 -0.8355  0.8217  0.7824
  240MOL    C1838736   7.087   5.354   7.640  0.1422 -0.2474  0.2127
  240MOL    C1938737   7.038   5.407   7.772 -0.6336 -0.6474 -0.5032
  240MOL    C2038738   6.920   5.498   7.748  0.4810 -0.5589 -0.4656
  240MOL    O2138739   6.811   5.457   7.711 -0.1793 -0.1720 -0.3010
  240MOL    H2238740   7.132   5.255   7.648  0.6182 -0.1473 -1.1342
  240MOL    H2338741   7.011   5.347   7.562  0.6816  0.4947 -0.3907
  240MOL    H2438742   7.118   5.451   7.831 -1.1621  0.9445 -0.9526
  240MOL    H2538743   7.012   5.319   7.831 -0.7476 -0.0523  0.3458
  240MOL    C2638744   6.948   5.649   7.761 -0.1856  0.5964 -0.3084
  240MOL    C2738745   6.825   5.746   7.776  0.6012  0.3839 -0.0989
  240MOL    C2838746   6.829   5.820   0.049  0.1375  0.2809  0.0309
  240MOL    O2938747   6.814   5.753   0.150  0.4599 -0.2811  0.2160
  240MOL    H3038748   7.002   5.667   7.668  0.8106  1.6467  0.4556
  240MOL    H3138749   7.017   5.676   7.841 -0.8146  0.3297  0.3315
  240MOL    H3238750   6.730   5.692   7.774  1.6273 -1.4805  0.3536
  240MOL    H3338751   6.838   5.817   7.695 -0.3518  0.1084 -0.5104
  240MOL    C3438752   6.849   5.970   0.048  0.6466  0.4505 -0.2877
  240MOL    C3538753   6.809   6.036   0.182 -0.0068  0.0581  0.3368
  240MOL    C3638754   6.924   6.112   0.258  0.4336  0.3939 -0.4811
  240MOL    O3738755   7.045   6.099   0.235  0.3259 -0.5723  0.6052
  240MOL    H3838756   6.780   6.010   7.832  1.4389  1.2487 -0.5891
  240MOL    H3938757   6.950   5.999   0.022  0.8010  1.3256  1.2168
  240MOL    H4038758   6.749   5.968   0.242 -0.5581 -1.4273 -1.8325
  240MOL    H4138759   6.733   6.113   0.169 -0.3004  0.0526  1.9244
  240MOL    C4238760   6.883   6.204   0.377  0.6363  0.0992  0.7534
  240MOL    C4338761   6.982   6.312   0.395 -0.3827  0.0059 -0.3813
  240MOL    C4438762   6.983   6.417   0.290 -0.3962 -0.3778 -0.3290
  240MOL    O4538763   6.882   6.440   0.217  0.2618  0.1178  0.0367
  240MOL    H4638764   6.892   6.141   0.465 -1.3053 -1.6314 -0.2444
  240MOL    H4738765   6.786   6.255   0.369  0.3717 -0.3733  0.9560
  240MOL    H4838766   7.086   6.285   0.410 -1.3736 -3.5807  0.5026
  240MOL    H4938767   6.955   6.370   0.483 -1.2784  0.1258 -0.7328
  240MOL    C5038768   7.087   6.532   0.289  0.0607 -0.3262  0.2869
  240MOL    C5138769   7.129   6.564   0.147 -0.6786 -0.5570 -0.2813
  240MOL    C5238770   7.242   6.664   0.128 -0.1277  0.1474  0.5032
  240MOL    O5338771   7.292   6.721   0.225 -0.2882 -0.4775  0.5308
  240MOL    H5438772   7.179   6.509   0.342  0.9210  1.1274 -0.5395
  240MOL    H5538773   7.047   6.624   0.331 -1.5055 -0.9999  0.3093
  240MOL    H5638774   7.045   6.602   0.089 -0.3968  1.4277  0.5623
  240MOL    H5738775   7.168   6.475   0.098 -0.0341  0.0722 -0.9124
  240MOL    C5838776   7.298   6.692   7.846  0.1699 -0.3051  0.2767
  240MOL    C5938777   7.259   6.829   7.785  0.4901 -0.8675 -0.4943
  240MOL    C6038778   7.228   6.819   7.639  0.3103  0.4772 -0.1519
  240MOL    O6138779   7.117   6.780   7.600 -0.1602  0.0508 -0.4371
  240MOL    H6238780   7.267   6.607   7.785 -0.9944  0.2225  0.1204
  240MOL    H6338781   7.407   6.682   7.849  0.1038 -0.9970  0.5961
  240MOL    H6438782   7.325   6.911   7.815 -1.3192 -0.1958  1.7978
  240MOL    H6538783   7.169   6.855   7.841  1.4250  0.0192  0.6288
  240MOL    C6638784   7.339   6.858   7.544 -0.1152 -0.8996 -0.1056
  240MOL    C6738785   7.329   6.818   7.394  0.2626 -0.3070 -0.1492
  240MOL    C6838786   7.463   6.775   7.321 -0.0550 -0.6950 -0.0297
  240MOL    O6938787   7.579   6.795   7.364  0.7971  0.6115 -0.9921
  240MOL    H7038788   7.426   6.802   7.580  0.7189  0.5487  0.1868
  240MOL    H7138789   7.363   6.961   7.574 -0.1066 -0.7082 -0.7540
  240MOL    H7238790   7.273   6.891   7.336  0.4406  1.1852  1.4963
  240MOL    H7338791   7.271   6.726   7.382  0.0639 -0.2902  0.6367
  240MOL    C7438792   7.430   6.703   7.188 -0.3620  0.4674  0.0876
  240MOL    C7538793   7.558   6.707   7.103  0.5146 -0.1951 -0.4306
  240MOL    C7638794   7.594   6.567   7.049 -0.1847  0.0521 -0.2011
  240MOL    O7738795   7.576   6.472   7.119 -0.9375 -0.0360  0.1678
  240MOL    H7838796   7.356   6.755   7.127  0.9035  0.6581 -1.3092
  240MOL    H7938797   7.393   6.609   7.228  1.6560  0.0497  1.0723
  240MOL    H8038798   7.644   6.749   7.155  0.6122  2.1591 -2.4327
  240MOL    H8138799   7.524   6.767   7.019 -1.6196  0.3100  0.7734
  240MOL    C8238800   7.665   6.561   6.914  0.6728  0.2557 -0.6243
  240MOL    C8338801   7.697   6.414   6.861 -0.0336 -0.2977 -0.1903
  240MOL    C8438802   7.598   6.367   6.750 -0.0227  0.1100 -0.5471
  240MOL    O8538803   7.478   6.400   6.742 -0.1043  1.4083 -0.6243
  240MOL    H8638804   7.755   6.620   6.929  0.4309  0.0371  1.8745
  240MOL    H8738805   7.609   6.623   6.843 -0.7723 -1.1314 -0.7217
  240MOL    H8838806   7.701   6.345   6.946  1.6554  2.2817  1.9022
  240MOL    H8938807   7.799   6.400   6.826 -0.2961 -1.3522 -0.5527
  240MOL    C9038808   7.652   6.277   6.642  0.0917  0.3347  0.4047
  240MOL    C9138809   7.545   6.221   6.537 -0.0609 -0.3177 -0.4722
  240MOL    C9238810   7.504   6.082   6.595  0.3419 -0.4388  0.3898
  240MOL    O9338811   7.576   5.985   6.578  0.3682  0.8083 -0.6247
  240MOL    H9438812   7.702   6.196   6.694  1.0625  1.3186  1.0207
  240MOL    H9538813   7.721   6.344   6.589 -1.4873  0.1732 -1.9308
  240MOL    H9638814   7.583   6.214   6.435 -0.5438 -0.4122 -0.6465
  240MOL    H9738815   7.456   6.284   6.540  0.8459  0.9509  0.2180
  240MOL    C9838816   7.365   6.067   6.637 -0.0143  0.2997 -0.1070
  240MOL    C9938817   7.345   5.931   6.707  0.0479 -0.2446  0.3586
  240MOL   C10038818   7.199   5.896   6.744 -0.2623 -0.2960 -0.1605
  240MOL   O10138819   7.105   5.968   6.704  0.0155  0.2513 -0.6953
  240MOL   H10238820   7.298   6.078   6.552 -1.0908 -2.1287  0.3998
  240MOL   H10338821   7.339   6.160   6.689  1.1076  0.2117  0.6245
  240MOL   H10438822   7.403   5.933   6.799  1.5124 -0.2391 -0.5486
  240MOL   H10538823   7.386   5.843   6.657  2.0445 -0.3008  2.0318
  240MOL   C10638824   7.187   5.776   6.831 -0.2964  0.6769  0.5092
  240MOL   C10738825   7.063   5.689   6.820 -0.3339 -0.2066 -0.4156
  240MOL   C10838826   7.068   5.595   6.705  0.2903  0.2766  1.0170
  240MOL   O10938827   7.160   5.584   6.636 -0.0864 -0.5302  0.8893
  240MOL   H11038828   7.195   5.810   6.935  0.1091 -1.0399  1.0569
  240MOL   H11138829   7.274   5.710   6.824  0.1195  1.1878  0.8442
  240MOL   H11238830   6.977   5.756   6.815 -0.1516  0.0723  0.1615
  240MOL   H11338831   7.058   5.633   6.913 -0.9329  1.7953  0.7970
  240MOL   C11438832   6.957   5.500   6.684 -0.7576 -0.2135  0.0476
  240MOL   C11538833   6.931   5.481   6.531 -0.2869 -0.0334  0.0631
  240MOL   C11638834   6.785   5.489   6.507  1.1605  0.0119 -0.0890
  240MOL   O11738835   6.696   5.466   6.591  0.0638  0.0238  0.6960
  240MOL   H11838836   6.865   5.533   6.732  0.1793 -0.6759  2.2436
  240MOL   H11938837   6.990   5.404   6.726 -0.3558  0.4961  1.3954
  240MOL   H12038838   6.973   5.392   6.483  0.5559  1.3561 -1.8603
  240MOL   H12138839   6.980   5.556   6.470 -0.1483 -0.0704  0.1297
  240MOL   C12238840   6.742   5.529   6.369 -0.1902 -0.1856 -0.5921
  240MOL   C12338841   6.604   5.594   6.363  0.5423 -0.4421  0.1064
  240MOL   C12438842   6.527   5.562   6.238  0.4804  0.8111  0.2921
  240MOL   O12538843   6.583   5.515   6.141  0.3764  0.0510 -0.2476
  240MOL   H12638844   6.737   5.450   6.294  1.0218 -0.0558 -0.8111
  240MOL   H12738845   6.814   5.602   6.331  1.2763  0.5758  3.4599
  240MOL   H12838846   6.600   5.702   6.377 -0.8011 -0.2801 -1.3463
  240MOL   H12938847   6.542   5.562   6.447  2.6096  0.4000  1.9970
  240MOL   C13038848   6.377   5.596   6.228 -0.0436 -0.3780  0.3471
  240MOL   C13138849   6.328   5.599   6.083 -0.4692 -0.1052  0.1662
  240MOL   C13238850   6.193   5.668   6.065  0.1577 -0.6971  0.5881
  240MOL   O13338851   6.145   5.733   6.156  0.0435  0.0065  0.2924
  240MOL   H13438852   6.380   5.695   6.275  1.0851  0.5831 -1.6857
  240MOL   H13538853   6.324   5.519   6.284 -0.7902  0.5967  0.9968
  240MOL   H13638854   6.307   5.496   6.055 -1.8251 -0.3113  1.8428
  240MOL   H13738855   6.408   5.628   6.015 -0.5712  0.6594  0.3708
  240MOL   C13838856   6.130   5.675   5.927 -0.1439 -0.1177 -0.0385
  240MOL   C13938857   6.088   5.827   5.901 -0.6545  0.2613 -0.1569
  240MOL   C14038858   5.943   5.849   5.934 -0.6447  0.2847 -0.2322
  240MOL   O14138859   5.864   5.764   5.902  0.0273 -0.5155  0.2243
  240MOL   H14238860   6.044   5.608   5.929 -0.8956  0.8041 -0.4790
  240MOL   H14338861   6.194   5.644   5.844  0.8204 -1.1224  1.0706
  240MOL   H14438862   6.120   5.868   5.805  2.0748 -0.2196  0.4822
  240MOL   H14538863   6.141   5.894   5.969 -1.4708 -0.5292  1.2819
  240MOL   C14638864   5.901   5.986   5.984 -0.6065  0.6687  0.0616
  240MOL   C14738865   5.776   5.990   6.070 -0.0845 -0.7876 -0.1922
  240MOL   C14838866   5.804   5.933   6.205 -0.7191  0.4425  0.0649
  240MOL   O14938867   5.773   5.816   6.234  0.6284 -0.1339 -0.2384
  240MOL   H15038868   5.885   6.049   5.896  1.1507  2.8826  1.2625
  240MOL   H15138869   5.984   6.027   6.041  1.2075 -0.6370 -1.5681
  240MOL   H15238870   5.698   5.922   6.038 -1.0827 -0.0080  0.5289
  240MOL   H15338871   5.744   6.089   6.103  1.3587 -0.0376 -1.0153
  240MOL   C15438872   5.864   6.013   6.314 -0.0950  0.5901 -1.3727
  240MOL   C15538873   6.006   5.953   6.340 -0.9362  0.2952  0.1060
  240MOL   C15638874   5.995   5.840   6.443 -0.2955  0.9595 -0.0709
  240MOL   O15738875   5.949   5.864   6.553 -0.1700 -0.2954 -0.4599
  240MOL   H15838876   5.801   6.000   6.401 -0.5638  3.1321 -1.2877
  240MOL   H15938877   5.860   6.121   6.299  0.6449  1.1619  2.1338
  240MOL   H16038878   6.071   6.023   6.392 -1.1338  0.2564  0.4061
  240MOL   H16138879   6.053   5.911   6.251  0.4718 -0.8402  1.3683
  240MOL   H16238880   6.030   5.740   6.419 -1.0956  0.5227  0.5813
  241MOL     C138881   5.818   2.209   0.638 -0.1479  0.5066  0.1654
  241MOL     C238882   5.900   2.219   0.512 -0.6286 -0.5157  0.1644
  241MOL     C338883   5.914   2.366   0.459 -0.2363 -0.0910 -0.5149
  241MOL     O438884   5.823   2.446   0.477  0.0016 -0.1949 -0.4808
  241MOL     H538885   5.873   2.253   0.722 -0.3737  1.4576 -0.1825
  241MOL     H638886   5.716   2.243   0.623  0.5654  2.4105 -0.5127
  241MOL     H738887   5.855   2.162   0.430 -1.7164 -1.4160  1.3795
  241MOL     H838888   5.997   2.175   0.533  0.1362  0.9866 -0.1819
  241MOL     H938889   5.811   2.105   0.670 -0.0838  0.5689  0.3866
  241MOL    C1038890   6.037   2.407   0.375  0.7722 -0.2360  0.0243
  241MOL    C1138891   5.998   2.521   0.276 -0.1786 -0.0836  0.6534
  241MOL    C1238892   6.063   2.654   0.312 -0.4494 -0.0795 -0.7362
  241MOL    O1338893   6.159   2.662   0.386 -0.4143 -0.1171 -0.0172
  241MOL    H1438894   6.072   2.315   0.329 -0.1821 -0.8365  0.4718
  241MOL    H1538895   6.110   2.435   0.451  0.1661 -0.1816  0.5932
  241MOL    H1638896   5.891   2.543   0.278  0.1312  1.4970  0.6701
  241MOL    H1738897   6.025   2.489   0.175  0.0213  0.5183  0.5158
  241MOL    C1838898   6.008   2.776   0.231 -0.1964  0.5148  0.5618
  241MOL    C1938899   6.039   2.910   0.295 -0.1813  0.2082 -0.4973
  241MOL    C2038900   5.912   2.996   0.315 -0.2672 -0.0827 -0.2104
  241MOL    O2138901   5.799   2.962   0.265 -0.8427  0.1481 -0.2096
  241MOL    H2238902   5.901   2.764   0.217  0.2885 -0.3389 -2.8757
  241MOL    H2338903   6.055   2.769   0.133  0.3009 -0.4780  0.8646
  241MOL    H2438904   6.104   2.973   0.235  5.0256 -2.2165  2.2953
  241MOL    H2538905   6.080   2.890   0.394  1.8504 -0.2921 -1.4169
  241MOL    C2638906   5.916   3.116   0.407 -0.2239 -0.2833 -0.6342
  241MOL    C2738907   5.781   3.132   0.481 -0.0823 -0.4939 -0.1258
  241MOL    C2838908   5.683   3.213   0.411  0.1772  0.1515 -0.6572
  241MOL    O2938909   5.716   3.304   0.337 -0.5863 -0.0630  0.7748
  241MOL    H3038910   5.930   3.206   0.346 -0.1315  1.8506  2.4037
  241MOL    H3138911   6.001   3.091   0.471 -0.3160 -0.0068 -0.3994
  241MOL    H3238912   5.785   3.196   0.570  3.2790  1.4425 -1.5457
  241MOL    H3338913   5.737   3.036   0.508  1.3359 -1.7467 -2.0971
  241MOL    C3438914   5.532   3.186   0.435  0.4843  0.5627  0.0604
  241MOL    C3538915   5.479   3.062   0.367 -0.3795  0.2128  0.4985
  241MOL    C3638916   5.457   3.078   0.220  0.0115 -0.4442  0.0126
  241MOL    O3738917   5.397   3.178   0.176 -0.2545  0.9888 -0.0304
  241MOL    H3838918   5.478   3.268   0.387 -2.1881 -1.2715 -0.2085
  241MOL    H3938919   5.513   3.175   0.541 -2.4891  0.1660 -0.4749
  241MOL    H4038920   5.390   3.031   0.422  0.4114 -1.0374  1.1019
  241MOL    H4138921   5.549   2.979   0.382  2.0674  1.8454 -1.4876
  241MOL    C4238922   5.464   2.956   0.128  0.8952  0.0207  0.5373
  241MOL    C4338923   5.571   2.971   0.018 -0.0830 -0.1959 -0.5430
  241MOL    C4438924   5.609   2.846   7.807  0.1276  0.9724 -0.5284
  241MOL    O4538925   5.517   2.783   7.748 -0.0961 -0.1996  0.3501
  241MOL    H4638926   5.372   2.934   0.074  1.8497  0.1334 -1.1612
  241MOL    H4738927   5.486   2.865   0.184 -2.4240 -0.6416  0.8406
  241MOL    H4838928   5.664   2.997   0.069 -0.3592  1.2575 -0.7757
  241MOL    H4938929   5.545   3.052   7.809  0.0152 -1.1218 -1.7055
  241MOL    C5038930   5.755   2.820   7.803 -0.7532  0.5259 -0.0839
  241MOL    C5138931   5.785   2.704   7.697  0.8526  0.3188 -0.7585
  241MOL    C5238932   5.931   2.716   7.643  0.2311 -0.1434  0.3093
  241MOL    O5338933   6.020   2.780   7.701 -0.1628  0.6229  0.0622
  241MOL    H5438934   5.804   2.794   0.038 -1.0078 -2.3467 -0.6996
  241MOL    H5538935   5.813   2.904   7.765  1.6403 -0.9312  0.2409
  241MOL    H5638936   5.722   2.711   7.608  0.8107  0.3396 -0.7268
  241MOL    H5738937   5.750   2.615   7.749  1.4449  0.9261  0.7052
  241MOL    C5838938   5.963   2.638   7.516  0.4033  0.3148 -0.0440
  241MOL    C5938939   6.073   2.701   7.434  0.0579  0.7034 -0.3117
  241MOL    C6038940   6.118   2.595   7.343  0.0095  0.3039 -0.1426
  241MOL    O6138941   6.035   2.530   7.280 -0.1325  0.4779 -0.1355
  241MOL    H6238942   5.876   2.627   7.451  1.3861  0.0257 -1.3446
  241MOL    H6338943   5.992   2.539   7.549  1.0896  0.9382  1.2561
  241MOL    H6438944   6.159   2.738   7.490 -0.5437 -0.4554  1.4258
  241MOL    H6538945   6.032   2.787   7.382  2.5953  0.5051 -2.8129
  241MOL    C6638946   6.269   2.573   7.330 -0.1424  0.0093  0.6543
  241MOL    C6738947   6.305   2.423   7.350 -0.8395 -0.4166 -0.4932
  241MOL    C6838948   6.336   2.379   7.497  0.5689  0.6398 -0.1832
  241MOL    O6938949   6.350   2.464   7.587 -0.0588  0.6763  0.1898
  241MOL    H7038950   6.331   2.628   7.401  1.2707 -1.2184  0.4086
  241MOL    H7138951   6.295   2.612   7.232  1.9863  0.9390  1.5554
  241MOL    H7238952   6.399   2.414   7.295  0.4695 -0.3807  1.6904
  241MOL    H7338953   6.235   2.350   7.310  0.2720 -1.2595 -0.9514
  241MOL    C7438954   6.359   2.232   7.524 -0.3593  0.2105  0.2412
  241MOL    C7538955   6.384   2.202   7.668  0.4681 -0.3356 -0.3668
  241MOL    C7638956   6.497   2.099   7.696  0.4654  0.0529 -0.0511
  241MOL    O7738957   6.555   2.040   7.602  0.2766 -0.3349 -0.2147
  241MOL    H7838958   6.446   2.209   7.462 -1.1683 -0.1329 -0.7780
  241MOL    H7938959   6.276   2.169   7.490  0.1245 -1.4361  1.9915
  241MOL    H8038960   6.288   2.169   7.709 -0.0152  0.9121 -0.4639
  241MOL    H8138961   6.422   2.288   7.722 -0.9806  1.6684 -2.4059
  241MOL    C8238962   6.521   2.050   7.841 -0.2518 -0.4516  0.1708
  241MOL    C8338963   6.427   1.929   0.012 -0.3120  0.2827  0.6138
  241MOL    C8438964   6.511   1.802   0.013  0.5624  0.9586 -0.7816
  241MOL    O8538965   6.631   1.807   0.046 -0.0799  0.1999  0.1602
  241MOL    H8638966   6.504   2.133   0.051  0.4355  0.5669 -0.8518
  241MOL    H8738967   6.628   2.035   7.856 -0.0619 -0.8605 -1.5014
  241MOL    H8838968   6.345   1.923   7.800  0.6612  2.0670 -0.7072
  241MOL    H8938969   6.378   1.952   0.106 -1.0442 -2.1846  0.8837
  241MOL    C9038970   6.441   1.677   7.822  0.4313  0.0844  0.0183
  241MOL    C9138971   6.538   1.572   7.755  0.0923 -0.0642  0.1368
  241MOL    C9238972   6.535   1.585   7.602  0.0800  0.2412  0.9202
  241MOL    O9338973   6.439   1.548   7.546 -0.0513  0.5082  0.5803
  241MOL    H9438974   6.373   1.715   7.747 -0.0121 -2.0844 -0.7191
  241MOL    H9538975   6.376   1.639   0.042 -1.1588 -1.7438 -2.1103
  241MOL    H9638976   6.508   1.474   7.791  1.8533 -1.2073 -1.4061
  241MOL    H9738977   6.641   1.593   7.784  0.3888  0.2444 -1.1097
  241MOL    C9838978   6.652   1.646   7.527  1.2908 -0.8791 -0.3424
  241MOL    C9938979   6.731   1.541   7.452  0.6321  0.5189 -0.0641
  241MOL   C10038980   6.868   1.503   7.519 -0.0466 -0.4933  0.3727
  241MOL   O10138981   6.889   1.517   7.642  0.0739  0.0841  0.1990
  241MOL   H10238982   6.714   1.707   7.593  1.0554 -1.3898  0.3434
  241MOL   H10338983   6.612   1.728   7.467 -0.0763 -0.7627  0.7125
  241MOL   H10438984   6.751   1.581   7.353  0.7337  2.0446  0.5652
  241MOL   H10538985   6.675   1.447   7.449  1.4946 -0.0026 -0.0415
  241MOL   C10638986   6.965   1.444   7.420  0.6481 -0.3787 -0.1389
  241MOL   C10738987   7.083   1.376   7.489  0.1564 -0.0158 -0.5819
  241MOL   C10838988   7.064   1.220   7.495  0.9263  0.0110 -0.4166
  241MOL   O10938989   6.953   1.171   7.506 -0.4514  0.7581  0.2150
  241MOL   H11038990   6.987   1.538   7.370 -1.6057  0.4960  0.4459
  241MOL   H11138991   6.911   1.387   7.343  0.4570 -1.3602  0.7079
  241MOL   H11238992   7.103   1.399   7.594  1.4603 -0.5809 -0.6967
  241MOL   H11338993   7.179   1.383   7.439 -0.1319 -1.0861 -1.3123
  241MOL   C11438994   7.193   1.141   7.511 -0.4077  0.0478  0.3525
  241MOL   C11538995   7.173   0.990   7.492 -0.3280 -0.9427 -0.8758
  241MOL   C11638996   7.249   0.940   7.375  0.6447 -0.5259  0.8683
  241MOL   O11738997   7.234   0.987   7.264 -0.1996 -0.2996  0.2529
  241MOL   H11838998   7.228   1.171   7.610  1.5578 -0.1946 -0.2549
  241MOL   H11938999   7.265   1.173   7.436 -1.3934  2.1088  0.2473
  241MOL   H12039000   7.069   0.956   7.490 -0.8969  0.7233 -0.7582
  241MOL   H12139001   7.203   0.923   7.572  0.5121  0.0279 -0.3715
  241MOL   C12239002   7.349   0.824   7.408 -0.4530  0.1430 -0.3542
  241MOL   C12339003   7.428   0.757   7.301  0.4642  0.2661  0.3934
  241MOL   C12439004   7.541   0.664   7.344  0.5616  0.1425 -0.7837
  241MOL   O12539005   7.566   0.637   7.467 -0.6472 -0.0816  0.3425
  241MOL   H12639006   7.283   0.743   7.437 -2.3976  1.4812 -0.9475
  241MOL   H12739007   7.414   0.845   7.493  0.5552 -1.2321 -0.7687
  241MOL   H12839008   7.475   0.831   7.235 -2.3713  1.0894 -0.7582
  241MOL   H12939009   7.361   0.707   7.232  1.2949  1.5235 -1.3740
  241MOL   C13039010   7.612   0.588   7.238 -0.6584 -0.1558  0.4911
  241MOL   C13139011   7.617   0.438   7.277  0.3580  0.0591 -0.4006
  241MOL   C13239012   7.515   0.361   7.187  0.6035 -0.4108 -0.4447
  241MOL   O13339013   7.502   0.389   7.069  0.3659 -0.2075  0.2491
  241MOL   H13439014   7.710   0.633   7.226 -0.6194 -0.4863 -0.4493
  241MOL   H13539015   7.561   0.602   7.142  1.0825  0.4601 -0.3651
  241MOL   H13639016   7.602   0.406   7.380 -1.0531 -1.9138 -1.1732
  241MOL   H13739017   7.719   0.407   7.259  0.2227 -0.7620  0.2289
  241MOL   C13839018   7.428   0.260   7.269  0.0407  0.4273 -0.2972
  241MOL   C13939019   7.319   0.188   7.177  0.0369  0.3717 -0.0357
  241MOL   C14039020   7.216   0.106   7.256 -0.0685  0.1914 -0.4127
  241MOL   O14139021   7.226   0.082   7.380 -0.4505 -0.1641  0.3443
  241MOL   H14239022   7.370   0.318   7.341 -0.2856  0.6092 -0.7048
  241MOL   H14339023   7.483   0.177   7.315  0.0921  1.4403  1.5176
  241MOL   H14439024   7.378   0.118   7.118  0.9551 -1.1560  2.6116
  241MOL   H14539025   7.270   0.249   7.101 -0.1705 -0.1932 -0.3518
  241MOL   C14639026   7.093   0.046   7.185 -0.3009 -0.1407 -0.0142
  241MOL   C14739027   6.967   0.037   7.274 -0.4618  0.1386 -0.1842
  241MOL   C14839028   6.855   0.129   7.237  0.1784  0.6451 -0.6184
  241MOL   O14939029   6.877   0.241   7.181  0.2415  0.6981  0.0746
  241MOL   H15039030   7.143   7.820   7.140  0.1087  1.5214 -2.8049
  241MOL   H15139031   7.072   0.114   7.102  1.9880  2.7023  1.6245
  241MOL   H15239032   6.995   0.048   7.379  2.6030  1.0457 -1.0191
  241MOL   H15339033   6.936   7.792   7.268  1.6863 -0.5429  0.1219
  241MOL   C15439034   6.718   0.086   7.288 -0.0857  0.6512  0.1111
  241MOL   C15539035   6.604   0.195   7.249 -0.6078 -0.0315  0.2460
  241MOL   C15639036   6.553   0.250   7.378  0.6519 -0.2493  0.8611
  241MOL   O15739037   6.469   0.185   7.440  0.0565  0.1177  0.1360
  241MOL   H15839038   6.720   0.061   7.394 -1.4109 -2.7092 -0.5893
  241MOL   H15939039   6.703   7.852   7.234 -1.4145  1.8251 -1.6190
  241MOL   H16039040   6.524   0.145   7.195 -0.2306 -2.0739  1.5210
  241MOL   H16139041   6.642   0.282   7.194 -1.2256 -0.8341 -1.4949
  241MOL   H16239042   6.600   0.344   7.405 -1.0120  0.9944 -0.4702
  242MOL     C139043   3.605   0.370   3.455 -0.3420 -0.1071 -0.3058
  242MOL     C239044   3.453   0.326   3.460  0.2534 -0.0877  0.2140
  242MOL     C339045   3.435   0.205   3.559 -0.3805 -0.6055  0.0308
  242MOL     O439046   3.531   0.152   3.620  0.5787 -0.0472  0.6173
  242MOL     H539047   3.653   0.298   3.388  1.4480  0.7078  0.0689
  242MOL     H639048   3.615   0.473   3.421 -2.1384  0.4059  0.6517
  242MOL     H739049   3.432   0.287   3.361  0.3475 -1.8172  0.8575
  242MOL     H839050   3.390   0.408   3.494 -0.0886 -0.0170 -0.5837
  242MOL     H939051   3.647   0.372   3.555  0.4597 -0.4083 -0.6321
  242MOL    C1039052   3.292   0.156   3.581  0.3061  0.0873 -0.2393
  242MOL    C1139053   3.289   0.027   3.657 -0.5454  0.0397 -0.4433
  242MOL    C1239054   3.261   0.058   3.807 -0.3279  0.4521 -0.2937
  242MOL    O1339055   3.250   0.174   3.855  0.0151 -0.1288  0.3388
  242MOL    H1439056   3.255   0.128   3.483  0.0532  0.1351 -0.1591
  242MOL    H1539057   3.235   0.240   3.620  0.4606 -0.7476  1.8564
  242MOL    H1639058   3.375   7.823   3.635  0.8130  1.8019 -0.2485
  242MOL    H1739059   3.204   7.827   3.622  0.0691 -0.5542 -0.9431
  242MOL    C1839060   3.260   7.793   3.892  0.1121  0.3607  0.3521
  242MOL    C1939061   3.135   7.698   3.872 -0.6025  0.4583  0.8986
  242MOL    C2039062   3.175   7.555   3.836 -0.2854 -0.1695  0.0524
  242MOL    O2139063   3.258   7.544   3.747 -0.1792  0.1334  0.7518
  242MOL    H2239064   3.261   7.818   3.998  1.3508  2.8836 -0.2273
  242MOL    H2339065   3.358   7.752   3.869 -0.1462  0.5678 -1.1547
  242MOL    H2439066   3.068   7.734   3.794  0.3318 -0.7034 -0.4407
  242MOL    H2539067   3.075   7.682   3.962  2.0737 -2.5378  2.2156
  242MOL    C2639068   3.107   7.435   3.903 -0.1854 -0.2348  0.3157
  242MOL    C2739069   3.117   7.303   3.826  0.5788  0.1350 -0.2490
  242MOL    C2839070   3.160   7.193   3.919  0.0350  0.1293 -0.3333
  242MOL    O2939071   3.242   7.218   4.008 -0.4740  0.0008 -0.0219
  242MOL    H3039072   3.007   7.464   3.937 -0.3221 -1.9818  1.4918
  242MOL    H3139073   3.158   7.435   4.000  0.6199  3.5817 -0.0188
  242MOL    H3239074   3.197   7.305   3.752  1.7469 -1.4860  0.9367
  242MOL    H3339075   3.015   7.280   3.793  0.2811 -0.2423  0.9063
  242MOL    C3439076   3.078   7.071   3.900  0.2188  0.0420 -0.0437
  242MOL    C3539077   3.142   6.944   3.972  0.0695 -0.2937  0.1557
  242MOL    C3639078   3.084   6.909   4.107 -0.1026 -0.1094 -0.8299
  242MOL    O3739079   2.986   6.964   4.150 -0.0130  0.2433  0.0548
  242MOL    H3839080   3.068   7.048   3.794  0.6476  0.0911 -0.0975
  242MOL    H3939081   2.976   7.095   3.928  0.5609  0.2943  1.0374
  242MOL    H4039082   3.248   6.968   3.983 -0.2701  1.4068 -0.0159
  242MOL    H4139083   3.128   6.860   3.904 -1.4342 -0.6188  0.8431
  242MOL    C4239084   3.136   6.795   4.186 -0.4088 -0.7980  0.5445
  242MOL    C4339085   3.075   6.766   4.320 -1.1183 -0.1377 -0.0199
  242MOL    C4439086   2.954   6.660   4.308  0.1157 -0.1613 -0.2899
  242MOL    O4539087   2.935   6.603   4.197 -0.5903 -0.1384  0.5735
  242MOL    H4639088   3.245   6.802   4.195 -0.5114 -0.0029  1.2508
  242MOL    H4739089   3.140   6.710   4.118  1.7462  1.2564 -1.9886
  242MOL    H4839090   3.041   6.854   4.375  1.8368 -0.5655  2.6961
  242MOL    H4939091   3.157   6.739   4.387 -0.9683  0.0499 -0.1266
  242MOL    C5039092   2.882   6.613   4.431 -0.3757 -0.0449 -0.7183
  242MOL    C5139093   2.918   6.465   4.459  0.5970 -0.1259  0.1995
  242MOL    C5239094   2.988   6.448   4.591 -0.3116  0.0340  0.2216
  242MOL    O5339095   3.065   6.536   4.637  0.0970  0.1037 -0.5037
  242MOL    H5439096   2.775   6.627   4.417 -0.4626  0.3338  0.2416
  242MOL    H5539097   2.910   6.683   4.510 -1.1763 -0.6163  0.0898
  242MOL    H5639098   2.973   6.410   4.383 -1.9666 -3.0980  0.3996
  242MOL    H5739099   2.828   6.403   4.463 -0.1218  0.8523 -0.4513
  242MOL    C5839100   2.960   6.325   4.677  0.6410  0.2145  0.5147
  242MOL    C5939101   3.078   6.298   4.777 -0.3471 -0.2095  0.5271
  242MOL    C6039102   3.067   6.351   4.915 -0.0262  0.1216 -0.2097
  242MOL    O6139103   2.963   6.395   4.955  0.2418 -0.4320 -0.8115
  242MOL    H6239104   2.960   6.237   4.612 -0.0427 -0.8575  1.9451
  242MOL    H6339105   2.866   6.345   4.729 -0.2995  0.9365 -1.4031
  242MOL    H6439106   3.177   6.325   4.740 -0.8127  1.5180  0.5104
  242MOL    H6539107   3.082   6.190   4.794  1.5639 -0.1115  0.8608
  242MOL    C6639108   3.182   6.344   5.018 -0.1077  0.8816  0.5226
  242MOL    C6739109   3.207   6.480   5.080 -0.3716 -0.6644 -0.2264
  242MOL    C6839110   3.321   6.488   5.172 -0.6985  0.1633  0.0712
  242MOL    O6939111   3.377   6.381   5.201 -0.4465 -0.4525  0.1163
  242MOL    H7039112   3.267   6.314   4.958  0.8027 -0.1002  2.2726
  242MOL    H7139113   3.153   6.279   5.101 -0.8577  2.0295  1.1709
  242MOL    H7239114   3.112   6.508   5.126 -1.3029 -3.3026 -0.4513
  242MOL    H7339115   3.228   6.552   5.000  0.3750 -0.7603 -0.1152
  242MOL    C7439116   3.342   6.622   5.246 -0.4824  0.1470  0.1664
  242MOL    C7539117   3.485   6.632   5.302 -0.7179  0.4560 -0.0956
  242MOL    C7639118   3.518   6.778   5.344  0.7104  0.3134 -0.1432
  242MOL    O7739119   3.424   6.849   5.357  0.2441 -0.2690  0.1696
  242MOL    H7839120   3.268   6.622   5.327 -0.4446 -1.5241  0.2199
  242MOL    H7939121   3.325   6.703   5.175  1.3666  0.0974 -0.3497
  242MOL    H8039122   3.555   6.620   5.220  0.0313 -2.3447  0.8631
  242MOL    H8139123   3.511   6.557   5.378 -0.0698 -0.6876 -1.4313
  242MOL    C8239124   3.661   6.819   5.370  0.8162 -0.3483 -0.1855
  242MOL    C8339125   3.677   6.959   5.437 -0.0383 -0.2845  0.1444
  242MOL    C8439126   3.636   7.063   5.331 -0.2972 -0.7761 -0.2579
  242MOL    O8539127   3.687   7.060   5.219  0.3199  0.6384 -0.0900
  242MOL    H8639128   3.713   6.817   5.275 -2.0681  1.0198 -1.8803
  242MOL    H8739129   3.701   6.737   5.430  0.8063  1.3745  2.2356
  242MOL    H8839130   3.778   6.977   5.473  0.4867 -1.4622 -0.6957
  242MOL    H8939131   3.610   6.966   5.523  1.3544 -0.0083  1.2245
  242MOL    C9039132   3.533   7.174   5.366 -0.5302  0.2949  0.1145
  242MOL    C9139133   3.537   7.291   5.267 -0.0439  0.5145  0.0469
  242MOL    C9239134   3.571   7.427   5.326  0.3572 -0.6926  0.0240
  242MOL    O9339135   3.672   7.439   5.386  0.2774 -0.0738 -0.4428
  242MOL    H9439136   3.546   7.205   5.470 -1.7768  0.5106  0.2168
  242MOL    H9539137   3.435   7.128   5.355 -0.2972 -0.3597  0.7507
  242MOL    H9639138   3.441   7.300   5.218 -0.5820 -0.1844  0.9586
  242MOL    H9739139   3.613   7.275   5.190 -0.9253  1.2620 -0.9740
  242MOL    C9839140   3.488   7.550   5.295 -0.0129  0.1763 -0.4233
  242MOL    C9939141   3.562   7.685   5.303  0.5495  0.1263  0.6579
  242MOL   C10039142   3.472   7.810   5.321 -0.7254 -0.4850 -0.0887
  242MOL   O10139143   3.364   7.795   5.363  0.9982  0.5890 -0.0024
  242MOL   H10239144   3.396   7.551   5.353  0.0855 -0.9791 -0.2416
  242MOL   H10339145   3.464   7.543   5.189  1.7203  0.6430 -0.8645
  242MOL   H10439146   3.614   7.701   5.209 -0.7153 -0.3304 -0.1137
  242MOL   H10539147   3.628   7.689   5.390  1.2534  2.7132  0.0437
  242MOL   C10639148   3.513   0.090   5.268 -0.0491 -0.4169  0.7342
  242MOL   C10739149   3.460   0.206   5.364 -0.0344  0.5508  0.1552
  242MOL   C10839150   3.555   0.228   5.481  0.0808  0.0368  0.4712
  242MOL   O10939151   3.656   0.159   5.494 -0.3045  0.3848 -0.4617
  242MOL   H11039152   3.481   0.098   5.164  0.7472  1.7497  0.6297
  242MOL   H11139153   3.620   0.103   5.251 -0.1615 -1.0306 -0.4705
  242MOL   H11239154   3.365   0.183   5.412  0.2627  0.4462  0.6929
  242MOL   H11339155   3.455   0.304   5.317  0.1107  1.8838  2.8197
  242MOL   C11439156   3.512   0.328   5.584 -0.1752 -0.1644  0.5953
  242MOL   C11539157   3.584   0.322   5.718  0.4819 -0.2878  0.4516
  242MOL   C11639158   3.705   0.405   5.726 -0.2176 -0.4340 -0.3031
  242MOL   O11739159   3.725   0.502   5.660  0.0819  0.3265 -0.3280
  242MOL   H11839160   3.407   0.308   5.609 -0.4676 -0.5067 -0.8606
  242MOL   H11939161   3.513   0.424   5.532 -1.9738  0.5324  1.7791
  242MOL   H12039162   3.613   0.223   5.752 -1.5387 -1.0835 -0.1111
  242MOL   H12139163   3.515   0.355   5.795  1.1364 -0.3226  1.0601
  242MOL   C12239164   3.790   0.384   5.850 -0.1344 -0.0462 -0.2570
  242MOL   C12339165   3.939   0.438   5.836 -0.5083  0.6324 -0.0418
  242MOL   C12439166   4.038   0.347   5.902  0.1388  0.3303  0.0539
  242MOL   O12539167   4.008   0.252   5.978 -0.2655  1.0089 -0.5028
  242MOL   H12639168   3.791   0.276   5.869  0.5657  0.0144  0.0376
  242MOL   H12739169   3.749   0.440   5.934  0.0908  0.4150 -0.4550
  242MOL   H12839170   3.943   0.540   5.874  2.3029  0.9715 -1.1653
  242MOL   H12939171   3.954   0.459   5.730  3.0260 -1.3480 -0.0275
  242MOL   C13039172   4.185   0.375   5.883 -0.1139 -0.3081 -0.1392
  242MOL   C13139173   4.285   0.317   5.982  0.1925 -0.7597 -0.0041
  242MOL   C13239174   4.308   0.404   6.107 -1.5302  0.1214  0.6384
  242MOL   O13339175   4.381   0.504   6.097 -0.1701  0.2766  0.1648
  242MOL   H13439176   4.202   0.482   5.873 -0.4700 -0.3112 -0.7279
  242MOL   H13539177   4.196   0.330   5.785  0.2458 -2.5390  0.9056
  242MOL   H13639178   4.386   0.312   5.940 -0.7973  2.3530 -2.9357
  242MOL   H13739179   4.272   0.218   6.026  1.7871 -1.7117 -1.5528
  242MOL   C13839180   4.238   0.385   6.238 -0.4484 -0.1604 -0.4025
  242MOL   C13939181   4.328   0.335   6.352  0.5211 -0.1632  0.1664
  242MOL   C14039182   4.358   0.187   6.343 -0.0922 -0.1634  0.1477
  242MOL   O14139183   4.284   0.095   6.309  0.8036  0.0181  0.2483
  242MOL   H14239184   4.144   0.329   6.239  0.9531 -2.6040  1.5131
  242MOL   H14339185   4.211   0.490   6.252  2.4451  0.4318  1.0515
  242MOL   H14439186   4.296   0.358   6.454  1.3731 -0.9820  0.6335
  242MOL   H14539187   4.420   0.394   6.345 -0.8239  1.8905 -0.6564
  242MOL   C14639188   4.496   0.154   6.393 -0.3239  0.5528 -0.0263
  242MOL   C14739189   4.538   0.004   6.380  0.2854  0.0325  0.1065
  242MOL   C14839190   4.606   7.802   6.504  0.3503  0.0616  0.0370
  242MOL   O14939191   4.627   0.004   6.609 -0.2609  0.0277  0.2753
  242MOL   H15039192   4.503   0.184   6.497 -0.5163 -0.1558  0.1909
  242MOL   H15139193   4.571   0.214   6.340 -0.1318  0.4975  0.1827
  242MOL   H15239194   4.602   7.841   6.295  1.3399 -0.3590  0.9809
  242MOL   H15339195   4.449   7.800   6.378  0.3210 -0.0396  0.6869
  242MOL   C15439196   4.668   7.657   6.483  0.1106  0.0765  0.1497
  242MOL   C15539197   4.814   7.642   6.529  0.5084 -0.5843  0.2588
  242MOL   C15639198   4.832   7.523   6.618  0.0448 -0.0171 -0.2207
  242MOL   O15739199   4.879   7.416   6.588  0.0179 -0.0824 -0.2869
  242MOL   H15839200   4.659   7.628   6.378  0.3584  1.6938 -0.3339
  242MOL   H15939201   4.607   7.588   6.542  0.8608  1.4738  2.6276
  242MOL   H16039202   4.847   7.736   6.572  0.8918  0.2664 -1.8548
  242MOL   H16139203   4.872   7.624   6.438  0.5885  1.2819 -0.0775
  242MOL   H16239204   4.797   7.543   6.719 -0.9779  2.7948 -1.0919
  243MOL     C139205   1.675   0.052   5.104 -0.2565  0.4738 -0.5692
  243MOL     C239206   1.629   0.186   5.035 -0.3334  0.3729  0.2785
  243MOL     C339207   1.587   0.174   4.887 -0.5199 -0.6578  0.7443
  243MOL     O439208   1.559   0.064   4.830 -0.2075 -0.3382 -0.0420
  243MOL     H539209   1.719   0.074   5.202  1.3398  0.7403 -1.3339
  243MOL     H639210   1.592   7.843   5.124 -1.0178  1.9306  1.4271
  243MOL     H739211   1.710   0.258   5.042  1.3444 -1.5050  0.5199
  243MOL     H839212   1.541   0.236   5.077 -1.2849  0.4661 -1.7723
  243MOL     H939213   1.748   7.853   5.048  1.4970  0.8189  1.3126
  243MOL    C1039214   1.590   0.305   4.804  0.2735  0.2740 -0.4282
  243MOL    C1139215   1.600   0.292   4.651 -0.0135 -0.0621 -0.1933
  243MOL    C1239216   1.699   0.391   4.590  0.2374 -0.3296  0.6580
  243MOL    O1339217   1.772   0.466   4.659 -0.2855 -0.0361 -0.2083
  243MOL    H1439218   1.686   0.345   4.839  1.0136 -1.7950 -0.0317
  243MOL    H1539219   1.499   0.358   4.831 -1.0476  0.1590 -4.3599
  243MOL    H1639220   1.496   0.313   4.623 -0.8202 -1.3620  1.7152
  243MOL    H1739221   1.616   0.196   4.601 -1.3622  0.8036 -2.3638
  243MOL    C1839222   1.705   0.403   4.441 -0.6302 -0.4089  0.0276
  243MOL    C1939223   1.837   0.443   4.378  0.8953  0.8255  0.1561
  243MOL    C2039224   1.845   0.585   4.324 -0.5214 -0.8342 -0.6913
  243MOL    O2139225   1.748   0.661   4.348  0.1707  0.3047  0.4936
  243MOL    H2239226   1.630   0.476   4.410 -1.7655 -1.8023 -0.5976
  243MOL    H2339227   1.671   0.305   4.407 -1.1204 -0.3708  0.3924
  243MOL    H2439228   1.865   0.378   4.295  0.3874  0.0037  0.6205
  243MOL    H2539229   1.921   0.434   4.447 -0.7974  0.0565  2.1500
  243MOL    C2639230   1.976   0.632   4.258 -0.1061  0.3297  0.4324
  243MOL    C2739231   1.953   0.749   4.164  0.3064  0.0609 -0.7042
  243MOL    C2839232   2.065   0.755   4.061  0.0312  0.6244  0.4009
  243MOL    O2939233   2.116   0.643   4.022  0.1201 -0.1148  0.0402
  243MOL    H3039234   2.026   0.548   4.209  0.5075 -0.4316  2.3241
  243MOL    H3139235   2.045   0.665   4.335 -0.9430 -1.3541  1.9499
  243MOL    H3239236   1.949   0.845   4.215 -1.6990  1.1599 -2.8673
  243MOL    H3339237   1.853   0.743   4.120 -0.8219 -0.3504  1.8521
  243MOL    C3439238   2.080   0.886   3.985 -0.0822  0.6248 -0.2980
  243MOL    C3539239   2.184   0.893   3.876  0.5957  1.0583  0.2652
  243MOL    C3639240   2.138   0.981   3.757  0.0338  0.2058  0.4423
  243MOL    O3739241   2.093   0.928   3.658  0.1286 -0.1138 -0.5071
  243MOL    H3839242   2.101   0.968   4.054  0.2963  1.5725 -1.5197
  243MOL    H3939243   1.987   0.910   3.934  0.2883  0.8256 -0.8899
  243MOL    H4039244   2.207   0.797   3.829  1.1528  0.2640  2.1368
  243MOL    H4139245   2.278   0.922   3.922 -0.7137  0.3797  3.5349
  243MOL    C4239246   2.137   1.131   3.764  0.0534 -0.1191 -0.0135
  243MOL    C4339247   2.084   1.210   3.642  0.4549  0.1976 -0.0734
  243MOL    C4439248   1.957   1.281   3.669  0.5129  0.0938 -0.2026
  243MOL    O4539249   1.911   1.296   3.783 -0.3695 -0.0850 -0.0917
  243MOL    H4639250   2.245   1.147   3.764  0.2201 -1.1219 -0.7950
  243MOL    H4739251   2.087   1.155   3.858 -1.0847 -2.0366 -0.0972
  243MOL    H4839252   2.072   1.137   3.562 -0.8639  1.4022 -0.9872
  243MOL    H4939253   2.151   1.287   3.603 -0.6840  1.2191 -0.0339
  243MOL    C5039254   1.881   1.323   3.545  0.8224  0.3496  0.2148
  243MOL    C5139255   1.728   1.283   3.557  0.0507  0.1371 -0.3262
  243MOL    C5239256   1.633   1.384   3.500  0.4244 -0.6597 -0.4364
  243MOL    O5339257   1.672   1.498   3.487 -0.1114 -0.3122  0.0609
  243MOL    H5439258   1.916   1.265   3.460 -1.9306 -3.2586  1.3658
  243MOL    H5539259   1.891   1.430   3.531 -0.7042  0.9095  2.9039
  243MOL    H5639260   1.709   1.267   3.664  0.3877  2.8035  0.1566
  243MOL    H5739261   1.708   1.191   3.501 -1.6121  0.2261  0.0963
  243MOL    C5839262   1.495   1.327   3.458 -0.3408 -0.0830  0.3858
  243MOL    C5939263   1.387   1.368   3.557  0.2967 -0.2810  0.3198
  243MOL    C6039264   1.375   1.276   3.673 -0.1393  0.3353 -0.2925
  243MOL    O6139265   1.453   1.188   3.690  0.2522 -0.2444  0.0619
  243MOL    H6239266   1.502   1.219   3.450  2.4652  0.2078 -1.7885
  243MOL    H6339267   1.464   1.356   3.358  1.3217  0.9528  0.1491
  243MOL    H6439268   1.295   1.367   3.498 -0.9297  2.8261  2.0794
  243MOL    H6539269   1.413   1.469   3.587  0.2826 -0.7377  1.9519
  243MOL    C6639270   1.258   1.290   3.766  0.5942  0.1201  0.3362
  243MOL    C6739271   1.299   1.287   3.914 -0.0638 -0.1735 -0.3492
  243MOL    C6839272   1.206   1.373   3.999  0.5387  0.4233 -0.5425
  243MOL    O6939273   1.101   1.422   3.950  0.0710  0.6520 -1.2085
  243MOL    H7039274   1.202   1.200   3.740  0.6318  0.2754 -0.2855
  243MOL    H7139275   1.197   1.376   3.739 -0.8533 -1.4249 -1.4985
  243MOL    H7239276   1.402   1.320   3.925  0.4959 -1.9969  0.0391
  243MOL    H7339277   1.293   1.183   3.945  1.0405 -0.4517 -1.0459
  243MOL    C7439278   1.249   1.387   4.149  0.1916  0.0861  0.0412
  243MOL    C7539279   1.167   1.491   4.233 -0.2929  0.4939 -0.0334
  243MOL    C7639280   1.245   1.618   4.233  1.0388  0.7943 -0.3713
  243MOL    O7739281   1.360   1.623   4.195  0.6748 -0.2748 -0.8343
  243MOL    H7839282   1.357   1.391   4.147  0.2190 -1.0714 -2.0566
  243MOL    H7939283   1.221   1.292   4.194  0.5691 -0.4978 -0.9586
  243MOL    H8039284   1.154   1.456   4.335 -0.2471  2.8028  0.7894
  243MOL    H8139285   1.066   1.504   4.195  0.3218  0.5031 -1.7499
  243MOL    C8239286   1.174   1.749   4.264 -0.1450 -0.1362 -0.6476
  243MOL    C8339287   1.256   1.838   4.356  0.1324  0.6479 -0.5258
  243MOL    C8439288   1.191   1.974   4.370 -0.6540 -0.1670  0.2018
  243MOL    O8539289   1.228   2.074   4.311  0.7729 -0.2578 -0.2676
  243MOL    H8639290   1.073   1.730   4.301 -0.0925  0.6521 -0.0966
  243MOL    H8739291   1.157   1.793   4.166  0.3943 -0.2646 -0.7984
  243MOL    H8839292   1.350   1.859   4.305 -0.1169  1.6300 -0.5730
  243MOL    H8939293   1.272   1.794   4.454  1.1329  0.3793 -0.8033
  243MOL    C9039294   1.074   1.998   4.465 -0.2403 -0.0492  0.1849
  243MOL    C9139295   1.136   2.091   4.565 -0.1304 -0.8566  0.4475
  243MOL    C9239296   1.070   2.233   4.555 -0.6762  0.1136  0.6329
  243MOL    O9339297   0.944   2.248   4.571 -0.4493  0.8347  0.1006
  243MOL    H9439298   1.030   1.906   4.504  0.8690 -0.0430  1.4930
  243MOL    H9539299   0.988   2.049   4.421  0.4530  0.9710  0.0040
  243MOL    H9639300   1.244   2.106   4.564 -0.2139 -0.1938  0.9801
  243MOL    H9739301   1.106   2.049   4.662 -1.2155  0.7933  0.8519
  243MOL    C9839302   1.148   2.359   4.541 -0.0548  0.6922 -0.8277
  243MOL    C9939303   1.150   2.416   4.400  0.0800  0.1167 -0.5976
  243MOL   C10039304   1.218   2.551   4.389  0.4459  0.2333 -0.2491
  243MOL   O10139305   1.255   2.605   4.486  0.4398  0.5346  0.5012
  243MOL   H10239306   1.244   2.347   4.591 -1.5448  1.0098  2.2648
  243MOL   H10339307   1.103   2.435   4.605  0.9925  1.6037 -1.1563
  243MOL   H10439308   1.050   2.430   4.358 -0.0042  2.2546  0.2427
  243MOL   H10539309   1.201   2.354   4.326  0.8068  0.5064 -0.4324
  243MOL   C10639310   1.227   2.609   4.253 -0.1699 -0.1328 -0.2892
  243MOL   C10739311   1.352   2.706   4.243 -0.2827 -0.1584 -0.1113
  243MOL   C10839312   1.442   2.684   4.120  0.1066 -0.5755 -0.6583
  243MOL   O10939313   1.404   2.607   4.036  0.1401  0.3459 -0.2508
  243MOL   H11039314   1.138   2.663   4.221 -0.0526 -0.3156 -0.9213
  243MOL   H11139315   1.238   2.520   4.192  0.5336  0.1362 -0.5627
  243MOL   H11239316   1.412   2.702   4.334  1.7144 -2.6723 -1.4898
  243MOL   H11339317   1.336   2.812   4.227  2.0927  0.1778 -0.4886
  243MOL   C11439318   1.582   2.745   4.123  0.5069  0.1688  0.1547
  243MOL   C11539319   1.687   2.686   4.023 -0.7075  0.5037 -0.0808
  243MOL   C11639320   1.742   2.565   4.094 -0.5418  0.3480  0.0897
  243MOL   O11739321   1.803   2.578   4.200 -0.9109 -1.3701  0.1059
  243MOL   H11839322   1.628   2.763   4.221 -1.1444 -1.2383  1.2254
  243MOL   H11939323   1.554   2.844   4.088 -3.9391 -0.2330  2.2348
  243MOL   H12039324   1.761   2.758   3.990 -1.5087  1.3686 -0.0298
  243MOL   H12139325   1.634   2.670   3.929 -0.1135  0.7319 -0.4538
  243MOL   C12239326   1.681   2.432   4.053  0.2633  0.5899 -0.2326
  243MOL   C12339327   1.775   2.312   4.081 -0.4931  0.3066  0.0381
  243MOL   C12439328   1.721   2.195   3.989  0.1998  0.8366  0.2513
  243MOL   O12539329   1.796   2.147   3.909  0.3711  0.4846 -0.0133
  243MOL   H12639330   1.646   2.448   3.951 -0.3216  0.0254 -0.1202
  243MOL   H12739331   1.601   2.416   4.125  0.2615  0.4507 -0.2650
  243MOL   H12839332   1.771   2.280   4.185 -0.2736  0.5895  0.1345
  243MOL   H12939333   1.877   2.339   4.052 -0.9209  2.2452  0.2825
  243MOL   C13039334   1.572   2.154   3.983 -0.0350  0.1306  0.6947
  243MOL   C13139335   1.530   2.080   4.119  0.4402 -0.0429 -0.0422
  243MOL   C13239336   1.503   2.170   4.238  0.2214  0.2882  0.2592
  243MOL   O13339337   1.439   2.276   4.226  0.9305  0.0756  0.3176
  243MOL   H13439338   1.566   2.092   3.893  1.7175  0.3454  0.4065
  243MOL   H13539339   1.512   2.243   3.963 -0.2294 -0.2155 -0.2781
  243MOL   H13639340   1.610   2.010   4.145 -1.0712 -1.5420  0.7291
  243MOL   H13739341   1.443   2.016   4.102  1.7034 -1.9477  0.4080
  243MOL   C13839342   1.552   2.132   4.381  0.0788 -0.2832 -0.5823
  243MOL   C13939343   1.534   2.243   4.492  0.0661 -0.3347 -0.1275
  243MOL   C14039344   1.625   2.363   4.482 -0.1350 -0.4324 -0.1850
  243MOL   O14139345   1.731   2.362   4.422 -0.1250 -0.0352  0.1832
  243MOL   H14239346   1.655   2.099   4.392 -0.7823 -2.4660  1.5036
  243MOL   H14339347   1.488   2.053   4.421  0.4689  0.2143  1.0475
  243MOL   H14439348   1.540   2.198   4.591  2.9531  1.0327  0.3929
  243MOL   H14539349   1.438   2.294   4.490  1.1746  1.9900  2.0430
  243MOL   C14639350   1.571   2.491   4.539  0.6908 -0.6432  0.3109
  243MOL   C14739351   1.683   2.588   4.576  0.0595 -0.3169 -0.1866
  243MOL   C14839352   1.657   2.731   4.532  0.2496  0.1587 -0.1157
  243MOL   O14939353   1.542   2.781   4.514  0.4590 -0.2804  0.0935
  243MOL   H15039354   1.509   2.459   4.622  0.5442  1.0994  0.8911
  243MOL   H15139355   1.502   2.535   4.467  0.6795  0.1400  0.7962
  243MOL   H15239356   1.785   2.559   4.551  0.9386  0.4501  2.3196
  243MOL   H15339357   1.673   2.597   4.685  0.4414  1.4576 -0.2825
  243MOL   C15439358   1.786   2.823   4.523 -0.1882  0.0062 -0.3532
  243MOL   C15539359   1.856   2.804   4.388  0.0184 -0.8108 -0.4345
  243MOL   C15639360   1.920   2.935   4.347 -0.5568 -0.0349 -0.3071
  243MOL   O15739361   2.043   2.946   4.355  0.1581 -0.2258 -0.0235
  243MOL   H15839362   1.845   2.789   4.608 -1.5076  0.4429  0.7583
  243MOL   H15939363   1.758   2.928   4.532 -0.4190 -0.1735  1.3061
  243MOL   H16039364   1.801   2.764   4.303  2.0353 -0.7790 -1.7943
  243MOL   H16139365   1.932   2.726   4.404  0.4764 -0.2994 -0.0909
  243MOL   H16239366   1.851   3.004   4.298  0.8116  0.3816 -1.6617
  244MOL     C139367   6.898   7.443   3.474 -0.1276 -0.2272  0.1635
  244MOL     C239368   7.010   7.342   3.491 -0.3332 -0.2691  0.1998
  244MOL     C339369   7.007   7.246   3.374 -0.1658  0.5577 -0.1788
  244MOL     O439370   7.100   7.246   3.290 -0.0665  0.9661 -0.2924
  244MOL     H539371   6.800   7.397   3.487  0.5667 -1.9705 -0.6259
  244MOL     H639372   6.917   7.522   3.546 -0.8723 -0.5179  0.6805
  244MOL     H739373   6.994   7.280   3.579  1.2402 -0.8267  0.1012
  244MOL     H839374   7.109   7.383   3.507 -0.0606 -0.4498 -0.9441
  244MOL     H939375   6.895   7.486   3.374  0.9556  0.3490  0.3732
  244MOL    C1039376   6.914   7.131   3.379 -1.0919  0.4100 -0.0518
  244MOL    C1139377   6.965   7.004   3.301  0.3473 -0.4510 -0.3575
  244MOL    C1239378   7.063   6.922   3.386  0.1455 -0.1322  0.3010
  244MOL    O1339379   7.120   6.967   3.486  0.0128 -0.4116 -0.2649
  244MOL    H1439380   6.816   7.165   3.346 -1.2741 -0.6966 -0.6926
  244MOL    H1539381   6.902   7.104   3.484 -1.9302 -0.8357 -0.4541
  244MOL    H1639382   7.015   7.039   3.212 -1.1756 -0.0231 -1.0703
  244MOL    H1739383   6.881   6.948   3.261 -0.2802  1.1526 -1.3531
  244MOL    C1839384   7.080   6.778   3.342 -0.5748 -0.2261  0.4658
  244MOL    C1939385   7.218   6.724   3.393  0.2976  0.0314  0.0203
  244MOL    C2039386   7.229   6.574   3.378 -0.1883  0.3479 -0.3268
  244MOL    O2139387   7.131   6.498   3.357 -0.2981  0.0387 -0.0059
  244MOL    H2239388   7.092   6.787   3.234  2.0471  1.7525  0.8697
  244MOL    H2339389   6.995   6.712   3.362 -1.7299  1.0764 -0.0132
  244MOL    H2439390   7.238   6.751   3.497  2.1503 -1.7727  0.1702
  244MOL    H2539391   7.303   6.758   3.335  0.3731  0.6390  0.4794
  244MOL    C2639392   7.366   6.503   3.370  0.1625 -0.5759 -0.0913
  244MOL    C2739393   7.359   6.373   3.452  0.4022 -0.2348 -0.4780
  244MOL    C2839394   7.371   6.392   3.602 -0.7844 -0.3202  0.7484
  244MOL    O2939395   7.383   6.506   3.647 -0.0527 -0.6769 -0.1480
  244MOL    H3039396   7.443   6.565   3.416 -0.9552 -0.5794  1.8578
  244MOL    H3139397   7.374   6.500   3.261 -1.2102  1.4591 -0.2833
  244MOL    H3239398   7.445   6.319   3.412  0.9076 -0.5065  0.9761
  244MOL    H3339399   7.269   6.323   3.417 -0.9335  1.9199 -0.2007
  244MOL    C3439400   7.372   6.270   3.691 -0.0406 -0.2465 -0.2774
  244MOL    C3539401   7.408   6.289   3.838  0.2642 -0.0315  0.2821
  244MOL    C3639402   7.558   6.306   3.863  0.2214 -0.4346  0.3387
  244MOL    O3739403   7.633   6.211   3.842  0.3349 -0.0944  0.6022
  244MOL    H3839404   7.447   6.203   3.648 -0.1003 -0.1426 -0.5419
  244MOL    H3939405   7.270   6.231   3.689 -0.1214 -0.0069 -1.8266
  244MOL    H4039406   7.363   6.214   3.904 -0.0009  0.4789  0.6876
  244MOL    H4139407   7.380   6.388   3.874  2.5392  0.2870  1.3165
  244MOL    C4239408   7.608   6.445   3.913 -0.1415  0.2641 -0.4529
  244MOL    C4339409   7.707   6.422   4.026  0.4352 -0.1218 -0.3626
  244MOL    C4439410   7.663   6.495   4.149 -0.2723 -0.1897 -0.1392
  244MOL    O4539411   7.549   6.526   4.175  0.4068  0.4269  0.1765
  244MOL    H4639412   7.524   6.505   3.948 -0.9456 -1.1956  0.1477
  244MOL    H4739413   7.666   6.502   3.840 -0.4786 -1.1572 -1.8531
  244MOL    H4839414   7.809   6.457   4.015  0.6665 -1.2766 -2.1359
  244MOL    H4939415   7.716   6.316   4.053  1.2890 -0.3342 -1.4323
  244MOL    C5039416   7.768   6.521   4.261  0.5469 -0.2808  0.7372
  244MOL    C5139417   7.794   6.405   4.360  0.5614 -0.2941  0.1091
  244MOL    C5239418   0.067   6.331   4.346 -0.1617  0.0546 -0.4102
  244MOL    O5339419   0.094   6.278   4.237  0.1361  0.1271 -0.1748
  244MOL    H5439420   7.728   6.611   4.308  0.5253 -0.3591  0.8655
  244MOL    H5539421   0.007   6.548   4.221  0.6824  1.8179  2.3817
  244MOL    H5639422   7.729   6.320   4.335 -1.9625  1.8516 -0.8976
  244MOL    H5739423   7.777   6.436   4.463 -1.0945 -1.6630  0.2920
  244MOL    C5839424   0.156   6.312   4.472 -0.2684  0.1904 -0.3724
  244MOL    C5939425   0.256   6.195   4.451  0.3525  0.8288 -0.4561
  244MOL    C6039426   0.402   6.233   4.446  0.3511 -0.3882  0.3334
  244MOL    O6139427   0.445   6.350   4.461 -0.4783  0.4211 -0.2326
  244MOL    H6239428   0.094   6.287   4.558 -2.8963 -2.4338 -2.9107
  244MOL    H6339429   0.204   6.408   4.489  0.0589 -0.2587  1.2790
  244MOL    H6439430   0.227   6.138   4.363  2.2031  2.3212 -2.0857
  244MOL    H6539431   0.237   6.128   4.534 -0.2545 -0.4688 -1.6225
  244MOL    C6639432   0.507   6.122   4.413  0.2798 -1.1224  0.2269
  244MOL    C6739433   0.498   6.081   4.267 -0.0359  0.1717  0.7166
  244MOL    C6839434   0.644   6.057   4.207 -0.7098 -0.0305  0.5315
  244MOL    O6939435   0.709   5.967   4.253 -0.1288 -0.2425  0.0003
  244MOL    H7039436   0.485   6.043   4.485  1.4450 -0.0124  1.8323
  244MOL    H7139437   0.609   6.139   4.447  0.7070 -1.8518 -0.6514
  244MOL    H7239438   0.464   6.161   4.201 -0.7693  1.1876  2.3099
  244MOL    H7339439   0.438   5.993   4.246  0.5949 -0.2942  0.8399
  244MOL    C7439440   0.696   6.151   4.099 -0.6345 -0.2477 -0.7333
  244MOL    C7539441   0.742   6.077   3.975  0.2265 -0.1856 -0.0230
  244MOL    C7639442   0.623   6.026   3.892 -0.0939  0.3131  0.7835
  244MOL    O7739443   0.517   5.998   3.946 -0.1235  0.0841  0.2591
  244MOL    H7839444   0.771   6.205   4.157 -0.6479 -0.3522 -0.6181
  244MOL    H7939445   0.627   6.227   4.065 -0.4601 -0.1109 -0.7817
  244MOL    H8039446   0.790   5.988   4.016  0.5488  0.3749  0.8260
  244MOL    H8139447   0.808   6.143   3.919  0.7261 -1.1100 -0.5301
  244MOL    C8239448   0.637   6.015   3.740  0.1351 -0.3021  0.2634
  244MOL    C8339449   0.507   5.981   3.671 -0.4795 -0.0684  0.2171
  244MOL    C8439450   0.496   6.027   3.527 -0.6148  0.1844  0.9220
  244MOL    O8539451   0.558   6.128   3.490 -0.0226  0.1409  0.4021
  244MOL    H8639452   0.705   5.933   3.720  1.8707  0.9065  1.1093
  244MOL    H8739453   0.681   6.109   3.707 -0.4175 -0.0895  0.1107
  244MOL    H8839454   0.430   6.043   3.717 -1.6220  0.1385 -1.8938
  244MOL    H8939455   0.496   5.873   3.675 -0.8265 -0.1275 -1.7923
  244MOL    C9039456   0.407   5.955   3.424  0.2981 -0.1041  0.6918
  244MOL    C9139457   0.427   6.003   3.278  0.1171  0.0304 -0.1160
  244MOL    C9239458   0.346   6.125   3.237 -0.5732 -0.6334  0.6394
  244MOL    O9339459   0.229   6.139   3.253  0.0820 -0.1459 -0.0818
  244MOL    H9439460   0.305   5.969   3.462 -0.2435 -0.3555 -0.6641
  244MOL    H9539461   0.422   5.847   3.431 -0.1393 -0.1763  0.5283
  244MOL    H9639462   0.381   5.926   3.216 -1.7719  1.0653 -0.0549
  244MOL    H9739463   0.530   6.014   3.245  0.3313  0.0805  0.5612
  244MOL    C9839464   0.424   6.215   3.138  0.7136 -0.1174 -0.7464
  244MOL    C9939465   0.389   6.361   3.158  0.9045  0.1157 -0.2773
  244MOL   C10039466   0.417   6.444   3.029  0.2835 -0.1864 -0.6544
  244MOL   O10139467   0.512   6.415   2.955 -0.1129  0.1500 -0.0963
  244MOL   H10239468   0.394   6.186   3.037  1.1531  1.7214 -1.4163
  244MOL   H10339469   0.531   6.196   3.149  0.6126 -1.2353 -1.5406
  244MOL   H10439470   0.450   6.383   3.245  3.1548 -0.8051 -1.5848
  244MOL   H10539471   0.285   6.378   3.187  0.6960 -0.2482 -0.8054
  244MOL   C10639472   0.330   6.564   3.001  0.5536  0.5679  0.0655
  244MOL   C10739473   0.403   6.693   2.992  0.1159  0.2287  0.9076
  244MOL   C10839474   0.328   6.777   2.891  0.3234  0.0755 -0.0109
  244MOL   O10939475   0.312   6.735   2.776 -0.1424 -0.5062  0.0825
  244MOL   H11039476   0.255   6.568   3.080 -0.6895  0.4921 -1.1077
  244MOL   H11139477   0.283   6.544   2.905 -1.1262  2.4143  0.4863
  244MOL   H11239478   0.510   6.681   2.978 -0.0577  0.9697 -1.1409
  244MOL   H11339479   0.387   6.754   3.081  0.6760 -0.2812  1.3586
  244MOL   C11439480   0.268   6.911   2.944  0.2176  0.1277 -0.3484
  244MOL   C11539481   0.132   6.943   2.882 -0.2648  0.5567 -0.4129
  244MOL   C11639482   0.018   6.998   2.971 -0.3552  0.0720  0.0811
  244MOL   O11739483   7.856   6.952   3.083 -0.0536  0.1351  0.4812
  244MOL   H11839484   0.332   6.998   2.932 -0.1195  0.2916 -0.9784
  244MOL   H11939485   0.253   6.901   3.051 -0.2344  0.3679 -0.3871
  244MOL   H12039486   0.091   6.850   2.841 -0.2624 -0.1424  1.1193
  244MOL   H12139487   0.146   7.011   2.798  1.3378  0.8787  0.0943
  244MOL   C12239488   7.769   7.078   2.894 -0.1798  0.2399 -0.2567
  244MOL   C12339489   7.713   7.196   2.985 -0.4122  0.3348  0.1810
  244MOL   C12439490   7.672   7.320   2.910  0.2007  0.0850 -0.5461
  244MOL   O12539491   7.717   7.338   2.793  0.4831  0.1912  0.3710
  244MOL   H12639492   7.689   7.006   2.876  0.2489 -0.5495  0.9455
  244MOL   H12739493   7.812   7.114   2.801  1.6564 -2.8249 -0.6633
  244MOL   H12839494   7.784   7.238   3.055  0.7087 -1.7566  0.3187
  244MOL   H12939495   7.635   7.151   3.047 -0.7308  0.4575 -0.1232
  244MOL   C13039496   7.579   7.415   2.982 -0.6365 -0.1332 -0.4698
  244MOL   C13139497   7.564   7.549   2.906  0.0031  0.0466 -0.1559
  244MOL   C13239498   7.656   7.653   2.969  0.3109 -0.6107  0.1339
  244MOL   O13339499   7.764   7.673   2.916  0.5950 -0.0391 -0.2319
  244MOL   H13439500   7.610   7.431   3.086 -0.0088  1.3032 -0.8672
  244MOL   H13539501   7.475   7.383   2.973 -0.5779 -0.4108 -0.1822
  244MOL   H13639502   7.460   7.579   2.915 -0.1883 -0.4733 -0.6149
  244MOL   H13739503   7.585   7.549   2.799  1.3078 -1.4315  0.0767
  244MOL   C13839504   7.605   7.729   3.093 -0.3819 -0.4039  0.1117
  244MOL   C13939505   7.679   0.006   3.120  0.4241 -0.1327 -0.0207
  244MOL   C14039506   7.594   0.130   3.087 -0.0612 -0.8050 -0.0307
  244MOL   O14139507   7.569   0.215   3.174 -0.1834 -0.1095  0.5493
  244MOL   H14239508   7.609   7.652   3.170  0.8809 -0.3396  0.1236
  244MOL   H14339509   7.503   7.757   3.067  0.2084 -0.0865 -1.9122
  244MOL   H14439510   7.775   7.857   3.069 -0.2721 -2.2733 -1.0369
  244MOL   H14539511   7.696   0.009   3.228  1.2559 -0.0115 -0.1467
  244MOL   C14639512   7.583   0.162   2.937  0.5550  0.2110  0.1686
  244MOL   C14739513   7.468   0.264   2.913  0.1060  0.0385  0.1302
  244MOL   C14839514   7.328   0.209   2.938 -1.0635  0.0488 -0.1201
  244MOL   O14939515   7.315   0.089   2.958 -0.3362  0.3233  0.6239
  244MOL   H15039516   7.560   0.063   2.899 -3.6185  0.0296  2.7978
  244MOL   H15139517   7.680   0.200   2.906  1.6091 -2.8640 -0.4417
  244MOL   H15239518   7.479   0.301   2.811 -2.1603  0.0420 -0.1393
  244MOL   H15339519   7.477   0.351   2.980  1.7111 -0.4906  0.6243
  244MOL   C15439520   7.208   0.301   2.923 -0.2691 -0.1624  0.2942
  244MOL   C15539521   7.076   0.224   2.911 -0.4425  0.3587 -0.0937
  244MOL   C15639522   6.989   0.224   3.034  0.0541 -0.3243  0.1099
  244MOL   O15739523   7.035   0.241   3.146  0.4851  0.0145 -0.0182
  244MOL   H15839524   7.215   0.364   2.834  3.5009  0.4027  0.8964
  244MOL   H15939525   7.213   0.362   3.013  1.4469 -1.8694  1.4170
  244MOL   H16039526   7.094   0.120   2.884 -1.9360  0.2977 -0.9317
  244MOL   H16139527   7.014   0.268   2.832 -1.0305 -3.6096 -1.9695
  244MOL   H16239528   6.885   0.211   3.004  0.0734  2.3673 -1.3096
  245MOL     C139529   1.786   0.923   7.390 -0.7748 -0.5779  0.1459
  245MOL     C239530   1.756   0.780   7.449  0.1729  0.2654  0.4984
  245MOL     C339531   1.600   0.750   7.445 -0.1519 -0.7138 -0.3190
  245MOL     O439532   1.523   0.843   7.430  0.4823  0.1650 -0.2742
  245MOL     H539533   1.893   0.943   7.399 -1.5863  3.2279  2.3527
  245MOL     H639534   1.757   0.933   7.285 -1.0111 -1.7215  0.0959
  245MOL     H739535   1.788   0.758   7.550 -1.5027 -1.8638  0.6135
  245MOL     H839536   1.805   0.703   7.389 -1.2125  1.0009 -1.6648
  245MOL     H939537   1.718   0.998   7.430 -0.5219 -1.0159  1.3906
  245MOL    C1039538   1.562   0.604   7.478 -0.2460  0.3817 -0.6483
  245MOL    C1139539   1.468   0.547   7.369 -0.0635  0.1180 -0.0970
  245MOL    C1239540   1.538   0.499   7.238  0.7546  0.6205  0.2430
  245MOL    O1339541   1.658   0.474   7.244  0.0888 -0.5586  0.6099
  245MOL    H1439542   1.520   0.610   7.579  0.5073  0.9575 -0.3599
  245MOL    H1539543   1.655   0.548   7.468 -0.5466 -0.1095 -0.7051
  245MOL    H1639544   1.388   0.620   7.355  1.0876  1.3998 -0.1054
  245MOL    H1739545   1.424   0.460   7.417  1.1221 -1.0182 -1.0494
  245MOL    C1839546   1.453   0.468   7.116  0.2936  0.0609  0.0701
  245MOL    C1939547   1.529   0.428   6.991 -0.2374  0.3333 -0.6175
  245MOL    C2039548   1.521   0.525   6.870  0.2058 -1.1689 -0.2132
  245MOL    O2139549   1.497   0.643   6.883  0.0793  0.3645  0.1668
  245MOL    H2239550   1.391   0.556   7.099  0.5707  0.1101 -0.6955
  245MOL    H2339551   1.380   0.389   7.134 -1.3810  1.5292 -0.1289
  245MOL    H2439552   1.491   0.332   6.956 -0.6974  0.1026  0.5078
  245MOL    H2539553   1.632   0.414   7.022 -0.4021  0.9732  0.2273
  245MOL    C2639554   1.564   0.472   6.735  0.3920 -0.6470 -0.1753
  245MOL    C2739555   1.532   0.574   6.620 -0.7771 -0.7572 -0.4211
  245MOL    C2839556   1.540   0.510   6.482 -0.5652 -0.4826  0.3632
  245MOL    O2939557   1.562   0.386   6.467 -0.2822 -0.6303  0.1954
  245MOL    H3039558   1.513   0.378   6.713 -1.8102  0.8460 -1.5440
  245MOL    H3139559   1.670   0.450   6.746  0.3475  0.4019  2.9350
  245MOL    H3239560   1.612   0.648   6.630  1.4145 -3.1440  0.2305
  245MOL    H3339561   1.438   0.628   6.625 -1.3294 -1.8413  0.8658
  245MOL    C3439562   1.515   0.601   6.363  0.1275 -0.1460  0.1864
  245MOL    C3539563   1.415   0.541   6.255 -0.1330  0.0257 -0.0078
  245MOL    C3639564   1.498   0.477   6.143  0.6709 -0.0884  0.1163
  245MOL    O3739565   1.560   0.549   6.065  0.2721 -0.3714  0.2476
  245MOL    H3839566   1.616   0.619   6.325  0.9907 -1.6679  1.6830
  245MOL    H3939567   1.480   0.699   6.396 -1.2249 -0.6593  0.2648
  245MOL    H4039568   1.360   0.627   6.218 -1.6061 -0.9480 -0.0803
  245MOL    H4139569   1.340   0.482   6.307 -1.3526  2.4043  1.0246
  245MOL    C4239570   1.492   0.328   6.128 -0.3643 -0.3764  0.0143
  245MOL    C4339571   1.474   0.290   5.977 -0.2777 -0.1620 -0.5471
  245MOL    C4439572   1.547   0.161   5.939  0.3466 -0.6028  0.1952
  245MOL    O4539573   1.621   0.097   6.011  0.5877  0.0494  0.0509
  245MOL    H4639574   1.409   0.297   6.190 -0.2057  1.0380  0.9673
  245MOL    H4739575   1.582   0.278   6.162 -0.6830 -2.2626 -1.8445
  245MOL    H4839576   1.511   0.366   5.908 -2.0594  2.2124  1.0151
  245MOL    H4939577   1.366   0.283   5.960 -0.1946  0.9408 -1.6400
  245MOL    C5039578   1.505   0.106   5.801 -0.3759  0.8783  0.2369
  245MOL    C5139579   1.625   0.087   5.709 -0.2200 -0.5406  0.6037
  245MOL    C5239580   1.659   0.214   5.635  0.2345 -0.7058 -0.8601
  245MOL    O5339581   1.680   0.315   5.705 -0.3517  0.1213  0.1769
  245MOL    H5439582   1.439   0.180   5.756 -0.7590  0.8424  0.7333
  245MOL    H5539583   1.456   0.010   5.816 -0.0442  0.6044 -0.4115
  245MOL    H5639584   1.585   0.014   5.638 -1.5960  0.2136  0.5855
  245MOL    H5739585   1.716   0.047   5.752  1.4716  2.3631 -0.1865
  245MOL    C5839586   1.669   0.208   5.480 -0.3411  0.0034  0.2541
  245MOL    C5939587   1.534   0.246   5.409 -0.3441  0.2548 -0.4208
  245MOL    C6039588   1.486   0.386   5.422  0.2048  0.0937  0.5750
  245MOL    O6139589   1.550   0.470   5.483 -0.5557 -0.1891 -0.6569
  245MOL    H6239590   1.690   0.105   5.450  0.9393  0.3267  0.0425
  245MOL    H6339591   1.751   0.270   5.445 -0.5555  0.0722 -0.1278
  245MOL    H6439592   1.461   0.177   5.453 -1.0268  0.4508 -1.2464
  245MOL    H6539593   1.537   0.206   5.308  0.2366  0.9829 -0.6920
  245MOL    C6639594   1.365   0.427   5.339  1.0147  0.1220 -0.2320
  245MOL    C6739595   1.273   0.531   5.405 -0.7432  0.6088 -0.6637
  245MOL    C6839596   1.124   0.521   5.385  0.2752  0.0539 -0.0312
  245MOL    O6939597   1.079   0.435   5.306  0.3968 -0.1889  0.1110
  245MOL    H7039598   1.306   0.348   5.293  1.6868 -0.8372  0.5515
  245MOL    H7139599   1.399   0.472   5.245 -0.0663  1.1183 -0.1497
  245MOL    H7239600   1.295   0.634   5.374 -1.1259  0.6636 -0.7557
  245MOL    H7339601   1.286   0.532   5.513 -1.6816  2.7721 -0.5462
  245MOL    C7439602   1.024   0.622   5.443  0.1137  0.5029 -0.4859
  245MOL    C7539603   1.057   0.769   5.394  0.1189  0.4991  0.5307
  245MOL    C7639604   0.934   0.852   5.377  0.0996 -0.0683  0.1007
  245MOL    O7739605   0.825   0.802   5.348 -0.2660 -0.6482  0.2624
  245MOL    H7839606   1.045   0.634   5.550  1.1847 -2.4356 -0.3148
  245MOL    H7939607   0.919   0.600   5.422  0.1826  0.3722 -0.6896
  245MOL    H8039608   1.112   0.769   5.300 -1.1369 -0.7904 -0.2374
  245MOL    H8139609   1.113   0.813   5.475  0.6227 -0.4788  0.7173
  245MOL    C8239610   0.951   1.007   5.363 -0.3807  0.2168  0.0627
  245MOL    C8339611   0.847   1.084   5.441 -0.2756  0.1675  0.5019
  245MOL    C8439612   0.857   1.093   5.593 -0.3130  0.2018  0.0629
  245MOL    O8539613   0.939   1.030   5.660  0.4252 -0.0981 -0.2143
  245MOL    H8639614   0.943   1.021   5.255  1.9566  0.2886 -0.1310
  245MOL    H8739615   1.051   1.045   5.385  0.3614 -1.0870 -0.9447
  245MOL    H8839616   0.745   1.046   5.429 -0.9125  1.8209  0.5000
  245MOL    H8939617   0.851   1.188   5.406  1.2966  0.3014  1.0465
  245MOL    C9039618   0.768   1.195   5.658 -0.2685 -0.2720 -0.2304
  245MOL    C9139619   0.793   1.342   5.616 -0.3943  0.4667 -0.8470
  245MOL    C9239620   0.668   1.409   5.573  1.2408 -0.0511 -0.1501
  245MOL    O9339621   0.569   1.340   5.542  0.1046  0.5166  0.5343
  245MOL    H9439622   0.804   1.192   5.761  1.8111 -0.2085 -0.9158
  245MOL    H9539623   0.668   1.153   5.661  1.0399 -3.6234 -0.6833
  245MOL    H9639624   0.874   1.358   5.544  2.3799  0.5593  2.1849
  245MOL    H9739625   0.820   1.391   5.709  0.9801 -0.0921 -0.9496
  245MOL    C9839626   0.676   1.557   5.562 -0.5135  0.5547 -0.0623
  245MOL    C9939627   0.578   1.625   5.659  0.0809  0.3562  0.0188
  245MOL   C10039628   0.464   1.698   5.579 -0.0165  0.0673  0.1635
  245MOL   O10139629   0.456   1.693   5.455 -0.1147 -0.0646 -0.2519
  245MOL   H10239630   0.667   1.589   5.458  2.4826 -1.4334 -0.9761
  245MOL   H10339631   0.776   1.585   5.593 -0.2976 -1.1022  0.7479
  245MOL   H10439632   0.632   1.701   5.716 -0.9200  2.2144 -1.4273
  245MOL   H10539633   0.523   1.553   5.719  0.7409  0.9553  1.3516
  245MOL   C10639634   0.374   1.777   5.665  0.4134 -0.2215  0.2695
  245MOL   C10739635   0.285   1.871   5.591  0.3014  0.0813  0.1535
  245MOL   C10839636   0.208   1.963   5.681 -0.3778 -0.0853  0.2482
  245MOL   O10939637   0.255   1.989   5.787  0.2824  0.2215 -0.1294
  245MOL   H11039638   0.433   1.827   5.741 -0.5363  1.8029 -0.2694
  245MOL   H11139639   0.314   1.703   5.718  1.2436 -1.9223 -1.1204
  245MOL   H11239640   0.220   1.809   5.530 -0.8413  0.6137  0.8133
  245MOL   H11339641   0.339   1.936   5.522 -1.6704  2.2252  0.5513
  245MOL   C11439642   0.081   2.013   5.637  0.0319  0.3071 -0.1652
  245MOL   C11539643   7.827   1.991   5.744  0.2750  0.2969  0.1708
  245MOL   C11639644   7.725   2.107   5.762  0.6671  0.5979 -0.3410
  245MOL   O11739645   7.751   2.215   5.703  0.0246 -0.1843  0.5674
  245MOL   H11839646   0.055   1.960   5.545  3.2159 -1.6361  0.0001
  245MOL   H11939647   0.094   2.120   5.620  0.5677  0.0209 -1.5651
  245MOL   H12039648   0.022   1.981   5.838 -0.4198  0.3704  0.5774
  245MOL   H12139649   7.777   1.896   5.724  0.5036 -0.1302  1.5899
  245MOL   C12239650   7.616   2.079   5.863  0.5092  0.9046 -0.9807
  245MOL   C12339651   7.566   2.199   5.936  0.0979  0.9329 -0.2905
  245MOL   C12439652   7.556   2.167   6.082 -0.2774 -0.5403  0.2070
  245MOL   O12539653   7.659   2.155   6.145 -0.6915  0.1078  0.1668
  245MOL   H12639654   7.644   2.004   5.937 -2.0548  0.5267 -0.3674
  245MOL   H12739655   7.525   2.039   5.818 -0.2433  1.2785  0.2232
  245MOL   H12839656   7.460   2.219   5.919 -0.3448 -0.6012  0.6426
  245MOL   H12939657   7.621   2.291   5.917  1.3649  0.5151  1.2697
  245MOL   C13039658   7.420   2.139   6.140 -0.2815 -0.6176 -0.2591
  245MOL   C13139659   7.375   2.239   6.246  0.2399 -0.2558 -0.1201
  245MOL   C13239660   7.299   2.180   6.364 -0.1162  0.2868  0.3186
  245MOL   O13339661   7.296   2.056   6.377 -0.2667 -0.2577 -0.3211
  245MOL   H13439662   7.416   2.039   6.183  1.3153 -0.7057 -0.3040
  245MOL   H13539663   7.345   2.148   6.061 -0.3456  1.3996  0.0112
  245MOL   H13639664   7.301   2.297   6.191  0.2056 -1.0095 -0.8857
  245MOL   H13739665   7.445   2.317   6.276  0.0892  1.0249 -2.9548
  245MOL   C13839666   7.203   2.266   6.443  0.3989 -0.3516 -1.1420
  245MOL   C13939667   7.072   2.286   6.362  0.6855  0.3731 -0.4462
  245MOL   C14039668   7.078   2.408   6.268 -0.5926  0.4230  0.7551
  245MOL   O14139669   7.134   2.507   6.304  0.0677 -0.3102  0.5885
  245MOL   H14239670   7.260   2.355   6.471 -0.3812  0.0106 -0.6973
  245MOL   H14339671   7.174   2.214   6.534  0.6754 -0.2238 -0.9785
  245MOL   H14439672   6.989   2.310   6.428 -0.0654 -0.0522 -1.2254
  245MOL   H14539673   7.047   2.199   6.300  0.6021 -0.5114  0.7984
  245MOL   C14639674   7.006   2.405   6.133 -0.4892  0.2300 -0.3395
  245MOL   C14739675   7.027   2.529   6.044 -0.3325 -0.3885 -0.2651
  245MOL   C14839676   7.113   2.492   5.921 -0.5203  0.0868 -0.1201
  245MOL   O14939677   7.173   2.385   5.912  0.6419  0.0807 -0.0084
  245MOL   H15039678   6.902   2.385   6.156  0.2193  1.0208  4.0449
  245MOL   H15139679   7.044   2.314   6.086  3.2502  1.4172  0.1944
  245MOL   H15239680   7.076   2.608   6.100  0.7472 -1.9345  1.0188
  245MOL   H15339681   6.925   2.560   6.023  0.3788  1.8612 -0.5032
  245MOL   C15439682   7.125   2.606   5.820  0.8420 -0.2198 -0.0612
  245MOL   C15539683   7.082   2.555   5.681  0.2382 -0.0133 -0.1442
  245MOL   C15639684   6.957   2.624   5.640 -0.2089  0.8931  0.1316
  245MOL   O15739685   6.889   2.689   5.720  0.1710  0.4624  0.7649
  245MOL   H15839686   7.228   2.639   5.817  0.5953  0.4511 -1.4125
  245MOL   H15939687   7.074   2.695   5.857 -1.6190 -0.3978 -2.8249
  245MOL   H16039688   7.059   2.448   5.680 -0.3886  0.1106  0.5450
  245MOL   H16139689   7.164   2.572   5.612 -0.4790  1.5017 -0.6446
  245MOL   H16239690   6.944   2.617   5.532  0.2015 -4.3254  0.2988
  246MOL     C139691   2.062   7.050   1.041  0.1110 -0.4689  0.0804
  246MOL     C239692   2.171   7.168   1.031 -0.4513  0.0535 -0.4939
  246MOL     C339693   2.153   7.246   0.902  0.0955  0.1082  1.0991
  246MOL     O439694   2.051   7.230   0.831 -0.2157  0.1466 -0.0173
  246MOL     H539695   2.085   6.971   0.969 -1.8173  0.4228 -1.5671
  246MOL     H639696   2.053   7.011   1.143  0.2092 -1.8563 -0.4249
  246MOL     H739697   2.275   7.146   1.058 -0.2670  0.8015 -0.5688
  246MOL     H839698   2.151   7.240   1.110  0.7897 -0.0971 -0.0317
  246MOL     H939699   1.966   7.095   1.015  1.1529  0.1539 -2.9306
  246MOL    C1039700   2.260   7.338   0.848 -0.6639  0.0244  0.2945
  246MOL    C1139701   2.218   7.481   0.817  0.5106  0.8819 -0.3592
  246MOL    C1239702   2.321   7.589   0.859 -0.4956 -0.3426  0.6336
  246MOL    O1339703   2.417   7.559   0.930 -0.4009  0.1659 -0.5468
  246MOL    H1439704   2.308   7.296   0.759  1.9616 -0.7081  1.9966
  246MOL    H1539705   2.345   7.339   0.916 -0.6080  2.9834  0.2238
  246MOL    H1639706   2.121   7.503   0.862  0.5515 -0.8334  0.5916
  246MOL    H1739707   2.211   7.492   0.709 -0.3923 -1.9660 -0.6275
  246MOL    C1839708   2.298   7.733   0.813 -0.1669  0.0997 -0.3330
  246MOL    C1939709   2.406   7.834   0.859 -0.2596  0.7763 -0.3320
  246MOL    C2039710   2.533   7.821   0.783 -0.0480  0.1217 -0.3130
  246MOL    O2139711   2.535   7.788   0.664  0.1100 -0.0600 -0.1513
  246MOL    H2239712   2.208   7.762   0.866  1.0980  3.0139  0.3388
  246MOL    H2339713   2.275   7.725   0.707 -0.6922  2.4247 -0.4182
  246MOL    H2439714   2.418   7.815   0.966  1.1491  0.0738 -0.6025
  246MOL    H2539715   2.355   0.070   0.845 -1.6231  0.0200 -0.5518
  246MOL    C2639716   2.660   7.859   0.857  0.6068  0.1479 -0.1959
  246MOL    C2739717   2.721   0.127   0.795  0.4121 -0.0740 -0.4961
  246MOL    C2839718   2.671   0.262   0.857  0.1913  1.0671 -0.2323
  246MOL    O2939719   2.575   0.268   0.930  0.1027  0.2780 -0.0379
  246MOL    H3039720   2.724   7.772   0.848 -2.3880 -2.2499  0.7248
  246MOL    H3139721   2.633   0.010   0.962 -0.2663 -3.3525 -0.0036
  246MOL    H3239722   2.693   0.126   0.690 -0.9195  1.1886 -0.1804
  246MOL    H3339723   2.830   0.125   0.797  0.3792 -1.3099  0.5285
  246MOL    C3439724   2.756   0.390   0.825  0.8802  0.5311  0.0400
  246MOL    C3539725   2.791   0.483   0.950 -0.2945  0.3447  0.5453
  246MOL    C3639726   2.889   0.421   1.053 -0.6653  0.3801 -0.5100
  246MOL    O3739727   2.985   0.357   1.004  0.3980 -0.1037 -0.2147
  246MOL    H3839728   2.692   0.456   0.766  1.0091 -0.6880 -1.4919
  246MOL    H3939729   2.849   0.360   0.776 -0.0700  2.3751 -3.0623
  246MOL    H4039730   2.704   0.511   1.009  1.0801  1.5194  2.0414
  246MOL    H4139731   2.836   0.575   0.913  1.4821 -1.4485 -1.9831
  246MOL    C4239732   2.854   0.431   1.201 -0.7659 -0.0441 -0.1968
  246MOL    C4339733   2.973   0.390   1.293  0.2272 -0.6513  0.4672
  246MOL    C4439734   2.950   0.452   1.434 -0.3937 -0.1525 -0.7733
  246MOL    O4539735   2.839   0.474   1.480 -0.1197  0.5295  0.4655
  246MOL    H4639736   2.768   0.366   1.215  0.6909 -1.7339  1.2036
  246MOL    H4739737   2.827   0.533   1.229  2.7666  1.3459 -1.6367
  246MOL    H4839738   3.064   0.434   1.250  0.1912  0.5055  1.5447
  246MOL    H4939739   2.983   0.282   1.289 -1.8194 -0.8256 -0.3026
  246MOL    C5039740   3.080   0.474   1.513  0.3939  0.0083 -0.2382
  246MOL    C5139741   3.097   0.364   1.620 -0.9293 -0.2489  0.2296
  246MOL    C5239742   3.237   0.366   1.679 -0.5090  0.4201  0.2988
  246MOL    O5339743   3.308   0.461   1.692  0.2681  0.6617  0.0564
  246MOL    H5439744   3.078   0.571   1.562 -0.0752 -0.0579 -0.1201
  246MOL    H5539745   3.165   0.480   1.445  1.3588  1.0159  1.0434
  246MOL    H5639746   3.068   0.266   1.584  0.2675  0.0776 -1.7057
  246MOL    H5739747   3.030   0.400   1.699  1.9943 -0.8901  3.1381
  246MOL    C5839748   3.280   0.226   1.739 -0.4840  0.1427 -0.2509
  246MOL    C5939749   3.430   0.228   1.788  0.5450  0.2557 -0.3544
  246MOL    C6039750   3.530   0.243   1.672 -0.5896  0.0300  0.2205
  246MOL    O6139751   3.540   0.161   1.582 -0.4079 -0.7044  0.0242
  246MOL    H6239752   3.271   0.151   1.661 -0.2650  0.1400 -0.2738
  246MOL    H6339753   3.222   0.200   1.827  0.1696  0.1811  0.1905
  246MOL    H6439754   3.448   0.135   1.841  0.3112  0.1135 -0.5231
  246MOL    H6539755   3.432   0.317   1.851  1.6115  1.5282 -2.1374
  246MOL    C6639756   3.621   0.365   1.671 -0.4849 -0.1600  0.3491
  246MOL    C6739757   3.621   0.421   1.532  0.2126  0.4368  0.0688
  246MOL    C6839758   3.714   0.545   1.521 -0.3312  0.5414 -0.4909
  246MOL    O6939759   3.814   0.551   1.587  0.0814  0.0689  0.1815
  246MOL    H7039760   3.723   0.330   1.689 -1.2964 -2.9998 -0.2213
  246MOL    H7139761   3.596   0.450   1.734  2.9359 -1.5787  3.7728
  246MOL    H7239762   3.518   0.442   1.501 -0.2590  0.2515  1.5085
  246MOL    H7339763   3.654   0.347   1.459 -0.9246  0.7871 -0.8270
  246MOL    C7439764   3.675   0.662   1.439  0.0908  0.0378  0.4354
  246MOL    C7539765   3.545   0.742   1.470  0.2505  0.0073 -1.0870
  246MOL    C7639766   3.420   0.681   1.401  0.3901  0.5286  0.2441
  246MOL    O7739767   3.427   0.593   1.316 -0.8424  0.1716 -0.4783
  246MOL    H7839768   3.672   0.634   1.334  1.0202  1.1173  0.1085
  246MOL    H7939769   3.758   0.732   1.443 -1.5889  2.1347 -0.8972
  246MOL    H8039770   3.549   0.843   1.429 -0.4732  1.3384  1.9621
  246MOL    H8139771   3.521   0.748   1.576 -1.0487 -0.0789 -1.3723
  246MOL    C8239772   3.292   0.737   1.440 -0.3772 -0.0412 -0.4090
  246MOL    C8339773   3.194   0.773   1.327 -0.3669  0.5719  0.0177
  246MOL    C8439774   3.061   0.824   1.384 -0.4133 -0.3136 -0.4918
  246MOL    O8539775   3.057   0.879   1.491 -0.4241  0.5097  0.0248
  246MOL    H8639776   3.325   0.830   1.486  0.1875 -0.0235 -0.8421
  246MOL    H8739777   3.243   0.675   1.515 -0.8716 -1.2429 -1.7045
  246MOL    H8839778   3.167   0.684   1.270  0.6503 -0.7130  1.5096
  246MOL    H8939779   3.234   0.847   1.258 -3.5139  1.9071 -0.4761
  246MOL    C9039780   2.929   0.795   1.309  0.4488  0.2237  0.5217
  246MOL    C9139781   2.839   0.921   1.295  0.3903  0.3998  0.4961
  246MOL    C9239782   2.730   0.914   1.401  0.9328  0.1093  0.6119
  246MOL    O9339783   2.713   0.814   1.469  0.4537  0.3734  0.3381
  246MOL    H9439784   2.889   0.701   1.347  1.5767 -0.2948  0.4444
  246MOL    H9539785   2.965   0.772   1.209 -1.9519  2.2020 -0.8287
  246MOL    H9639786   2.790   0.939   1.200  1.1869 -0.6662 -0.1265
  246MOL    H9739787   2.894   1.014   1.312  0.4753  0.5221 -0.4280
  246MOL    C9839788   2.652   1.048   1.411  0.1330  1.0750 -0.5420
  246MOL    C9939789   2.504   1.022   1.450 -0.0733 -0.0570  0.1879
  246MOL   C10039790   2.488   1.064   1.599 -0.0940 -0.4574  0.0806
  246MOL   O10139791   2.540   1.165   1.646  0.5962 -0.0429  0.3728
  246MOL   H10239792   2.651   1.092   1.311 -1.8753 -0.2790 -1.1415
  246MOL   H10339793   2.708   1.119   1.472  1.7854 -1.0029  0.4152
  246MOL   H10439794   2.466   0.922   1.432  0.6718 -0.1524 -0.9440
  246MOL   H10539795   2.437   1.078   1.384  1.3965 -0.4905 -1.7025
  246MOL   C10639796   2.403   0.979   1.691 -0.4599 -0.2156 -0.1765
  246MOL   C10739797   2.472   0.932   1.821  0.6109  0.5583 -0.1551
  246MOL   C10839798   2.460   1.031   1.929 -0.3818  0.2821 -0.1173
  246MOL   O10939799   2.374   1.123   1.926 -0.7217 -0.5431  0.5929
  246MOL   H11039800   2.384   0.885   1.640 -0.5982  0.2417 -0.9692
  246MOL   H11139801   2.306   1.024   1.711 -0.5978 -0.9432  0.8700
  246MOL   H11239802   2.577   0.912   1.799  0.7629 -0.4412  1.4245
  246MOL   H11339803   2.418   0.841   1.845  0.3044  0.7789 -0.0017
  246MOL   C11439804   2.554   1.002   2.048  0.3981 -0.3409  0.3332
  246MOL   C11539805   2.497   1.044   2.180 -0.2644  0.4134  0.1395
  246MOL   C11639806   2.456   0.932   2.277 -0.0452  0.3875  0.7796
  246MOL   O11739807   2.453   0.814   2.238  0.0848  0.5340 -0.3031
  246MOL   H11839808   2.638   1.067   2.022 -0.5786  0.0904 -1.8370
  246MOL   H11939809   2.582   0.897   2.041  0.9813 -0.1171 -0.9445
  246MOL   H12039810   2.418   1.116   2.159  0.4557  1.0491 -0.4059
  246MOL   H12139811   2.574   1.103   2.229  1.7281 -1.2322 -0.9448
  246MOL   C12239812   2.437   0.975   2.426 -0.1679 -0.7774 -0.1875
  246MOL   C12339813   2.504   0.876   2.519 -0.0067 -0.3169 -0.9926
  246MOL   C12439814   2.404   0.810   2.605  0.9279 -0.3932 -0.5541
  246MOL   O12539815   2.303   0.869   2.647  0.4269  0.2639  0.7942
  246MOL   H12639816   2.343   1.014   2.464 -0.2075  0.4079 -1.4822
  246MOL   H12739817   2.515   1.051   2.437 -0.0313 -0.8515 -0.6451
  246MOL   H12839818   2.568   0.934   2.585 -1.0515  0.9991 -1.1345
  246MOL   H12939819   2.556   0.795   2.467  0.5722  0.4953 -1.6838
  246MOL   C13039820   2.419   0.667   2.615  0.1754  0.5777 -0.0268
  246MOL   C13139821   2.318   0.604   2.723 -0.2184 -0.5768  0.2367
  246MOL   C13239822   2.371   0.485   2.801 -0.7094  0.4840 -0.3710
  246MOL   O13339823   2.474   0.500   2.869 -0.1856 -0.1052  0.0384
  246MOL   H13439824   2.520   0.642   2.647  0.0508 -0.9142 -0.7620
  246MOL   H13539825   2.393   0.634   2.515  0.8932  2.4685 -0.8532
  246MOL   H13639826   2.226   0.562   2.684  0.2589 -2.0511  0.6754
  246MOL   H13739827   2.288   0.672   2.803 -0.8080 -2.6480  1.8140
  246MOL   C13839828   2.299   0.351   2.782  0.1603  0.5891  0.2942
  246MOL   C13939829   2.363   0.230   2.871  0.8070  0.1644  0.4350
  246MOL   C14039830   2.258   0.128   2.917  0.9260 -0.3263  0.5074
  246MOL   O14139831   2.137   0.147   2.906 -0.1455  0.0390  0.0277
  246MOL   H14239832   2.295   0.312   2.680  1.3819  0.7131  0.1917
  246MOL   H14339833   2.197   0.374   2.810 -0.1145  0.9504 -0.9583
  246MOL   H14439834   2.422   0.274   2.951  0.6353 -0.8012  1.0882
  246MOL   H14539835   2.436   0.180   2.807  0.2985  1.4336 -1.1807
  246MOL   C14639836   2.304   0.015   3.003 -0.6409 -0.3651 -0.5219
  246MOL   C14739837   2.203   7.761   3.031 -0.3729  0.4453 -0.0861
  246MOL   C14839838   2.197   7.729   3.178 -0.1571 -0.8614 -0.0410
  246MOL   O14939839   2.252   7.795   3.272  0.4748 -0.1679  0.4606
  246MOL   H15039840   2.331   0.071   3.093 -2.6138  2.4783 -1.6143
  246MOL   H15139841   2.396   7.838   2.957  0.2575  2.1623 -0.7935
  246MOL   H15239842   2.219   7.671   2.972  2.2253  0.5141  0.4451
  246MOL   H15339843   2.101   7.797   3.021 -0.9462 -0.7871  1.1445
  246MOL   C15439844   2.105   7.609   3.212  0.2470 -0.3524 -0.2717
  246MOL   C15539845   2.164   7.468   3.217 -0.4611  0.1242  0.2827
  246MOL   C15639846   2.123   7.383   3.331  0.7811 -0.4152  0.1116
  246MOL   O15739847   2.157   7.264   3.335  0.3889  0.1763 -0.0779
  246MOL   H15839848   2.026   7.617   3.137 -0.3165  1.1152  0.4551
  246MOL   H15939849   2.051   7.629   3.304 -0.8323  1.1649 -1.2074
  246MOL   H16039850   2.272   7.457   3.224 -0.5791 -1.1714  0.0917
  246MOL   H16139851   2.133   7.404   3.135 -1.7470 -1.0432  1.6503
  246MOL   H16239852   2.077   7.437   3.414  0.4213 -2.7442  1.4555
  247MOL     C139853   0.882   6.902   6.040  0.0939  0.4549 -0.0379
  247MOL     C239854   0.936   7.042   6.072  0.1556  0.0624  0.0311
  247MOL     C339855   0.877   7.095   6.199 -0.1096  0.1787 -0.0305
  247MOL     O439856   0.862   7.025   6.296 -0.1858  0.0919  0.3032
  247MOL     H539857   0.916   6.884   5.939  0.7566 -1.5378  0.5166
  247MOL     H639858   0.915   6.824   6.108  2.6045  1.7468  0.2852
  247MOL     H739859   0.895   7.100   5.989 -1.0985  0.9174  1.2312
  247MOL     H839860   1.044   7.044   6.084  0.4351 -0.0650 -2.3234
  247MOL     H939861   0.774   6.907   6.052  0.0095  1.2229 -1.0190
  247MOL    C1039862   0.856   7.243   6.217  0.0572 -0.2201 -0.3831
  247MOL    C1139863   0.785   7.284   6.346  0.2790  0.1210  0.3829
  247MOL    C1239864   0.710   7.412   6.322  0.5958  0.2746 -0.4521
  247MOL    O1339865   0.664   7.439   6.215 -0.4447  0.2813  0.3251
  247MOL    H1439866   0.807   7.273   6.124 -1.7017 -0.0863  0.5821
  247MOL    H1539867   0.954   7.292   6.220  0.2204 -0.3604 -2.7054
  247MOL    H1639868   0.849   7.294   6.434  0.5626  2.2079 -0.0460
  247MOL    H1739869   0.701   7.214   6.356 -1.2647  1.9694  0.6610
  247MOL    C1839870   0.702   7.507   6.447 -0.2812 -0.3351  0.7062
  247MOL    C1939871   0.602   7.623   6.428  0.2164  0.2650  0.3633
  247MOL    C2039872   0.459   7.581   6.406 -0.8790 -0.0195 -0.0189
  247MOL    O2139873   0.426   7.475   6.459  0.2656  0.3550 -0.3072
  247MOL    H2239874   0.805   7.542   6.447 -0.9853  1.8594 -2.1909
  247MOL    H2339875   0.685   7.443   6.533  0.9427  0.2150  1.3674
  247MOL    H2439876   0.629   7.668   6.332  0.1325 -1.4118 -0.4647
  247MOL    H2539877   0.608   7.701   6.503  0.4636 -1.1958  1.8778
  247MOL    C2639878   0.362   7.657   6.318  0.1663 -0.1631 -0.0352
  247MOL    C2739879   0.285   7.563   6.222 -0.0788  1.3020  0.2709
  247MOL    C2839880   0.261   7.612   6.078 -0.0372  0.2408  0.8466
  247MOL    O2939881   0.308   7.720   6.041  0.1430  0.1515  0.0828
  247MOL    H3039882   0.417   7.741   6.276  1.3160  0.7792  3.2297
  247MOL    H3139883   0.295   7.708   6.388 -2.4234 -0.9926 -1.8495
  247MOL    H3239884   0.195   7.516   6.260  0.1274 -0.9472 -1.8887
  247MOL    H3339885   0.347   7.474   6.210 -2.0588 -0.1165  0.5013
  247MOL    C3439886   0.170   7.531   5.985 -0.2524 -0.1576  0.2448
  247MOL    C3539887   0.233   7.536   5.846 -0.1603 -0.1038 -0.9618
  247MOL    C3639888   0.151   7.465   5.743  0.1563  0.7303  0.3332
  247MOL    O3739889   0.039   7.417   5.760  0.4116 -0.4940  0.5260
  247MOL    H3839890   0.068   7.571   5.979  0.2619  1.4011  1.7179
  247MOL    H3939891   0.163   7.430   6.027  0.2741 -0.1593  0.3220
  247MOL    H4039892   0.329   7.485   5.848  0.5027  1.1476  0.6204
  247MOL    H4139893   0.261   7.638   5.820 -1.0282  0.3557 -0.1386
  247MOL    C4239894   0.216   7.460   5.602 -0.4155 -0.8528  0.0331
  247MOL    C4339895   0.111   7.414   5.492 -0.3919 -0.2644 -0.1401
  247MOL    C4439896   0.112   7.266   5.467 -1.2000 -0.1724  0.4287
  247MOL    O4539897   0.193   7.193   5.525  0.4039 -0.2498  0.0080
  247MOL    H4639898   0.308   7.406   5.583 -0.0408 -0.3226  0.3061
  247MOL    H4739899   0.240   7.565   5.586 -1.5389 -0.1173  2.7582
  247MOL    H4839900   0.129   7.461   5.396  1.3524  0.9332  0.7503
  247MOL    H4939901   0.014   7.458   5.519 -0.4751 -1.7315  2.1174
  247MOL    C5039902   0.009   7.227   5.364  0.5251 -0.3852 -0.4367
  247MOL    C5139903   0.011   7.076   5.332  0.4030  0.0632  0.6876
  247MOL    C5239904   0.005   7.047   5.175 -0.5621 -0.5341  0.5385
  247MOL    O5339905   0.002   7.137   5.096  0.3917  0.3050 -0.2000
  247MOL    H5439906   0.037   7.282   5.274 -0.5914  0.2368 -0.4106
  247MOL    H5539907   7.771   7.263   5.400  0.5140 -1.9203  1.1247
  247MOL    H5639908   7.794   7.018   5.384  0.6254 -1.8857 -1.1005
  247MOL    H5739909   0.105   7.032   5.367  0.9250  0.2938 -0.4087
  247MOL    C5839910   0.030   6.903   5.125 -0.1412  0.2395  0.0425
  247MOL    C5939911   7.835   6.880   4.979 -1.2676  0.1021 -0.4165
  247MOL    C6039912   7.766   6.747   4.966 -0.0281 -0.9669 -0.2115
  247MOL    O6139913   7.644   6.737   4.954  0.4644 -0.3534  0.1558
  247MOL    H6239914   7.824   6.842   5.188  1.4085 -0.5831  0.8999
  247MOL    H6339915   0.135   6.874   5.138 -0.6505 -1.4973  0.4948
  247MOL    H6439916   0.058   6.885   4.907 -0.9900 -0.3883 -0.1347
  247MOL    H6539917   7.757   6.951   4.948 -1.4272  0.0986 -0.0243
  247MOL    C6639918   0.000   6.617   4.962  0.2327 -0.1667 -0.3075
  247MOL    C6739919   7.773   6.487   4.968  0.1359 -0.4917 -0.6619
  247MOL    C6839920   7.733   6.444   4.828  0.2674 -0.1957  0.2176
  247MOL    O6939921   7.818   6.409   4.745  0.6600 -0.5844 -0.8587
  247MOL    H7039922   0.059   6.625   5.054  0.9437  0.8615 -0.8360
  247MOL    H7139923   0.065   6.616   4.874 -0.0587  0.3945 -0.5290
  247MOL    H7239924   7.687   6.497   5.034  1.5038 -0.8008  1.2372
  247MOL    H7339925   7.828   6.401   5.007 -2.8927 -1.2899  2.1353
  247MOL    C7439926   7.584   6.444   4.797  0.1795  0.2823  0.0934
  247MOL    C7539927   7.559   6.394   4.651  0.0262  0.0193 -0.1753
  247MOL    C7639928   7.437   6.299   4.647  0.3813 -0.5529 -0.0068
  247MOL    O7739929   7.335   6.341   4.594  0.0421  0.2170  0.2347
  247MOL    H7839930   7.547   6.547   4.801 -0.8056 -0.0690  0.1414
  247MOL    H7939931   7.515   6.390   4.862  0.2426 -0.9342 -0.8371
  247MOL    H8039932   7.634   6.325   4.612 -0.6594 -1.4164  1.0352
  247MOL    H8139933   7.545   6.478   4.583  0.2334 -0.6744 -1.0882
  247MOL    C8239934   7.453   6.162   4.717  0.2819 -0.5051  0.3870
  247MOL    C8339935   7.333   6.068   4.678 -0.3733 -0.5272 -0.3288
  247MOL    C8439936   7.302   5.973   4.790  1.1478  0.1686  0.1269
  247MOL    O8539937   7.370   5.978   4.887  0.3068 -0.3069 -0.1268
  247MOL    H8639938   7.444   6.180   4.825  1.1538 -1.5222  0.6413
  247MOL    H8739939   7.554   6.130   4.689  1.0915  2.0203  0.2825
  247MOL    H8839940   7.363   6.005   4.594 -3.1233 -2.8567  0.3936
  247MOL    H8939941   7.242   6.115   4.640  0.5779  1.3651 -0.3784
  247MOL    C9039942   7.191   5.871   4.766  0.4524  0.8456 -0.0146
  247MOL    C9139943   7.148   5.789   4.885  0.4632  0.2315  0.1938
  247MOL    C9239944   6.997   5.809   4.902  0.4832 -0.2370 -0.5971
  247MOL    O9339945   6.949   5.921   4.926 -0.6570 -0.3367 -0.2877
  247MOL    H9439946   7.229   5.793   4.701  1.2546  1.5219 -0.3763
  247MOL    H9539947   7.114   5.923   4.709  0.2301 -0.0011 -0.4952
  247MOL    H9639948   7.213   5.813   4.969  2.8792  0.3919 -1.6697
  247MOL    H9739949   7.155   5.683   4.861 -1.3808  0.2224 -0.3904
  247MOL    C9839950   6.910   5.689   4.880  0.0159 -0.6537 -0.0293
  247MOL    C9939951   6.863   5.677   4.739 -0.2388 -0.5163  0.3329
  247MOL   C10039952   6.717   5.619   4.712 -0.3551  0.3935  0.3804
  247MOL   O10139953   6.647   5.566   4.797  0.0510 -0.2132  0.4177
  247MOL   H10239954   6.819   5.711   4.935 -0.1080  0.3427 -0.6133
  247MOL   H10339955   6.950   5.598   4.924  0.6158 -0.0609  0.6624
  247MOL   H10439956   6.936   5.616   4.685  1.7715  0.8915  1.4022
  247MOL   H10539957   6.861   5.771   4.685 -1.3646 -0.6713  0.0928
  247MOL   C10639958   6.647   5.671   4.589  0.1060 -0.4025  0.2755
  247MOL   C10739959   6.561   5.578   4.506 -0.0499 -0.3076 -0.6738
  247MOL   C10839960   6.588   5.583   4.359 -0.0737  0.4072  0.6079
  247MOL   O10939961   6.612   5.692   4.301 -0.4567 -0.0977  0.5433
  247MOL   H11039962   6.733   5.705   4.530 -1.5709 -1.5772 -3.0146
  247MOL   H11139963   6.599   5.764   4.619  1.1668 -0.5602  2.4940
  247MOL   H11239964   6.455   5.601   4.518 -0.2648 -1.6297  0.0348
  247MOL   H11339965   6.566   5.476   4.543  0.2339 -0.4341 -1.0555
  247MOL   C11439966   6.557   5.460   4.282  0.6618 -0.5934 -0.0908
  247MOL   C11539967   6.413   5.465   4.222 -0.3355 -0.0570 -0.2765
  247MOL   C11639968   6.313   5.378   4.299  0.6010 -0.2842 -0.0527
  247MOL   O11739969   6.329   5.361   4.418 -0.5419 -0.0374 -0.2293
  247MOL   H11839970   6.561   5.381   4.357  1.0973  0.6952  1.2686
  247MOL   H11939971   6.628   5.436   4.202  0.7778 -0.7864  0.0661
  247MOL   H12039972   6.400   5.429   4.120 -1.5289 -1.6754  0.4343
  247MOL   H12139973   6.380   5.569   4.226 -0.5014 -0.1098 -0.2482
  247MOL   C12239974   6.202   5.315   4.210 -0.8493  0.5442 -0.4570
  247MOL   C12339975   6.093   5.246   4.286  1.1361 -0.3494  0.2684
  247MOL   C12439976   6.062   5.097   4.254 -0.8604 -0.1385  0.1540
  247MOL   O12539977   6.118   5.046   4.156  0.5790 -0.0347 -0.2511
  247MOL   H12639978   6.234   5.256   4.124 -1.3795  0.0593 -0.3219
  247MOL   H12739979   6.151   5.395   4.157 -3.8346 -1.4111 -0.6578
  247MOL   H12839980   5.994   5.284   4.263  0.7935 -2.5613 -2.1818
  247MOL   H12939981   6.092   5.262   4.394 -1.8089 -0.0748  0.2328
  247MOL   C13039982   5.975   5.019   4.347  0.3191  0.3120 -0.4088
  247MOL   C13139983   6.034   4.887   4.401  0.4439  0.6801 -0.5548
  247MOL   C13239984   6.034   4.874   4.556 -0.0934 -0.6966 -0.1818
  247MOL   O13339985   6.008   4.971   4.628 -0.2452 -0.1367  1.6066
  247MOL   H13439986   5.876   5.007   4.304 -0.2681 -1.9441  1.4678
  247MOL   H13539987   5.956   5.091   4.426  0.3005 -0.9317  0.7442
  247MOL   H13639988   6.139   4.878   4.373  0.5278  2.6400 -0.9145
  247MOL   H13739989   5.973   4.801   4.371 -0.4455  0.7059  1.1229
  247MOL   C13839990   6.064   4.738   4.620  0.1240 -0.5755  0.6633
  247MOL   C13939991   6.094   4.752   4.771  0.1750  0.5794  0.5997
  247MOL   C14039992   6.243   4.720   4.805 -0.1815  0.2444  0.9030
  247MOL   O14139993   6.316   4.807   4.837  0.7121 -0.2226 -0.0104
  247MOL   H14239994   6.150   4.706   4.561 -0.6832 -0.1712 -0.7619
  247MOL   H14339995   5.983   4.670   4.592 -0.7845  0.6461  0.3015
  247MOL   H14439996   6.040   4.678   4.831 -2.6538 -0.7449 -3.3622
  247MOL   H14539997   6.069   4.851   4.808 -0.4680  0.5711  0.1907
  247MOL   C14639998   6.291   4.579   4.816  0.8119  0.2672 -0.0350
  247MOL   C14739999   6.442   4.566   4.788 -0.6038  0.4102  0.5042
  247MOL   C14840000   6.483   4.508   4.649  0.8673 -0.5373  0.3611
  247MOL   O14940001   6.399   4.454   4.573 -0.1422  0.0747 -1.1884
  247MOL   H15040002   6.246   4.511   4.743  1.8052 -0.0289 -0.3796
  247MOL   H15140003   6.265   4.542   4.915  2.4488  0.8341  0.6223
  247MOL   H15240004   6.481   4.488   4.854  0.6107  0.0587 -0.6161
  247MOL   H15340005   6.502   4.653   4.814  1.8653 -1.3000  0.6929
  247MOL   C15440006   6.631   4.532   4.602 -0.3017  0.1235 -0.6512
  247MOL   C15540007   6.677   4.432   4.495 -0.3012 -0.8974  0.9915
  247MOL   C15640008   6.659   4.481   4.352 -0.7438  0.5478 -0.8679
  247MOL   O15740009   6.667   4.402   4.262  0.3463  0.6519 -0.6177
  247MOL   H15840010   6.678   4.521   4.700  0.8005  2.7075 -0.8563
  247MOL   H15940011   6.638   4.637   4.575  2.2160  0.5177  1.3834
  247MOL   H16040012   6.617   4.341   4.494  0.3580 -1.3795 -3.4316
  247MOL   H16140013   6.783   4.409   4.511  0.2675  0.8134 -0.2476
  247MOL   H16240014   6.647   4.588   4.335 -1.0949  1.0416  2.2943
  248MOL     C140015   6.483   3.692   3.193  0.6054  0.1291  0.0563
  248MOL     C240016   6.567   3.797   3.275  0.7355  0.4506  0.3835
  248MOL     C340017   6.705   3.730   3.297 -0.0487 -0.6220  1.1782
  248MOL     O440018   6.713   3.611   3.327 -0.3338 -0.2831  0.8234
  248MOL     H540019   6.386   3.732   3.165  1.2925  2.5240  0.9443
  248MOL     H640020   6.531   3.648   3.106  0.8774 -3.3546  1.8845
  248MOL     H740021   6.515   3.820   3.368  2.0246 -0.0611  1.2498
  248MOL     H840022   6.578   3.887   3.215  3.0217 -1.0524 -1.5363
  248MOL     H940023   6.454   3.611   3.260 -0.6440  1.6524  1.4034
  248MOL    C1040024   6.832   3.810   3.268  0.3193 -0.5950  0.8858
  248MOL    C1140025   6.906   3.829   3.398  0.2729 -0.2233 -0.0322
  248MOL    C1240026   6.970   3.967   3.414 -0.8556  0.4481 -0.3342
  248MOL    O1340027   6.951   4.052   3.329  0.1109 -0.3278 -0.0662
  248MOL    H1440028   6.788   3.906   3.239  0.8377 -0.0664  1.8316
  248MOL    H1540029   6.882   3.750   3.192 -2.2385  0.8903 -2.1020
  248MOL    H1640030   6.966   3.743   3.426  1.7505  0.7639 -0.1095
  248MOL    H1740031   6.837   3.838   3.482  2.4221  1.5525  1.6144
  248MOL    C1840032   7.040   4.005   3.545  0.2790 -0.5414  0.4662
  248MOL    C1940033   7.051   4.158   3.573 -1.2950 -0.7163  0.4514
  248MOL    C2040034   7.120   4.184   3.702  0.1709 -0.0762 -0.0064
  248MOL    O2140035   7.146   4.089   3.775  0.0732  0.1540 -0.0815
  248MOL    H2240036   7.134   3.952   3.557  0.2217 -1.2190 -1.9895
  248MOL    H2340037   6.984   3.958   3.626  0.8015 -1.9675 -0.0009
  248MOL    H2440038   6.949   4.189   3.595 -0.7617  0.5305  1.2143
  248MOL    H2540039   7.083   4.218   3.488 -0.5793  1.4098  2.1909
  248MOL    C2640040   7.146   4.327   3.738 -0.4006  0.1257 -0.3900
  248MOL    C2740041   7.299   4.364   3.733  0.1286 -0.3390 -0.8449
  248MOL    C2840042   7.356   4.391   3.874 -0.1728 -0.1190  0.3129
  248MOL    O2940043   7.290   4.463   3.953  0.5978  0.1472  0.2589
  248MOL    H3040044   7.108   4.347   3.838  0.2462  0.5278 -0.2197
  248MOL    H3140045   7.095   4.395   3.669 -1.3651 -0.8094 -0.6093
  248MOL    H3240046   7.307   4.454   3.672  1.0610 -1.4508 -2.3811
  248MOL    H3340047   7.350   4.278   3.690 -1.4891 -0.8164 -1.8896
  248MOL    C3440048   7.497   4.348   3.902 -0.3020  0.6749  0.0618
  248MOL    C3540049   7.517   4.293   4.044 -0.4116 -0.4095 -0.0918
  248MOL    C3640050   7.663   4.258   4.071  0.4331 -0.6024  0.8229
  248MOL    O3740051   7.739   4.235   3.974 -0.0380 -0.0655  0.8459
  248MOL    H3840052   7.564   4.430   3.876  0.3066 -0.9015 -3.5653
  248MOL    H3940053   7.525   4.267   3.836  0.2697  1.0765 -0.1913
  248MOL    H4040054   7.457   4.207   4.073 -0.7873  0.6701  2.4331
  248MOL    H4140055   7.508   4.374   4.116 -0.7822  1.2469 -1.9394
  248MOL    C4240056   7.719   4.258   4.211  0.1187 -0.5764  0.3729
  248MOL    C4340057   0.004   4.203   4.227 -0.2450  0.1312 -0.2320
  248MOL    C4440058   0.091   4.280   4.325 -0.8245  0.0540 -0.5068
  248MOL    O4540059   0.043   4.364   4.399  0.4898  0.0174  0.6474
  248MOL    H4640060   7.648   4.199   4.269  0.0944  0.6142  1.5511
  248MOL    H4740061   7.719   4.360   4.248  3.4656 -0.3411 -0.1629
  248MOL    H4840062   0.063   4.186   4.136 -0.2342  0.1704 -0.2331
  248MOL    H4940063   0.007   4.098   4.254  1.9787  0.4232  0.8424
  248MOL    C5040064   0.227   4.217   4.360 -0.3914 -0.1498  0.6710
  248MOL    C5140065   0.319   4.316   4.426  0.9593 -0.4423 -0.0603
  248MOL    C5240066   0.347   4.282   4.578  0.1530 -0.5227  0.0083
  248MOL    O5340067   0.273   4.211   4.653 -0.1742 -0.5348 -0.0736
  248MOL    H5440068   0.277   4.200   4.265 -1.6864  0.3222 -0.1167
  248MOL    H5540069   0.228   4.137   4.434 -3.7806  0.2547  1.2508
  248MOL    H5640070   0.287   4.419   4.414  0.5860 -0.5742 -0.1821
  248MOL    H5740071   0.413   4.315   4.370  1.0727 -3.2733  0.1056
  248MOL    C5840072   0.482   4.323   4.632 -0.5343 -0.1584 -0.1736
  248MOL    C5940073   0.486   4.355   4.781 -0.0895  1.1209 -0.1498
  248MOL    C6040074   0.615   4.430   4.824  0.0293 -0.0111  0.6435
  248MOL    O6140075   0.694   4.484   4.743 -0.0374  0.1554  0.8532
  248MOL    H6240076   0.517   4.411   4.578  1.3155 -2.0905 -2.2086
  248MOL    H6340077   0.563   4.254   4.610  0.0351  0.7910 -1.1287
  248MOL    H6440078   0.487   4.260   4.835  1.3805  1.6917  0.8657
  248MOL    H6540079   0.405   4.418   4.817  0.5550  1.5910  0.4913
  248MOL    C6640080   0.653   4.428   4.968 -0.1119  0.0161 -0.1752
  248MOL    C6740081   0.599   4.553   5.044 -0.0269  0.5039  0.7351
  248MOL    C6840082   0.532   4.507   5.171  0.5075  0.4062 -1.0140
  248MOL    O6940083   0.558   4.395   5.229 -0.0886  0.0573  0.0266
  248MOL    H7040084   0.759   4.408   4.977 -0.3002 -0.3260  1.3501
  248MOL    H7140085   0.607   4.339   5.010  0.7007  0.2133  1.1509
  248MOL    H7240086   0.521   4.592   4.979 -0.6642 -0.8089  0.6792
  248MOL    H7340087   0.668   4.636   5.057 -1.4774  2.1506 -1.5682
  248MOL    C7440088   0.421   4.596   5.237  0.7272 -0.0165  0.8175
  248MOL    C7540089   0.340   4.531   5.349  0.2661 -0.0667 -0.5748
  248MOL    C7640090   0.207   4.479   5.298 -0.4417 -0.6798 -0.4240
  248MOL    O7740091   0.185   4.488   5.177 -0.1210  0.5475 -0.3504
  248MOL    H7840092   0.351   4.634   5.163  2.6552  2.6662  0.2905
  248MOL    H7940093   0.460   4.689   5.278 -2.3359  1.2441  1.0258
  248MOL    H8040094   0.303   4.597   5.428 -2.7015  0.2074 -2.1426
  248MOL    H8140095   0.389   4.441   5.388 -0.7941 -0.6948 -0.6573
  248MOL    C8240096   0.102   4.430   5.393  0.0823  0.1396 -1.0358
  248MOL    C8340097   0.080   4.275   5.376 -0.2972  0.1288 -0.1859
  248MOL    C8440098   7.802   4.221   5.418  0.1426 -0.6381  0.3475
  248MOL    O8540099   7.740   4.288   5.500 -0.6342  0.2859 -0.1931
  248MOL    H8640100   0.012   4.483   5.365  0.3519  0.3827 -1.4506
  248MOL    H8740101   0.127   4.438   5.499 -2.0856 -1.8210 -0.3351
  248MOL    H8840102   0.160   4.224   5.428 -0.3241  1.1734  0.9228
  248MOL    H8940103   0.089   4.256   5.269  0.0430 -0.9800  0.0415
  248MOL    C9040104   7.749   4.102   5.349  0.0269 -0.1510  0.5095
  248MOL    C9140105   7.617   4.033   5.408  0.1590  0.0576 -0.4451
  248MOL    C9240106   7.637   3.974   5.545  0.0080  0.2799  0.0729
  248MOL    O9340107   7.731   3.896   5.560 -0.2483 -0.4815 -0.3634
  248MOL    H9440108   7.826   4.026   5.335  2.7386  2.4594  0.9787
  248MOL    H9540109   7.730   4.132   5.245 -1.1654 -2.3384  0.0491
  248MOL    H9640110   7.583   3.960   5.335  1.4261  0.3853 -1.3722
  248MOL    H9740111   7.537   4.107   5.404 -0.0112 -0.1094 -0.1807
  248MOL    C9840112   7.553   4.012   5.663  0.3148 -0.4281  0.2101
  248MOL    C9940113   7.586   3.929   5.791  0.3523  0.0718  0.0044
  248MOL   C10040114   7.468   3.923   5.882  0.1748 -0.3121 -0.4104
  248MOL   O10140115   7.371   3.856   5.858 -0.6144  0.1244 -0.3698
  248MOL   H10240116   7.448   3.989   5.643  0.0319  1.4551 -0.6478
  248MOL   H10340117   7.545   4.118   5.687  0.0082 -0.0494 -1.5264
  248MOL   H10440118   7.667   3.980   5.844  0.8240 -0.2600 -0.3883
  248MOL   H10540119   7.619   3.826   5.776 -0.9887 -0.5062  0.9766
  248MOL   C10640120   7.465   4.023   6.002  0.1357 -1.0593 -0.5304
  248MOL   C10740121   7.467   3.953   6.141  0.5180  0.5765  0.1894
  248MOL   C10840122   7.397   4.024   6.257  1.4341 -0.6070  0.6497
  248MOL   O10940123   7.275   4.048   6.257  0.0158  0.3314  0.2414
  248MOL   H11040124   7.366   4.066   5.985  0.4320 -0.2196 -0.1786
  248MOL   H11140125   7.533   4.107   5.989 -0.9369  0.0485  0.8777
  248MOL   H11240126   7.570   3.926   6.163  0.4234 -3.1381 -3.3215
  248MOL   H11340127   7.411   3.860   6.131  0.7214  0.6494 -1.7568
  248MOL   C11440128   7.472   4.042   6.380 -0.0007 -0.4147 -0.1233
  248MOL   C11540129   7.395   4.098   6.504 -0.7851  0.0525  1.3472
  248MOL   C11640130   7.320   3.998   6.596  0.8779 -0.4015  1.1990
  248MOL   O11740131   7.314   3.882   6.565 -0.2069 -0.4508 -0.4925
  248MOL   H11840132   7.548   4.113   6.345  1.5736 -1.6301  0.7807
  248MOL   H11940133   7.508   3.943   6.407 -2.5374 -0.4824  3.4048
  248MOL   H12040134   7.312   4.158   6.468 -0.4216 -0.0769  0.2664
  248MOL   H12140135   7.465   4.163   6.557  1.1706  1.3979 -2.6401
  248MOL   C12240136   7.247   4.063   6.710  0.0360  0.4388  0.1559
  248MOL   C12340137   7.099   4.083   6.683 -0.0649 -0.6282  0.3731
  248MOL   C12440138   7.008   4.026   6.793  0.0565  0.1297 -0.1525
  248MOL   O12540139   7.050   3.959   6.889 -0.7719 -0.1621  0.3249
  248MOL   H12640140   7.301   4.155   6.734  0.7058 -0.4204  2.0719
  248MOL   H12740141   7.265   3.992   6.790 -0.3109  0.7272  0.4914
  248MOL   H12840142   7.068   4.025   6.596 -1.6057 -1.7142  1.6092
  248MOL   H12940143   7.074   4.188   6.670 -0.7926 -0.7407  0.7835
  248MOL   C13040144   6.860   4.051   6.763 -0.1536 -0.7816 -0.2247
  248MOL   C13140145   6.768   4.058   6.883 -0.5012  0.3207 -0.9764
  248MOL   C13240146   6.789   4.183   6.973 -0.5952  0.5026 -0.7132
  248MOL   O13340147   6.863   4.274   6.951  0.0614  0.5389  0.7369
  248MOL   H13440148   6.826   3.975   6.692  0.0001 -2.0280  1.0158
  248MOL   H13540149   6.853   4.146   6.710 -1.1167 -0.1397  0.9989
  248MOL   H13640150   6.788   3.976   6.952 -0.9215 -0.0731 -1.3195
  248MOL   H13740151   6.664   4.063   6.851 -1.3909 -0.0607  1.7211
  248MOL   C13840152   6.711   4.180   7.106 -0.1813 -0.3818 -0.2769
  248MOL   C13940153   6.710   4.325   7.172  0.3228  0.0287  0.7621
  248MOL   C14040154   6.847   4.353   7.235  0.6354 -0.1417  0.3643
  248MOL   O14140155   6.902   4.259   7.291 -0.3839 -0.2608 -0.4707
  248MOL   H14240156   6.742   4.101   7.175  0.6859 -0.6074 -0.9164
  248MOL   H14340157   6.609   4.154   7.081 -0.1570  0.6548 -1.4625
  248MOL   H14440158   6.636   4.324   7.252  0.3127  1.0408  0.7750
  248MOL   H14540159   6.678   4.404   7.104  0.8332  1.6797  2.3926
  248MOL   C14640160   6.898   4.496   7.231  0.0357  0.3454  0.1378
  248MOL   C14740161   7.034   4.510   7.307 -0.1644 -0.1405 -0.5015
  248MOL   C14840162   7.143   4.579   7.228 -0.1078  0.4094 -0.1973
  248MOL   O14940163   7.134   4.606   7.108 -0.2128  0.1338  0.1089
  248MOL   H15040164   6.821   4.555   7.281  0.0227  0.1571  0.3418
  248MOL   H15140165   6.902   4.529   7.128 -1.6620  0.7759  0.1893
  248MOL   H15240166   7.074   4.411   7.328  1.0224  0.1344 -1.3892
  248MOL   H15340167   7.017   4.559   7.402 -1.8111 -0.0762 -0.8141
  248MOL   C15440168   7.266   4.621   7.309  0.3194 -0.2568  0.4328
  248MOL   C15540169   7.386   4.671   7.217 -0.5193 -0.7024 -0.6658
  248MOL   C15640170   7.531   4.640   7.262 -0.2815 -0.0711 -0.3479
  248MOL   O15740171   7.560   4.570   7.358 -0.0874  0.2757 -0.1481
  248MOL   H15840172   7.290   4.533   7.369  0.3731 -0.8921 -0.5009
  248MOL   H15940173   7.237   4.696   7.382 -0.0859 -0.3668  0.3848
  248MOL   H16040174   7.385   4.780   7.218  0.1456 -0.6948 -0.7971
  248MOL   H16140175   7.383   4.628   7.117  0.6836  1.1181 -1.5057
  248MOL   H16240176   7.615   4.694   7.219 -1.2310  1.0227 -0.8606
  249MOL     C140177   4.218   4.661   0.168  0.2814  0.7791  0.1739
  249MOL     C240178   4.204   4.553   0.263 -0.7980  0.1019  0.6249
  249MOL     C340179   4.175   4.601   0.402  0.3697  0.1935  0.5915
  249MOL     O440180   4.169   4.719   0.429  0.6239 -0.5417 -0.0663
  249MOL     H540181   4.130   4.725   0.169 -1.1704 -1.0316 -3.3696
  249MOL     H640182   4.306   4.722   0.190 -0.4927  1.8345  0.3746
  249MOL     H740183   4.294   4.492   0.266 -1.1542 -0.6447 -2.8352
  249MOL     H840184   4.115   4.497   0.236 -0.3901  0.4830 -1.5941
  249MOL     H940185   4.228   4.631   0.064  0.1010  0.5475  0.2242
  249MOL    C1040186   4.144   4.493   0.501 -0.1798 -0.5087 -0.9884
  249MOL    C1140187   4.187   4.517   0.644 -0.6384 -0.0475 -0.6977
  249MOL    C1240188   4.191   4.388   0.730 -0.2370  0.3864  0.1219
  249MOL    O1340189   4.222   4.276   0.686 -0.1774  0.4480 -0.5396
  249MOL    H1440190   4.184   4.398   0.467 -1.3161 -0.9473 -1.1087
  249MOL    H1540191   4.035   4.501   0.503 -0.0689  1.0524  1.0108
  249MOL    H1640192   4.107   4.575   0.689 -0.4256  0.6366 -1.1913
  249MOL    H1740193   4.281   4.573   0.645 -0.9632  0.5389 -1.8902
  249MOL    C1840194   4.151   4.409   0.875 -0.6625 -1.2896  0.8333
  249MOL    C1940195   4.197   4.300   0.974 -0.0107 -0.0814  0.6909
  249MOL    C2040196   4.076   4.212   1.015 -0.0086  0.4027  0.2108
  249MOL    O2140197   3.975   4.271   1.048  0.2272  0.3285  0.2886
  249MOL    H2240198   4.044   4.427   0.877 -0.3176  0.7840  3.3594
  249MOL    H2340199   4.188   4.508   0.903  0.2124 -0.3214 -3.3569
  249MOL    H2440200   4.251   4.341   1.060 -0.4430  0.8487  0.5294
  249MOL    H2540201   4.262   4.226   0.928 -0.6345  1.4491 -2.8036
  249MOL    C2640202   4.079   4.063   1.016 -0.3032  0.7934  0.3551
  249MOL    C2740203   3.945   3.998   1.067  0.2420 -0.3002  0.0443
  249MOL    C2840204   3.967   3.949   1.216 -0.1519  0.5265  0.6259
  249MOL    O2940205   4.058   3.870   1.249 -0.2922 -0.3122 -0.1063
  249MOL    H3040206   4.168   4.027   1.066 -1.0941  0.2334  1.3778
  249MOL    H3140207   4.103   4.030   0.915 -3.3119  1.6415 -0.6973
  249MOL    H3240208   3.922   3.909   1.009 -0.2651 -0.2102  0.1044
  249MOL    H3340209   3.858   4.063   1.058  0.8890  0.5055 -0.4602
  249MOL    C3440210   3.870   3.992   1.324 -0.4067  0.0816 -0.1775
  249MOL    C3540211   3.881   3.915   1.454  0.1238 -0.0695 -0.1045
  249MOL    C3640212   3.762   3.953   1.542 -0.0806  0.2274 -0.0510
  249MOL    O3740213   3.657   3.999   1.504  0.3666  0.1480  0.6369
  249MOL    H3840214   3.767   3.993   1.289 -0.6204  1.4645  0.4686
  249MOL    H3940215   3.886   4.099   1.337  0.6093  0.2963 -2.9619
  249MOL    H4040216   3.960   3.960   1.514 -1.0396  2.2171 -0.2498
  249MOL    H4140217   3.895   3.808   1.441 -1.4433 -0.2947 -0.0745
  249MOL    C4240218   3.785   3.941   1.692 -0.4323 -0.3477  0.8975
  249MOL    C4340219   3.663   3.910   1.777 -0.5752  0.4704 -0.3829
  249MOL    C4440220   3.611   4.011   1.875 -0.5396 -0.3670 -0.6744
  249MOL    O4540221   3.669   4.115   1.899 -0.2738 -0.0823 -0.3539
  249MOL    H4640222   3.826   4.034   1.731 -0.0606  0.3052 -1.0175
  249MOL    H4740223   3.855   3.858   1.701 -1.2151 -1.1076  0.0364
  249MOL    H4840224   3.686   3.820   1.834 -1.4436 -0.4935 -1.5380
  249MOL    H4940225   3.571   3.888   1.723 -0.7488  0.5770 -0.1309
  249MOL    C5040226   3.478   3.975   1.940  0.0711 -0.0160  0.5687
  249MOL    C5140227   3.418   4.089   2.027 -0.1756  0.2952  0.1841
  249MOL    C5240228   3.333   4.188   1.947 -0.5381  0.4936 -0.8728
  249MOL    O5340229   3.310   4.166   1.832 -0.4750  0.2282 -0.0771
  249MOL    H5440230   3.488   3.887   2.003 -3.1411 -0.9803 -0.1625
  249MOL    H5540231   3.410   3.945   1.860  2.3048  1.7204 -2.0647
  249MOL    H5640232   3.499   4.132   2.087  1.2212  0.6451 -1.8890
  249MOL    H5740233   3.344   4.050   2.097  1.0394  1.0015  1.9065
  249MOL    C5840234   3.262   4.302   2.019 -0.1029  0.6111 -0.7586
  249MOL    C5940235   3.171   4.386   1.921 -0.1742  0.2188  0.8652
  249MOL    C6040236   3.027   4.352   1.944 -0.1859 -0.0003 -1.1023
  249MOL    O6140237   2.996   4.254   2.007  0.3448  0.3041  0.2486
  249MOL    H6240238   3.337   4.370   2.061 -0.2377 -0.5163  1.3709
  249MOL    H6340239   3.212   4.257   2.105  0.0590  2.4515  0.3366
  249MOL    H6440240   3.178   4.355   1.817  0.6498  1.1837  0.6284
  249MOL    H6540241   3.186   4.493   1.927 -1.5746  0.5154 -0.4943
  249MOL    C6640242   2.930   4.426   1.859 -0.2325  0.3840 -0.1735
  249MOL    C6740243   2.785   4.381   1.878 -0.2458 -0.3793 -0.9516
  249MOL    C6840244   2.758   4.252   1.795 -0.4509 -0.7491  0.3128
  249MOL    O6940245   2.836   4.210   1.712  0.0111  0.2034  0.7508
  249MOL    H7040246   2.956   4.420   1.754 -1.3980  0.1288 -0.4542
  249MOL    H7140247   2.955   4.530   1.877 -1.7144  0.8390 -0.6731
  249MOL    H7240248   2.721   4.466   1.858 -0.8580 -0.4164  0.7923
  249MOL    H7340249   2.764   4.361   1.983  0.0609 -0.0619 -0.8283
  249MOL    C7440250   2.625   4.191   1.821  0.4110 -0.0351  0.0197
  249MOL    C7540251   2.588   4.082   1.719  0.3244  0.4397  0.0388
  249MOL    C7640252   2.525   4.152   1.600 -0.3237  0.5499 -0.7548
  249MOL    O7740253   2.492   4.269   1.610  0.0644  0.2736  0.0796
  249MOL    H7840254   2.551   4.269   1.835  4.0680  3.2328  1.8965
  249MOL    H7940255   2.633   4.142   1.918 -2.3632 -2.3482 -0.8347
  249MOL    H8040256   2.525   4.008   1.767  0.5179  0.0795 -0.2557
  249MOL    H8140257   2.674   4.033   1.673  0.5753  1.5652 -0.7158
  249MOL    C8240258   2.522   4.079   1.468 -0.5672 -0.2997  0.2842
  249MOL    C8340259   2.525   4.172   1.346 -0.3567  0.7669  0.1749
  249MOL    C8440260   2.664   4.173   1.283  0.0454 -0.2984  0.7087
  249MOL    O8540261   2.767   4.136   1.340  0.0928  0.3906  0.1966
  249MOL    H8640262   2.431   4.018   1.461  1.2205 -2.7749 -2.1148
  249MOL    H8740263   2.605   4.009   1.465  1.7516  2.4546 -1.6604
  249MOL    H8840264   2.498   4.275   1.368 -0.7020  0.9255 -0.9845
  249MOL    H8940265   2.466   4.132   1.264  1.4363 -0.1552 -0.6928
  249MOL    C9040266   2.665   4.225   1.138 -0.1255 -0.3258  0.4386
  249MOL    C9140267   2.796   4.182   1.075 -0.3030  0.3334  0.0170
  249MOL    C9240268   2.813   4.247   0.938 -0.4750 -0.2342 -0.1709
  249MOL    O9340269   2.717   4.297   0.882 -0.6224 -0.0148 -0.2338
  249MOL    H9440270   2.671   4.333   1.151  1.4507 -0.3663  0.0993
  249MOL    H9540271   2.577   4.201   1.079 -0.2352  0.4883  0.2625
  249MOL    H9640272   2.797   4.073   1.073  2.6711  0.3049  0.1190
  249MOL    H9740273   2.873   4.217   1.144 -0.6336 -0.0553  0.5785
  249MOL    C9840274   2.955   4.231   0.873  0.7660  0.3150  0.6223
  249MOL    C9940275   2.954   4.264   0.723 -0.7493 -0.1056 -0.7867
  249MOL   C10040276   2.991   4.404   0.670 -0.6873  0.6961  0.2248
  249MOL   O10140277   3.022   4.496   0.750 -0.5861  0.0271  0.3707
  249MOL   H10240278   3.000   4.133   0.888  0.0044  0.3199  3.1420
  249MOL   H10340279   3.026   4.298   0.922  0.3601  2.3608 -1.4997
  249MOL   H10440280   2.857   4.234   0.686 -1.1310 -1.1495  1.0051
  249MOL   H10540281   3.031   4.202   0.676  1.1465  1.4969  0.1283
  249MOL   C10640282   3.004   4.428   0.515  0.2680  0.9504 -0.7000
  249MOL   C10740283   3.094   4.550   0.471 -0.1144  0.4748 -0.5381
  249MOL   C10840284   3.013   4.677   0.428 -0.2859  0.5830  0.6363
  249MOL   O10940285   2.908   4.666   0.362 -0.6686 -0.3960  0.2343
  249MOL   H11040286   2.903   4.439   0.476  0.0175 -0.2634 -0.4291
  249MOL   H11140287   3.040   4.335   0.471  3.5374  1.7136  0.2235
  249MOL   H11240288   3.166   4.519   0.396 -1.5464 -1.5257 -1.1239
  249MOL   H11340289   3.159   4.593   0.547 -0.0191 -0.4617 -0.0731
  249MOL   C11440290   3.078   4.809   0.478  0.0331 -0.0780  0.0967
  249MOL   C11540291   2.997   4.925   0.420 -0.6196 -0.5382 -0.2199
  249MOL   C11640292   3.092   5.033   0.384  0.4251 -0.6926  0.0077
  249MOL   O11740293   3.182   5.070   0.463 -0.2764 -0.3216  0.8464
  249MOL   H11840294   3.178   4.806   0.435  0.4431 -3.1586  1.1638
  249MOL   H11940295   3.082   4.810   0.587 -1.7465  0.9921  0.1738
  249MOL   H12040296   2.916   4.951   0.488  0.9644 -1.0205  1.9113
  249MOL   H12140297   2.955   4.901   0.322 -0.2232 -0.1981 -0.4763
  249MOL   C12240298   3.077   5.096   0.241 -0.5210  0.4330 -0.2892
  249MOL   C12340299   3.149   5.017   0.134 -0.3022  1.0402 -0.0215
  249MOL   C12440300   3.270   5.092   0.071  1.0153  0.4375  0.6291
  249MOL   O12540301   3.255   5.163   7.834 -0.0265  0.2299 -0.1849
  249MOL   H12640302   3.106   5.201   0.227 -2.5290  1.1769  0.9169
  249MOL   H12740303   2.970   5.090   0.221 -0.5394  1.8528 -0.6917
  249MOL   H12840304   3.065   4.989   0.070  0.3981  1.3311 -1.0680
  249MOL   H12940305   3.175   4.918   0.172 -0.1644  0.8436 -0.6321
  249MOL   C13040306   3.405   5.047   0.128  0.1059 -0.2953 -0.2080
  249MOL   C13140307   3.522   5.125   0.068  0.1174  0.1599 -0.0807
  249MOL   C13240308   3.614   5.042   7.833  0.3851  0.6386 -0.1325
  249MOL   O13340309   3.568   4.933   7.794 -0.1095  0.6739 -0.2439
  249MOL   H13440310   3.418   4.942   0.101 -2.1418 -0.2217 -1.7090
  249MOL   H13540311   3.394   5.058   0.236 -0.2864 -1.5601 -0.1133
  249MOL   H13640312   3.581   5.154   0.155 -0.6988  1.9871 -0.1228
  249MOL   H13740313   3.499   5.214   0.010  0.4410  0.5899  0.4386
  249MOL   C13840314   3.752   5.086   7.788  0.7399  0.1334 -0.7529
  249MOL   C13940315   3.806   4.993   7.680 -0.5509 -0.8780 -0.8749
  249MOL   C14040316   3.874   5.066   7.573  0.1421  0.1369 -0.0135
  249MOL   O14140317   3.814   5.157   7.520 -0.0991  0.2426 -0.6842
  249MOL   H14240318   3.811   5.096   0.020  0.9213 -4.6174 -0.1951
  249MOL   H14340319   3.726   5.183   7.746 -2.5018 -0.9606 -1.4078
  249MOL   H14440320   3.725   4.946   7.625 -0.4698 -0.1461 -1.6258
  249MOL   H14540321   3.870   4.920   7.730  0.0587  0.3838  0.2085
  249MOL   C14640322   4.018   5.032   7.540 -0.3368 -0.1964 -0.2178
  249MOL   C14740323   4.096   5.147   7.474 -0.0816 -0.2136 -0.6812
  249MOL   C14840324   4.226   5.092   7.411 -0.2423  0.6592 -0.5725
  249MOL   O14940325   4.247   5.086   7.292  0.0245  0.2969 -0.0709
  249MOL   H15040326   4.017   4.942   7.479 -2.0193 -0.4482  0.1637
  249MOL   H15140327   4.060   5.021   7.640  2.1888 -2.3513 -1.4669
  249MOL   H15240328   4.125   5.231   7.538 -1.2402  0.1011 -0.5585
  249MOL   H15340329   4.030   5.181   7.395  0.2003  1.3463 -0.2653
  249MOL   C15440330   4.325   5.029   7.507 -0.3489  0.0362 -0.0492
  249MOL   C15540331   4.352   4.883   7.465  0.1361  0.3961 -0.4693
  249MOL   C15640332   4.275   4.780   7.543  0.3668 -0.1012  0.0078
  249MOL   O15740333   4.202   4.812   7.639  0.4334  0.0968 -0.0902
  249MOL   H15840334   4.296   5.037   7.612  1.2532  0.1929  0.3957
  249MOL   H15940335   4.415   5.090   7.512 -1.0130  1.1654 -1.5021
  249MOL   H16040336   4.457   4.856   7.471 -0.2112 -1.4581 -2.0994
  249MOL   H16140337   4.320   4.864   7.362  2.9163  0.6263 -1.4314
  249MOL   H16240338   4.321   4.682   7.531  0.7194 -0.0066  0.5630
  250MOL     C140339   6.283   2.866   2.606 -0.2393 -0.6676 -0.4845
  250MOL     C240340   6.242   2.772   2.723 -0.2860  0.3790  0.0675
  250MOL     C340341   6.267   2.626   2.690 -0.4885  0.1416  0.1631
  250MOL     O440342   6.284   2.578   2.573  0.0807  0.3372 -0.4574
  250MOL     H540343   6.384   2.837   2.579 -0.0567  0.3346 -0.9165
  250MOL     H640344   6.220   2.857   2.517  1.7999 -0.1586 -2.0074
  250MOL     H740345   6.135   2.772   2.743 -0.2490 -1.3004  0.3673
  250MOL     H840346   6.300   2.793   2.813  0.8175  0.9722 -0.7702
  250MOL     H940347   6.295   2.971   2.633  1.9992 -1.3441  1.2440
  250MOL    C1040348   6.263   2.541   2.814  0.7293  0.1713  0.8986
  250MOL    C1140349   6.209   2.395   2.795  0.2688 -0.7443 -0.2100
  250MOL    C1240350   6.059   2.378   2.770 -0.6267 -0.1168 -0.0913
  250MOL    O1340351   5.994   2.481   2.787  0.2423  0.2826 -0.5022
  250MOL    H1440352   6.199   2.592   2.887  0.8576  1.0608  0.3904
  250MOL    H1540353   6.361   2.543   2.860  1.5423  1.1669 -0.8398
  250MOL    H1640354   6.242   2.321   2.867  0.6860 -1.6992 -1.3648
  250MOL    H1740355   6.247   2.359   2.699 -0.6115  1.2846 -1.3529
  250MOL    C1840356   5.999   2.248   2.713  0.0843  0.1144  1.1594
  250MOL    C1940357   5.843   2.247   2.730  0.3686 -0.5123  0.2977
  250MOL    C2040358   5.776   2.113   2.769 -0.2679 -0.4102  0.6293
  250MOL    O2140359   5.843   2.010   2.780 -0.2167 -0.4306  0.5466
  250MOL    H2240360   6.049   2.172   2.772  0.1793 -0.6719  0.0625
  250MOL    H2340361   6.033   2.244   2.610  3.0016 -1.7309  2.1326
  250MOL    H2440362   5.795   2.263   2.633 -0.1455 -0.6310  0.5321
  250MOL    H2540363   5.809   2.329   2.792  0.1277  1.2346 -2.0571
  250MOL    C2640364   5.619   2.108   2.770 -0.0885 -0.1895 -0.1958
  250MOL    C2740365   5.576   2.050   2.903  0.0358  0.0978  0.1287
  250MOL    C2840366   5.528   2.160   2.996  0.0546 -0.0666  0.1267
  250MOL    O2940367   5.570   2.276   2.987  0.2711  0.0739 -0.4528
  250MOL    H3040368   5.573   2.045   2.693  0.2604 -2.1531  1.1481
  250MOL    H3140369   5.589   2.208   2.740 -0.8144 -0.1759  0.5520
  250MOL    H3240370   5.640   1.984   2.961  1.0973  0.7964 -0.2307
  250MOL    H3340371   5.486   1.990   2.886  0.3663 -0.0340 -1.2297
  250MOL    C3440372   5.424   2.109   3.103 -0.6622 -0.3848  0.4956
  250MOL    C3540373   5.358   2.218   3.178  0.0115  0.1854  0.1281
  250MOL    C3640374   5.217   2.237   3.141 -0.8422  0.1749  0.7122
  250MOL    O3740375   5.154   2.153   3.077 -0.2941 -0.5622 -0.0438
  250MOL    H3840376   5.483   2.064   3.184  2.2115 -0.2959 -1.4728
  250MOL    H3940377   5.361   2.028   3.066 -0.6015 -0.4562  0.5474
  250MOL    H4040378   5.404   2.313   3.152  0.1120 -0.0798 -0.6756
  250MOL    H4140379   5.372   2.196   3.284  0.0783  2.4982  0.6275
  250MOL    C4240380   5.156   2.368   3.188 -0.2425  0.6436 -0.5280
  250MOL    C4340381   5.010   2.386   3.155  0.1470  0.0625  0.5481
  250MOL    C4440382   4.975   2.514   3.089  0.6472 -0.2891 -0.3783
  250MOL    O4540383   4.951   2.517   2.969  0.2765 -0.0477 -0.2902
  250MOL    H4640384   5.227   2.442   3.151  2.1519 -1.1224  0.4114
  250MOL    H4740385   5.163   2.363   3.296 -0.1779 -0.3195 -0.5709
  250MOL    H4840386   4.951   2.377   3.246  0.9424  3.4428  1.4596
  250MOL    H4940387   4.958   2.310   3.098  0.6277 -0.4477  0.7820
  250MOL    C5040388   4.963   2.639   3.174  0.1777 -0.0414 -0.1895
  250MOL    C5140389   5.105   2.714   3.189  0.9530 -0.4119  0.9699
  250MOL    C5240390   5.145   2.752   3.333  0.4562  0.0051 -1.3405
  250MOL    O5340391   5.067   2.747   3.430 -0.2897  0.1231  0.3777
  250MOL    H5440392   4.949   2.601   3.276  0.0262  0.1973 -0.1205
  250MOL    H5540393   4.885   2.714   3.159 -1.4639 -1.1903  2.2181
  250MOL    H5640394   5.103   2.798   3.121 -1.5637 -0.3312  1.1137
  250MOL    H5740395   5.190   2.653   3.157 -0.6459 -1.8751 -0.5291
  250MOL    C5840396   5.294   2.782   3.361 -0.3835 -0.2651 -0.2934
  250MOL    C5940397   5.310   2.902   3.458 -0.2377 -0.0779 -0.7369
  250MOL    C6040398   5.448   2.960   3.454 -0.3842  0.5699 -0.1696
  250MOL    O6140399   5.476   3.078   3.436 -0.0749  0.1122 -0.3673
  250MOL    H6240400   5.337   2.808   3.264 -2.5528  1.2749 -0.8895
  250MOL    H6340401   5.350   2.693   3.391 -2.2998 -1.0987  0.9198
  250MOL    H6440402   5.302   2.859   3.558 -0.2834  1.2971 -0.1295
  250MOL    H6540403   5.234   2.980   3.447 -2.2948 -1.8713  0.3358
  250MOL    C6640404   5.562   2.855   3.462 -0.1716 -1.1390  0.3227
  250MOL    C6740405   5.700   2.917   3.483 -0.5715  0.2386  0.5795
  250MOL    C6840406   5.791   2.841   3.582  0.1211  0.2313  0.0481
  250MOL    O6940407   5.833   2.896   3.682  0.6311 -0.5472  0.1647
  250MOL    H7040408   5.564   2.790   3.374  3.5013 -1.0122  0.2045
  250MOL    H7140409   5.546   2.780   3.539  0.2595 -1.2382  0.3175
  250MOL    H7240410   5.690   3.018   3.524 -3.2433 -0.3730  1.5523
  250MOL    H7340411   5.757   2.920   3.390  0.0823 -1.2453  0.9151
  250MOL    C7440412   5.821   2.693   3.560  0.2516 -0.1057  0.2914
  250MOL    C7540413   5.910   2.611   3.668  0.4958 -0.0884 -0.2211
  250MOL    C7640414   6.037   2.559   3.593  0.3607 -0.9237  1.1647
  250MOL    O7740415   6.079   2.615   3.489  0.8125 -0.0294  0.1272
  250MOL    H7840416   5.855   2.682   3.457  0.6722 -1.0797  0.5298
  250MOL    H7940417   5.726   2.640   3.571  0.5437 -0.5595  0.6267
  250MOL    H8040418   5.846   2.530   3.703  0.8407 -1.3787 -2.4968
  250MOL    H8140419   5.932   2.677   3.752 -0.6767 -0.8384  0.6940
  250MOL    C8240420   6.108   2.445   3.655  0.0439 -0.9535 -0.4230
  250MOL    C8340421   6.229   2.386   3.567 -0.4527  0.4275 -0.4263
  250MOL    C8440422   6.177   2.296   3.457  0.1458 -0.4929  0.1664
  250MOL    O8540423   6.057   2.264   3.445  0.3386 -0.1439  0.5956
  250MOL    H8640424   6.047   2.359   3.685 -0.6643 -1.0405 -2.0521
  250MOL    H8740425   6.152   2.472   3.751 -2.3220 -1.5852  0.8708
  250MOL    H8840426   6.275   2.306   3.625  0.3371  1.2632  0.1033
  250MOL    H8940427   6.303   2.458   3.530  0.4798 -0.5641 -0.5288
  250MOL    C9040428   6.281   2.247   3.358 -0.4233 -0.0140 -0.2041
  250MOL    C9140429   6.228   2.182   3.227  0.3520  0.3255 -0.1397
  250MOL    C9240430   6.131   2.266   3.144  0.2714  0.1027 -0.0935
  250MOL    O9340431   6.156   2.383   3.114  0.7046  0.0107 -0.2616
  250MOL    H9440432   6.342   2.176   3.415 -0.2860  0.0370 -0.2862
  250MOL    H9540433   6.334   2.338   3.329  0.2942 -1.0799 -2.4188
  250MOL    H9640434   6.185   2.091   3.267 -1.3309  0.1890 -2.1519
  250MOL    H9740435   6.317   2.159   3.167  0.8108  1.3180  0.1555
  250MOL    C9840436   5.990   2.212   3.119 -0.4486 -0.0951 -0.2773
  250MOL    C9940437   5.880   2.309   3.149  0.0853  0.1937 -0.0552
  250MOL   C10040438   5.781   2.256   3.255  0.2493  0.3823  0.0263
  250MOL   O10140439   5.731   2.143   3.246 -0.3723 -0.0025 -0.5044
  250MOL   H10240440   5.987   2.123   3.181 -2.1950  0.8518  1.0116
  250MOL   H10340441   5.986   2.185   3.013 -0.2142 -0.0570 -0.2982
  250MOL   H10440442   5.836   2.337   3.054  0.4691 -0.0967 -0.3206
  250MOL   H10540443   5.916   2.405   3.184  0.6440 -0.0580  0.0785
  250MOL   C10640444   5.744   2.358   3.361 -0.2300 -0.6054 -0.6377
  250MOL   C10740445   5.655   2.305   3.480 -0.4960 -0.2231  0.4619
  250MOL   C10840446   5.528   2.383   3.490  0.3156  0.0728  0.0426
  250MOL   O10940447   5.500   2.460   3.398 -0.3357  0.0306  0.2247
  250MOL   H11040448   5.718   2.456   3.322  0.1261  0.5755  1.9850
  250MOL   H11140449   5.839   2.377   3.411 -0.6764  0.3882 -0.1567
  250MOL   H11240450   5.708   2.319   3.574 -1.5679  1.3944  0.8298
  250MOL   H11340451   5.624   2.200   3.472  1.8082 -1.0454  1.6218
  250MOL   C11440452   5.439   2.364   3.612 -0.2705 -0.5823 -0.1473
  250MOL   C11540453   5.292   2.390   3.587 -0.7669 -0.1535  0.3559
  250MOL   C11640454   5.248   2.527   3.645 -0.0377 -0.0352 -0.1426
  250MOL   O11740455   5.322   2.621   3.667 -0.2437 -0.1893  0.4820
  250MOL   H11840456   5.483   2.428   3.689  0.7309 -2.4186  0.8348
  250MOL   H11940457   5.464   2.265   3.648  0.6614 -0.7483 -1.2124
  250MOL   H12040458   5.243   2.307   3.638  1.8126 -1.7643  0.3452
  250MOL   H12140459   5.274   2.389   3.480  1.6207 -0.0668 -0.0867
  250MOL   C12240460   5.099   2.538   3.668  0.0069  0.5102  0.2992
  250MOL   C12340461   5.057   2.662   3.753 -0.1328 -0.0952 -0.0693
  250MOL   C12440462   5.097   2.637   3.900  0.3137 -0.0899  0.1168
  250MOL   O12540463   5.137   2.526   3.937  0.1771  0.1096  0.1094
  250MOL   H12640464   5.050   2.451   3.710  0.3966  0.0005 -0.2982
  250MOL   H12740465   5.046   2.564   3.576 -2.3114  0.2745  1.5466
  250MOL   H12840466   4.948   2.669   3.754 -0.1633 -0.5610  0.0245
  250MOL   H12940467   5.086   2.761   3.718 -0.0693  0.2038  0.7979
  250MOL   C13040468   5.075   2.742   4.008 -0.5226 -0.1421  0.5740
  250MOL   C13140469   4.965   2.708   4.109 -0.9500 -0.4506  0.2268
  250MOL   C13240470   5.035   2.651   4.235  0.4784  0.8742 -0.5120
  250MOL   O13340471   5.104   2.721   4.317 -0.8917  0.0368  0.0163
  250MOL   H13440472   5.059   2.838   3.960  0.5120  0.8121  2.1016
  250MOL   H13540473   5.172   2.763   4.053  0.1252 -1.5754 -0.1038
  250MOL   H13640474   4.888   2.644   4.068  1.1311 -2.2571 -0.9713
  250MOL   H13740475   4.924   2.806   4.134 -0.1136  0.1883 -0.8364
  250MOL   C13840476   5.005   2.499   4.245  0.3154 -0.5480  0.1193
  250MOL   C13940477   5.071   2.427   4.367 -0.4813  0.1127 -0.3616
  250MOL   C14040478   4.993   2.310   4.408 -0.5792 -0.2340 -0.0867
  250MOL   O14140479   4.894   2.315   4.480 -0.0675  0.9729  0.1981
  250MOL   H14240480   5.035   2.449   4.153 -0.5262 -1.5854  0.3969
  250MOL   H14340481   4.897   2.484   4.244  0.6258 -3.5434  2.0446
  250MOL   H14440482   5.080   2.492   4.454  1.1863 -1.5933  0.7871
  250MOL   H14540483   5.171   2.394   4.341 -0.2891 -0.0604  0.5787
  250MOL   C14640484   5.056   2.178   4.369  0.2312  0.7730  0.3941
  250MOL   C14740485   4.963   2.053   4.383 -0.6288 -0.1001  0.2150
  250MOL   C14840486   5.035   1.917   4.376  0.6923  0.1993 -0.2951
  250MOL   O14940487   5.161   1.916   4.372  0.3702  0.0936  0.3697
  250MOL   H15040488   5.146   2.173   4.430  2.9187 -0.4359 -3.4544
  250MOL   H15140489   5.075   2.170   4.262 -0.1629  0.4449  0.3477
  250MOL   H15240490   4.899   2.041   4.295  1.1613  0.3789 -1.1897
  250MOL   H15340491   4.903   2.064   4.473 -0.2676  0.0795  0.4342
  250MOL   C15440492   4.947   1.795   4.367 -0.4626 -0.1090 -0.1821
  250MOL   C15540493   4.978   1.692   4.248  0.0837  0.5850  0.2467
  250MOL   C15640494   4.887   1.712   4.128 -0.1878 -0.4140  0.2633
  250MOL   O15740495   4.904   1.810   4.057  0.4753  0.1771  0.6225
  250MOL   H15840496   4.844   1.829   4.371 -0.0526  1.5757 -2.5291
  250MOL   H15940497   4.958   1.738   4.459  3.3241 -1.0134 -1.1164
  250MOL   H16040498   4.968   1.587   4.273 -3.8961  0.3154 -1.9936
  250MOL   H16140499   5.077   1.714   4.209  1.2781 -3.8567  0.5002
  250MOL   H16240500   4.796   1.655   4.108 -0.7400  0.2646  0.7817
  251MOL     C140501   1.578   4.476   5.675  0.6899 -0.2554  0.9260
  251MOL     C240502   1.713   4.466   5.611 -0.5960 -0.1371  0.1721
  251MOL     C340503   1.803   4.356   5.663 -0.3172 -0.1378 -0.5155
  251MOL     O440504   1.762   4.282   5.746  0.0482  0.4885 -0.2141
  251MOL     H540505   1.533   4.380   5.649  1.0007 -0.3546  0.7443
  251MOL     H640506   1.580   4.485   5.783  2.3189  0.1805  0.8769
  251MOL     H740507   1.760   4.563   5.632  0.2796 -0.7980  1.3442
  251MOL     H840508   1.711   4.459   5.502 -0.0999  2.0811 -0.0181
  251MOL     H940509   1.517   4.552   5.627 -0.6734 -1.2593  1.0538
  251MOL    C1040510   1.945   4.360   5.623  0.5344  0.0607 -0.0223
  251MOL    C1140511   2.051   4.307   5.726  1.4966 -0.1135 -0.3015
  251MOL    C1240512   2.156   4.214   5.664 -0.3499 -0.6313  0.1493
  251MOL    O1340513   2.170   4.210   5.543  0.0042 -0.0595 -0.1951
  251MOL    H1440514   1.960   4.467   5.610 -0.4458  0.2369  0.2596
  251MOL    H1540515   1.951   4.298   5.534 -4.6301 -2.0999  0.9743
  251MOL    H1640516   1.996   4.256   5.805 -0.4283  1.9197 -0.2760
  251MOL    H1740517   2.109   4.386   5.775  0.5701  0.1158  0.4363
  251MOL    C1840518   2.232   4.129   5.762 -0.2242  0.2691  0.2003
  251MOL    C1940519   2.231   3.985   5.734 -0.4066  0.0763 -0.1146
  251MOL    C2040520   2.095   3.916   5.755  0.1102  0.7844  0.1675
  251MOL    O2140521   2.069   3.868   5.863 -0.6399  0.5152 -0.6077
  251MOL    H2240522   2.194   4.145   5.863 -1.7329  1.1587 -0.4897
  251MOL    H2340523   2.333   4.168   5.770 -0.4502  0.9730 -0.3619
  251MOL    H2440524   2.298   3.940   5.807  0.5918  2.5114  0.5372
  251MOL    H2540525   2.280   3.971   5.638  0.7082 -0.4380  0.5219
  251MOL    C2640526   1.997   3.899   5.641  0.7091  0.3358 -0.1218
  251MOL    C2740527   1.852   3.922   5.676 -0.3335  0.1407 -0.9223
  251MOL    C2840528   1.757   3.819   5.614  0.2063 -0.7716  0.2376
  251MOL    O2940529   1.786   3.698   5.617 -0.4711  0.0299 -0.0474
  251MOL    H3040530   2.013   3.801   5.595 -2.3740  0.4865 -1.6187
  251MOL    H3140531   2.010   3.971   5.560 -0.0207  0.9841  0.3349
  251MOL    H3240532   1.830   4.026   5.653  2.0546  0.5520 -1.5687
  251MOL    H3340533   1.815   3.925   5.779  0.1948  1.0153 -0.7475
  251MOL    C3440534   1.628   3.871   5.563  0.3614 -0.7255  0.4241
  251MOL    C3540535   1.518   3.765   5.536 -0.0493 -0.7950 -0.8432
  251MOL    C3640536   1.492   3.743   5.393  0.0161 -0.5868  0.2047
  251MOL    O3740537   1.558   3.799   5.300  0.1432  0.6058 -0.4061
  251MOL    H3840538   1.642   3.936   5.476 -0.8450  0.2914  0.9780
  251MOL    H3940539   1.591   3.932   5.644 -1.4851 -1.6034  0.2750
  251MOL    H4040540   1.428   3.797   5.589  1.2197  0.4428  0.6302
  251MOL    H4140541   1.547   3.667   5.574 -1.7974 -0.3608  1.7936
  251MOL    C4240542   1.378   3.651   5.363  0.4367  0.2570  0.1019
  251MOL    C4340543   1.264   3.736   5.293  0.0725  0.9545 -0.1919
  251MOL    C4440544   1.259   3.685   5.149 -0.0035 -1.0423  0.6404
  251MOL    O4540545   1.290   3.571   5.112 -0.3072 -0.4494  0.1067
  251MOL    H4640546   1.332   3.622   5.458 -0.0339  0.7917  0.0470
  251MOL    H4740547   1.414   3.565   5.308  1.0160 -0.0855  1.0079
  251MOL    H4840548   1.283   3.843   5.295 -1.3728  1.2064  4.4880
  251MOL    H4940549   1.175   3.711   5.350  0.3841  2.2301  0.8840
  251MOL    C5040550   1.190   3.780   5.048  0.1384  0.4317 -0.6842
  251MOL    C5140551   1.094   3.696   4.950  0.0904 -0.0730  0.3920
  251MOL    C5240552   0.942   3.709   4.974  0.1928  0.4840  0.1611
  251MOL    O5340553   0.902   3.787   5.055  0.5735 -0.3560  0.7283
  251MOL    H5440554   1.272   3.826   4.992 -0.2724  0.0519 -1.6103
  251MOL    H5540555   1.130   3.853   5.102 -4.3992 -2.7742 -1.1022
  251MOL    H5640556   1.113   3.589   4.956 -0.6475 -0.2347 -0.1207
  251MOL    H5740557   1.116   3.726   4.848  0.0998  2.2303  1.0539
  251MOL    C5840558   0.857   3.606   4.901  0.3663  0.2769 -0.6850
  251MOL    C5940559   0.699   3.625   4.898  0.2196  1.1259  0.0602
  251MOL    C6040560   0.652   3.718   4.789 -0.3164  0.0864  0.2175
  251MOL    O6140561   0.675   3.692   4.672 -0.5245  0.4892  0.2392
  251MOL    H6240562   0.877   3.507   4.940 -2.0777 -0.5990 -1.5906
  251MOL    H6340563   0.899   3.617   4.800 -0.5083  2.2561 -0.8520
  251MOL    H6440564   0.665   3.669   4.992 -0.7628  0.2693  0.1186
  251MOL    H6540565   0.653   3.527   4.891  0.5824  1.1147 -2.4288
  251MOL    C6640566   0.579   3.846   4.830  0.1385  0.1391  0.4726
  251MOL    C6740567   0.619   3.965   4.740  0.2374 -0.1236  0.1054
  251MOL    C6840568   0.718   4.060   4.810  0.0021 -0.7678 -0.2747
  251MOL    O6940569   0.718   4.079   4.932 -0.0092  0.8546 -0.5744
  251MOL    H7040570   0.592   3.864   4.936  0.1298 -1.8848  0.8408
  251MOL    H7140571   0.473   3.832   4.813  0.7182 -3.4393 -0.6968
  251MOL    H7240572   0.532   4.017   4.701  0.0619 -0.3622  0.1764
  251MOL    H7340573   0.666   3.932   4.647  1.1073 -0.9521  0.8260
  251MOL    C7440574   0.829   4.129   4.724 -0.2466  0.5552  0.1328
  251MOL    C7540575   0.964   4.069   4.750  0.1073  0.6247  0.3327
  251MOL    C7640576   1.081   4.161   4.713 -0.2519 -0.0643  0.7650
  251MOL    O7740577   1.088   4.209   4.597  0.0903 -0.2934  0.1205
  251MOL    H7840578   0.843   4.236   4.741 -2.1152  0.7930  0.2396
  251MOL    H7940579   0.805   4.120   4.618  1.9392 -0.7627 -0.2834
  251MOL    H8040580   0.970   3.982   4.686 -1.0307  0.9218 -0.1931
  251MOL    H8140581   0.955   4.034   4.853  0.2936  1.7863  0.7472
  251MOL    C8240582   1.188   4.198   4.810 -0.6186  0.4093 -0.3959
  251MOL    C8340583   1.157   4.328   4.892 -0.1917  0.4558  0.4008
  251MOL    C8440584   1.269   4.433   4.866 -0.5996  0.7262  0.6399
  251MOL    O8540585   1.350   4.430   4.769 -0.5133  0.1743 -0.1952
  251MOL    H8640586   1.279   4.213   4.753 -0.8785  0.9330 -0.6755
  251MOL    H8740587   1.211   4.109   4.869 -2.1927 -1.1750 -2.0682
  251MOL    H8840588   1.167   4.294   4.995  2.0544  1.3803  0.5269
  251MOL    H8940589   1.058   4.367   4.872 -0.6063 -0.9196 -0.2992
  251MOL    C9040590   1.278   4.544   4.970 -0.7674 -0.0083  0.2901
  251MOL    C9140591   1.242   4.678   4.909  0.4555  0.1981 -0.1395
  251MOL    C9240592   1.093   4.695   4.874 -0.5293 -0.3819  0.4743
  251MOL    O9340593   1.007   4.634   4.933 -0.0483 -0.7343  0.2577
  251MOL    H9440594   1.373   4.552   5.022 -0.3542  0.5104 -0.5404
  251MOL    H9540595   1.204   4.509   5.042 -1.0120  1.2283  0.6370
  251MOL    H9640596   1.314   4.692   4.829  0.3449 -1.3938 -0.5319
  251MOL    H9740597   1.257   4.755   4.985 -1.5488  1.4088 -0.9274
  251MOL    C9840598   1.059   4.806   4.765  0.2820  0.0213 -0.5131
  251MOL    C9940599   0.920   4.776   4.690 -0.2578 -0.1822 -1.4569
  251MOL   C10040600   0.941   4.705   4.554 -0.6366 -0.0068  1.0374
  251MOL   O10140601   1.050   4.690   4.501 -0.0892 -0.0204  0.1675
  251MOL   H10240602   1.134   4.814   4.687  0.0080  1.7978 -0.6266
  251MOL   H10340603   1.057   4.889   4.835  0.3165  0.0174 -0.5064
  251MOL   H10440604   0.871   4.872   4.679 -0.7115 -0.1238  0.7959
  251MOL   H10540605   0.862   4.718   4.762  1.4317  0.6377  0.6448
  251MOL   C10640606   0.823   4.663   4.467  1.0323 -0.2050 -0.1262
  251MOL   C10740607   0.863   4.574   4.345  0.1086 -0.4245  0.0986
  251MOL   C10840608   0.771   4.457   4.315 -0.9188  0.4724 -0.1300
  251MOL   O10940609   0.660   4.449   4.369 -0.0769 -0.2555 -0.0554
  251MOL   H11040610   0.765   4.748   4.432 -0.4133 -1.0446  0.1858
  251MOL   H11140611   0.743   4.625   4.531 -2.7522  4.4145 -1.8087
  251MOL   H11240612   0.963   4.531   4.350 -0.7904 -2.6513 -0.3784
  251MOL   H11340613   0.860   4.633   4.253  0.5665 -1.0902 -0.3500
  251MOL   C11440614   0.825   4.336   4.233 -0.6782  0.1713 -0.5709
  251MOL   C11540615   0.707   4.237   4.207 -0.2506  0.0498 -0.1024
  251MOL   C11640616   0.731   4.098   4.271  0.0599 -0.1417 -0.0271
  251MOL   O11740617   0.825   4.072   4.342 -0.0189 -0.0683  0.3079
  251MOL   H11840618   0.907   4.297   4.292 -0.0586  0.9218 -0.9298
  251MOL   H11940619   0.858   4.362   4.133 -2.9585  1.5297 -1.0112
  251MOL   H12040620   0.699   4.225   4.099  0.7789 -0.8565 -0.0940
  251MOL   H12140621   0.612   4.269   4.247 -0.2904  2.8792 -2.2879
  251MOL   C12240622   0.613   4.003   4.262  0.3165 -0.2866  0.6856
  251MOL   C12340623   0.604   3.897   4.368 -0.8064  0.2031 -0.3981
  251MOL   C12440624   0.608   3.755   4.313  0.5614 -1.1837 -0.2954
  251MOL   O12540625   0.680   3.727   4.216 -0.0494  0.2307 -0.1608
  251MOL   H12640626   0.618   3.953   4.165  2.2929 -0.6035  0.9444
  251MOL   H12740627   0.519   4.057   4.249  0.8339  0.5867  0.5461
  251MOL   H12840628   0.521   3.918   4.436  0.5423 -1.1643  1.7203
  251MOL   H12940629   0.690   3.900   4.435 -1.4206 -0.2587  0.4194
  251MOL   C13040630   0.511   3.649   4.373  0.9427  0.4468 -0.8009
  251MOL   C13140631   0.444   3.556   4.268 -0.1752  0.0945 -0.2942
  251MOL   C13240632   0.474   3.406   4.274  1.1015  0.7784 -0.3670
  251MOL   O13340633   0.442   3.329   4.361 -0.1898  0.1439 -0.3659
  251MOL   H13440634   0.447   3.707   4.439  2.9739  1.7101  0.1196
  251MOL   H13540635   0.573   3.593   4.444  3.8092  1.1656 -2.6427
  251MOL   H13640636   0.456   3.601   4.169 -3.8707  1.8999  0.0083
  251MOL   H13740637   0.339   3.552   4.295 -0.4767 -0.3945 -1.4997
  251MOL   C13840638   0.549   3.354   4.142 -0.2823  0.2940 -0.1412
  251MOL   C13940639   0.701   3.395   4.147 -0.2863  0.0171  0.2385
  251MOL   C14040640   0.752   3.465   4.019  0.9940  0.4512  0.5855
  251MOL   O14140641   0.691   3.450   3.913 -0.2440  0.3756 -1.1031
  251MOL   H14240642   0.501   3.403   4.057 -0.5221 -1.6803 -1.1763
  251MOL   H14340643   0.536   3.246   4.129  0.2741  0.1531  0.4252
  251MOL   H14440644   0.758   3.302   4.147 -1.5605 -0.7888 -0.7946
  251MOL   H14540645   0.733   3.451   4.235  1.7707  1.0050 -1.1086
  251MOL   C14640646   0.886   3.532   4.025 -0.4982 -0.0632  0.9508
  251MOL   C14740647   0.879   3.668   3.944 -0.6343  0.3397  0.4422
  251MOL   C14840648   0.981   3.772   3.982  0.1144 -0.2328 -0.6291
  251MOL   O14940649   1.094   3.765   3.928 -0.2440 -0.1019 -0.1035
  251MOL   H15040650   0.959   3.466   3.978  1.1122  3.9469 -2.6294
  251MOL   H15140651   0.928   3.541   4.125 -0.5343 -3.6667  1.3502
  251MOL   H15240652   0.777   3.701   3.922 -0.6715  1.3257  1.9699
  251MOL   H15340653   0.918   3.637   3.848 -0.2775  0.5010  0.5346
  251MOL   C15440654   0.950   3.889   4.080  0.4137 -0.1261 -0.0480
  251MOL   C15540655   1.078   3.967   4.119  0.5721 -0.3004 -0.3947
  251MOL   C15640656   1.098   4.096   4.039  0.4585  0.7233 -0.2039
  251MOL   O15740657   1.023   4.192   4.056  0.0170  0.0256  0.2339
  251MOL   H15840658   0.914   3.848   4.175  0.3399  1.7452  0.7625
  251MOL   H15940659   0.869   3.950   4.039 -0.1731 -0.4049  0.6714
  251MOL   H16040660   1.169   3.908   4.107 -0.1095 -1.3212 -0.5842
  251MOL   H16140661   1.060   3.999   4.221 -0.5037  1.0864 -1.0073
  251MOL   H16240662   1.177   4.088   3.963  0.0168  1.3032 -0.7315
  252MOL     C140663   2.845   5.805   4.723  0.2415  0.2584 -0.4155
  252MOL     C240664   2.909   5.862   4.592  0.2508 -0.3905  0.5075
  252MOL     C340665   3.029   5.784   4.529 -0.0983  0.0398 -0.3302
  252MOL     O440666   3.051   5.664   4.557  0.2298 -0.0617  0.3268
  252MOL     H540667   2.792   5.714   4.695 -1.0534  0.5204  1.1094
  252MOL     H640668   2.936   5.775   4.774 -0.0274  0.7399  0.3593
  252MOL     H740669   2.934   5.967   4.601  1.8603 -0.7649  0.6246
  252MOL     H840670   2.826   5.856   4.521 -0.2138  0.3755  0.9861
  252MOL     H940671   2.787   5.863   4.795 -1.2461  0.3730 -1.6898
  252MOL    C1040672   3.118   5.865   4.433 -0.2211  0.4743  0.6490
  252MOL    C1140673   3.231   5.779   4.377 -0.0853  0.4938 -0.1782
  252MOL    C1240674   3.293   5.832   4.247  0.2262 -0.1291  0.4192
  252MOL    O1340675   3.269   5.947   4.209 -0.2888 -0.6789  0.0113
  252MOL    H1440676   3.167   5.945   4.488 -0.5595  1.6751 -0.7623
  252MOL    H1540677   3.061   5.910   4.352  1.2655  0.2076 -0.5604
  252MOL    H1640678   3.211   5.672   4.366  4.5882 -0.3816 -0.9318
  252MOL    H1740679   3.309   5.781   4.453  1.4627  0.3880 -1.7298
  252MOL    C1840680   3.383   5.739   4.158  0.7008 -0.2798 -0.4040
  252MOL    C1940681   3.390   5.799   4.015 -0.3076 -0.0344 -0.5515
  252MOL    C2040682   3.490   5.916   4.004  0.1290  0.3612 -0.2729
  252MOL    O2140683   3.558   5.959   4.106  0.0976  0.2755 -0.4795
  252MOL    H2240684   3.323   5.648   4.159  1.1757 -0.6039 -1.3084
  252MOL    H2340685   3.478   5.714   4.205  0.2983  2.1339  1.8079
  252MOL    H2440686   3.289   5.831   3.990 -1.2162 -1.2241  1.5121
  252MOL    H2540687   3.419   5.719   3.946  0.0395  0.5984 -1.1475
  252MOL    C2640688   3.509   5.985   3.874 -0.1130 -0.5594  0.5977
  252MOL    C2740689   3.532   6.140   3.878  0.1279  0.3863 -0.1651
  252MOL    C2840690   3.680   6.168   3.902  0.1255  0.5162 -0.3596
  252MOL    O2940691   3.757   6.089   3.870 -0.6747  0.0392 -0.2379
  252MOL    H3040692   3.420   5.959   3.816 -0.9414 -0.2125  1.7005
  252MOL    H3140693   3.582   5.929   3.817  0.2263 -1.6595  2.0929
  252MOL    H3240694   3.479   6.178   3.966 -0.3277 -0.6018 -0.0127
  252MOL    H3340695   3.499   6.188   3.785  0.8413 -2.0655 -1.7069
  252MOL    C3440696   3.710   6.306   3.964 -0.2074 -0.0811  0.2017
  252MOL    C3540697   3.823   6.298   4.066 -0.1648 -0.0794 -0.1040
  252MOL    C3640698   3.775   6.283   4.211  0.7686  0.8099  0.6497
  252MOL    O3740699   3.681   6.345   4.252  0.0853  0.4064  0.3451
  252MOL    H3840700   3.629   6.352   4.020 -0.6208  0.6306 -0.9720
  252MOL    H3940701   3.742   6.370   3.882 -0.7537 -0.4225 -0.2824
  252MOL    H4040702   3.881   6.389   4.056  0.7239 -0.6702 -0.4241
  252MOL    H4140703   3.883   6.207   4.052  0.6009  0.4377 -0.1863
  252MOL    C4240704   3.855   6.193   4.302  0.0988 -0.2477 -0.2066
  252MOL    C4340705   3.802   6.054   4.319  0.5881  0.0919 -0.6452
  252MOL    C4440706   3.740   6.020   4.449 -0.1081 -0.4480  0.0422
  252MOL    O4540707   3.719   6.113   4.527 -0.3493  0.0003  0.6125
  252MOL    H4640708   3.866   6.247   4.397 -2.3052 -1.2720  0.6786
  252MOL    H4740709   3.956   6.191   4.260  0.0623 -3.0574 -0.2392
  252MOL    H4840710   3.881   5.979   4.310  0.7427  0.1116  0.5266
  252MOL    H4940711   3.734   6.034   4.236  1.3848  1.0481 -1.5611
  252MOL    C5040712   3.691   5.877   4.476  0.2167 -1.0012 -0.7075
  252MOL    C5140713   3.701   5.842   4.628 -0.7479  0.0447  0.3504
  252MOL    C5240714   3.567   5.831   4.690  0.9639  0.5322 -0.1386
  252MOL    O5340715   3.462   5.805   4.625  0.0021 -0.2126 -0.0853
  252MOL    H5440716   3.753   5.819   4.408 -0.4019 -1.7980 -0.5875
  252MOL    H5540717   3.596   5.860   4.426 -0.5950 -0.1081  0.5038
  252MOL    H5640718   3.753   5.913   4.692 -0.0853 -0.7103  0.6630
  252MOL    H5740719   3.773   5.759   4.633 -1.1130 -0.2158  1.3360
  252MOL    C5840720   3.561   5.845   4.843 -0.1282 -0.0285 -0.5419
  252MOL    C5940721   3.432   5.796   4.915 -0.0039  0.2986 -0.1016
  252MOL    C6040722   3.316   5.897   4.912  0.2190  0.1270 -0.0875
  252MOL    O6140723   3.320   6.008   4.868 -0.2106 -0.4097 -0.2622
  252MOL    H6240724   3.567   5.953   4.857  0.3935 -0.5491  3.8861
  252MOL    H6340725   3.656   5.810   4.883 -1.4734 -1.4604  1.4619
  252MOL    H6440726   3.450   5.784   5.022  2.7456  0.8958 -0.4576
  252MOL    H6540727   3.410   5.694   4.884 -0.6729 -0.0753  1.5653
  252MOL    C6640728   3.190   5.855   4.978  0.3108  0.2241  0.7099
  252MOL    C6740729   3.090   5.973   4.993 -0.4198  0.6951  0.1073
  252MOL    C6840730   2.971   5.933   5.082  0.2353 -0.4557 -0.4353
  252MOL    O6940731   2.942   5.813   5.095 -0.2109  0.4571  0.1746
  252MOL    H7040732   3.222   5.814   5.074 -3.4422 -1.3694  1.3344
  252MOL    H7140733   3.138   5.771   4.932 -1.2696  1.5957 -0.0314
  252MOL    H7240734   3.055   5.999   4.893 -0.4327  0.2141 -0.0129
  252MOL    H7340735   3.131   6.059   5.046  0.8816 -0.8192  1.5797
  252MOL    C7440736   2.887   6.049   5.144 -0.2957 -0.1448 -0.1325
  252MOL    C7540737   2.808   6.004   5.267  0.5085 -0.0450  0.3440
  252MOL    C7640738   2.668   5.961   5.233  0.1880 -0.8356 -0.4779
  252MOL    O7740739   2.639   5.914   5.122  0.1848  0.6405  0.1893
  252MOL    H7840740   2.811   6.082   5.073 -0.0496 -2.8427 -1.7183
  252MOL    H7940741   2.952   6.132   5.172  0.9909 -1.5877  1.2793
  252MOL    H8040742   2.820   6.080   5.344  3.7837 -1.2064  1.0687
  252MOL    H8140743   2.859   5.915   5.303  0.0697 -0.5048 -0.1632
  252MOL    C8240744   2.575   5.963   5.352 -0.8075 -0.7940 -0.3545
  252MOL    C8340745   2.441   6.032   5.337  0.5259  0.0128  0.7512
  252MOL    C8440746   2.332   5.949   5.268 -0.2184  0.5495  0.9295
  252MOL    O8540747   2.290   5.840   5.312  0.7296  0.0870  0.3351
  252MOL    H8640748   2.626   6.002   5.440 -0.9167  1.2467 -1.1876
  252MOL    H8740749   2.557   5.856   5.361  0.1486 -0.9539 -0.2181
  252MOL    H8840750   2.448   6.125   5.281 -1.9282  0.2370  0.7668
  252MOL    H8940751   2.417   6.054   5.441  0.0954  0.3655  0.5808
  252MOL    C9040752   2.274   6.000   5.139 -0.6500 -0.1062 -0.3858
  252MOL    C9140753   2.125   5.963   5.121  0.1424  0.0494 -0.6254
  252MOL    C9240754   2.049   6.049   5.018 -0.7013  0.0829 -0.1430
  252MOL    O9340755   2.076   6.168   4.993  0.2717  0.1677 -0.1945
  252MOL    H9440756   2.314   5.949   5.052 -0.0940 -0.1521 -0.1063
  252MOL    H9540757   2.298   6.106   5.128 -0.1217 -0.3284 -1.4211
  252MOL    H9640758   2.097   6.008   5.216  1.3211  0.9054 -0.6759
  252MOL    H9740759   2.101   5.856   5.116 -0.7343  0.1852  0.5990
  252MOL    C9840760   1.940   5.968   4.943  0.4656 -0.0329  0.0897
  252MOL    C9940761   1.858   6.054   4.846  0.6023  0.2939 -0.0686
  252MOL   C10040762   1.706   6.069   4.886  0.1507  0.0874 -0.2843
  252MOL   O10140763   1.621   5.998   4.837 -0.2589  0.3879 -0.0167
  252MOL   H10240764   1.876   5.920   5.017  2.2153 -2.5562  0.0327
  252MOL   H10340765   1.971   5.881   4.885 -3.2976  0.7097 -3.2568
  252MOL   H10440766   1.863   5.999   4.752 -1.0121 -0.2489  0.1475
  252MOL   H10540767   1.894   6.156   4.828 -1.0088  0.8454 -0.2727
  252MOL   C10640768   1.667   6.161   5.002 -0.6548  0.6243 -0.3353
  252MOL   C10740769   1.631   6.082   5.132 -0.5021  0.5129 -0.8269
  252MOL   C10840770   1.739   6.094   5.237  0.0264 -0.4574 -0.1871
  252MOL   O10940771   1.833   6.167   5.211 -0.1326 -0.1389  0.1451
  252MOL   H11040772   1.580   6.219   4.971 -2.1408 -0.9109  0.8639
  252MOL   H11140773   1.752   6.229   5.008  0.1442 -0.2886 -1.1470
  252MOL   H11240774   1.621   5.975   5.111 -1.4228  0.8724 -2.2588
  252MOL   H11340775   1.540   6.117   5.181  0.7982  1.8858  0.6393
  252MOL   C11440776   1.726   6.000   5.355 -0.1327 -0.5269  0.3585
  252MOL   C11540777   1.865   5.966   5.426  0.5551 -0.1175 -0.1812
  252MOL   C11640778   1.926   6.076   5.513 -0.3359 -0.4610 -0.2005
  252MOL   O11740779   1.860   6.134   5.599  0.3911  0.3902  0.3484
  252MOL   H11840780   1.679   5.911   5.315  0.3584 -0.7600  0.2927
  252MOL   H11940781   1.643   6.024   5.422  1.0090  0.5196  1.4277
  252MOL   H12040782   1.942   5.942   5.352  0.9408 -3.4268  1.1882
  252MOL   H12140783   1.864   5.874   5.485 -0.1790 -1.0485 -1.5885
  252MOL   C12240784   2.065   6.125   5.480  0.0874  0.4853  0.1596
  252MOL   C12340785   2.085   6.268   5.524  0.6551  0.0341 -0.2732
  252MOL   C12440786   2.196   6.336   5.450  0.0095  0.2406 -0.0362
  252MOL   O12540787   2.235   6.296   5.337 -0.3029  0.1472 -0.5313
  252MOL   H12640788   2.090   6.105   5.376 -1.0414  1.5996 -0.3515
  252MOL   H12740789   2.135   6.070   5.542 -0.4663 -2.1102 -1.4528
  252MOL   H12840790   2.102   6.277   5.631  3.1312 -1.2274 -0.5150
  252MOL   H12940791   1.996   6.324   5.495  0.5493  0.7817  1.4420
  252MOL   C13040792   2.258   6.455   5.530 -0.1366  0.3136 -0.2245
  252MOL   C13140793   2.383   6.521   5.462  0.1822 -0.1950 -0.2990
  252MOL   C13240794   2.511   6.433   5.476 -0.2052  0.5078 -0.5407
  252MOL   O13340795   2.511   6.341   5.557 -0.2512 -0.5325  0.5743
  252MOL   H13440796   2.275   6.406   5.625  1.0389  0.6722 -0.2371
  252MOL   H13540797   2.174   6.523   5.537  0.5184  1.1857 -0.7097
  252MOL   H13640798   2.399   6.623   5.497  0.8737  0.1363 -1.5465
  252MOL   H13740799   2.364   6.522   5.354 -0.8245 -0.5343 -0.1284
  252MOL   C13840800   2.631   6.468   5.386 -0.4969  0.0464  0.4080
  252MOL   C13940801   2.745   6.358   5.401  0.1202 -0.3866  0.0914
  252MOL   C14040802   2.892   6.396   5.401 -0.1007 -0.1495  0.2088
  252MOL   O14140803   2.931   6.509   5.359  0.6535 -0.1571 -0.0897
  252MOL   H14240804   2.674   6.565   5.411 -1.5502  0.4164  0.8135
  252MOL   H14340805   2.587   6.464   5.287  1.1637  2.6822 -0.4864
  252MOL   H14440806   2.735   6.283   5.323  0.0674  1.8279 -2.1128
  252MOL   H14540807   2.721   6.311   5.496  0.8809 -1.8023 -0.4057
  252MOL   C14640808   3.003   6.295   5.437 -0.1130  0.0424 -0.0014
  252MOL   C14740809   3.141   6.357   5.465  0.3090 -0.2200  0.4408
  252MOL   C14840810   3.226   6.288   5.568 -0.2167 -0.1040 -0.1428
  252MOL   O14940811   3.171   6.221   5.653 -0.1574 -0.6847 -0.3343
  252MOL   H15040812   3.012   6.223   5.355  2.4738 -0.0047  0.2838
  252MOL   H15140813   2.969   6.241   5.526 -1.4535  1.7663  0.5467
  252MOL   H15240814   3.131   6.463   5.488  1.3962 -0.2689  1.2059
  252MOL   H15340815   3.198   6.348   5.372  0.2561  1.9955  0.1588
  252MOL   C15440816   3.378   6.302   5.560  0.5926  0.1794  0.5329
  252MOL   C15540817   3.457   6.248   5.685 -0.1094  0.4479 -0.2392
  252MOL   C15640818   3.610   6.256   5.676  0.1871  0.0926  0.4462
  252MOL   O15740819   3.669   6.369   5.699 -0.3159  0.3235 -0.1605
  252MOL   H15840820   3.393   6.410   5.557 -0.8276  0.3482 -2.4365
  252MOL   H15940821   3.417   6.260   5.468  2.2874  0.5859  1.0341
  252MOL   H16040822   3.437   6.148   5.723 -1.8828  0.6127 -0.6793
  252MOL   H16140823   3.432   6.308   5.772 -2.6811 -2.1317  0.8726
  252MOL   H16240824   3.648   6.162   5.636  0.4783 -0.1845  1.3468
  253MOL     C140825   1.124   0.483   1.324 -0.5901 -0.1226  0.7514
  253MOL     C240826   1.150   0.540   1.181  0.3072 -0.0155 -0.3797
  253MOL     C340827   1.201   0.686   1.189 -0.0531  0.2602  0.7797
  253MOL     O440828   1.274   0.729   1.277 -0.4160 -0.3293  0.2809
  253MOL     H540829   1.082   0.562   1.385  0.5521  0.9479  0.1747
  253MOL     H640830   1.050   0.403   1.312 -0.4490  0.1387 -2.3283
  253MOL     H740831   1.059   0.552   1.122 -1.1138 -1.7020  1.4256
  253MOL     H840832   1.220   0.486   1.117  2.6938  1.4087  0.9685
  253MOL     H940833   1.218   0.438   1.357 -0.3649  0.8467  1.4422
  253MOL    C1040834   1.174   0.761   1.064 -0.2273 -0.0026  0.2930
  253MOL    C1140835   1.263   0.882   1.033 -0.0430 -1.2153  0.0455
  253MOL    C1240836   1.229   0.948   0.902 -0.0913  0.1854 -0.3860
  253MOL    O1340837   1.113   0.957   0.860  0.6908 -0.1566  0.4034
  253MOL    H1440838   1.069   0.787   1.076 -0.8836 -1.5897 -1.6383
  253MOL    H1540839   1.171   0.694   0.978  0.7338  0.4459 -0.1032
  253MOL    H1640840   1.361   0.839   1.012  0.2717 -0.0298 -0.9302
  253MOL    H1740841   1.261   0.939   1.126 -1.4172 -0.2284 -0.5754
  253MOL    C1840842   1.339   1.032   0.840 -0.6471 -0.5549  0.2475
  253MOL    C1940843   1.423   0.945   0.744  0.5863  0.0154 -0.4579
  253MOL    C2040844   1.474   1.022   0.626 -0.3004 -0.0446  0.9241
  253MOL    O2140845   1.522   1.140   0.634  0.3963 -0.3424  0.2475
  253MOL    H2240846   1.406   1.067   0.919 -1.7703  0.6041  0.6965
  253MOL    H2340847   1.300   1.121   0.791 -0.6710 -1.0571 -0.6559
  253MOL    H2440848   1.370   0.851   0.726 -0.5297  0.8214 -1.4601
  253MOL    H2540849   1.507   0.906   0.801 -1.1308 -1.0659  1.4259
  253MOL    C2640850   1.463   0.956   0.493  0.3354 -0.6256  0.5488
  253MOL    C2740851   1.596   0.938   0.427  0.1347  0.0967  0.6851
  253MOL    C2840852   1.609   0.806   0.356 -0.4216  0.1045 -0.5987
  253MOL    O2940853   1.600   0.698   0.426  0.2995  0.1832  0.1451
  253MOL    H3040854   1.409   1.021   0.424  2.7127 -0.3317 -1.1186
  253MOL    H3140855   1.406   0.864   0.496 -0.9118  0.0639 -0.8637
  253MOL    H3240856   1.683   0.950   0.493 -1.0093 -0.3994  2.3232
  253MOL    H3340857   1.591   1.017   0.353  0.3003 -1.7592 -1.3479
  253MOL    C3440858   1.604   0.795   0.204 -0.1542 -0.1641  0.0294
  253MOL    C3540859   1.596   0.653   0.142 -0.0823 -0.2417 -0.3862
  253MOL    C3640860   1.693   0.647   0.029 -0.1629  0.0419 -0.1935
  253MOL    O3740861   1.696   0.737   7.800  0.0113 -0.3694 -0.4116
  253MOL    H3840862   1.693   0.843   0.164  0.6006 -1.7900 -0.3140
  253MOL    H3940863   1.521   0.858   0.175  1.7884  0.3670 -4.7780
  253MOL    H4040864   1.493   0.632   0.112 -0.3143  0.5526 -0.1593
  253MOL    H4140865   1.624   0.573   0.210 -0.3591  0.4928  0.6103
  253MOL    C4240866   1.798   0.536   0.028  0.1020  0.5969  0.0011
  253MOL    C4340867   1.882   0.546   7.758 -0.7078  0.3220  0.2878
  253MOL    C4440868   1.920   0.412   7.681  0.2925  0.4846 -0.5140
  253MOL    O4540869   1.886   0.304   7.727 -0.1854  0.4845  0.4578
  253MOL    H4640870   1.752   0.437   0.024  0.6105  0.4080 -1.7105
  253MOL    H4740871   1.857   0.538   0.119  4.2921  1.7885 -2.5969
  253MOL    H4840872   1.973   0.599   7.786 -0.0393 -0.8569  0.4286
  253MOL    H4940873   1.837   0.607   7.680  0.8074 -1.0998 -1.7770
  253MOL    C5040874   1.983   0.433   7.536 -0.8507  0.3838  0.0506
  253MOL    C5140875   2.058   0.308   7.484 -0.2526  0.6505 -0.8960
  253MOL    C5240876   2.129   0.340   7.355  0.3603  0.2315 -0.2030
  253MOL    O5340877   2.150   0.262   7.264 -0.1831  0.6656 -0.3495
  253MOL    H5440878   2.052   0.517   7.543  1.0702 -1.2168  0.7584
  253MOL    H5540879   1.901   0.452   7.467 -0.7115 -0.6564 -0.4142
  253MOL    H5640880   1.987   0.227   7.470 -0.2255  0.5953 -0.7185
  253MOL    H5740881   2.129   0.278   7.561 -1.2221 -2.6970 -1.2498
  253MOL    C5840882   2.213   0.474   7.350  0.7665 -0.2548  0.0284
  253MOL    C5940883   2.299   0.483   7.224 -0.1195 -0.2460 -0.5756
  253MOL    C6040884   2.419   0.585   7.219 -0.6991  0.0096  0.0367
  253MOL    O6140885   2.435   0.654   7.320 -0.5110  0.0650 -0.4166
  253MOL    H6240886   2.279   0.481   7.437 -0.0876  0.7726  0.5959
  253MOL    H6340887   2.141   0.555   7.350  1.0841  0.0557  2.0091
  253MOL    H6440888   2.240   0.512   7.136 -1.9746  0.6230  0.9058
  253MOL    H6540889   2.348   0.390   7.196  0.5097 -0.2402  0.4921
  253MOL    C6640890   2.511   0.585   7.100  1.2856 -0.2028  0.2566
  253MOL    C6740891   2.615   0.700   7.107 -0.0876  0.0568  0.2344
  253MOL    C6840892   2.562   0.837   7.060 -0.6053  0.4292  0.1154
  253MOL    O6940893   2.438   0.841   7.039 -0.0492 -0.2919 -0.0089
  253MOL    H7040894   2.462   0.585   7.002  2.0291  0.2380 -0.1183
  253MOL    H7140895   2.571   0.494   7.101  0.4348 -0.7705  0.2832
  253MOL    H7240896   2.697   0.663   7.045 -0.5247  0.4472 -0.5902
  253MOL    H7340897   2.654   0.705   7.208 -3.5861 -1.3948  1.7238
  253MOL    C7440898   2.648   0.955   7.061 -0.4976  0.1011 -0.6350
  253MOL    C7540899   2.580   1.085   7.028  0.0004  0.7630  0.7168
  253MOL    C7640900   2.633   1.143   6.898 -0.0690 -0.9034 -0.8286
  253MOL    O7740901   2.721   1.091   6.838 -0.0826  0.3426  0.6696
  253MOL    H7840902   2.722   0.927   6.985  0.3869  0.6519  0.0034
  253MOL    H7940903   2.707   0.980   7.149  1.5998  1.6906 -2.4141
  253MOL    H8040904   2.601   1.156   7.107 -2.2631  1.0690  1.0941
  253MOL    H8140905   2.472   1.072   7.018  0.3067 -1.8081  0.1857
  253MOL    C8240906   2.583   1.279   6.864 -0.0319  0.2816  0.5714
  253MOL    C8340907   2.625   1.325   6.725 -0.2673  0.2130  0.1543
  253MOL    C8440908   2.510   1.410   6.665  0.2860  0.2371 -0.3183
  253MOL    O8540909   2.389   1.394   6.675  0.1647  0.2722  0.5149
  253MOL    H8640910   2.625   1.343   6.941  0.7352 -0.2184  0.5669
  253MOL    H8740911   2.477   1.278   6.888  0.2243  0.7253  1.7661
  253MOL    H8840912   2.642   1.242   6.657 -1.1378 -0.1025  0.3141
  253MOL    H8940913   2.717   1.381   6.740  0.1688 -0.5638  0.3489
  253MOL    C9040914   2.563   1.518   6.578 -0.0409  0.2641  0.2906
  253MOL    C9140915   2.492   1.654   6.566  0.1083 -0.6669 -0.0391
  253MOL    C9240916   2.419   1.702   6.692 -0.4923  0.3095  0.0854
  253MOL    O9340917   2.454   1.694   6.812 -0.0969  0.1895  0.2924
  253MOL    H9440918   2.580   1.470   6.482  1.3126 -0.7915  1.0401
  253MOL    H9540919   2.668   1.540   6.601 -0.7417  1.0969  2.8463
  253MOL    H9640920   2.415   1.642   6.490  0.2306 -1.6524 -0.0135
  253MOL    H9740921   2.557   1.731   6.523 -1.4752  0.3260 -0.6987
  253MOL    C9840922   2.272   1.739   6.665 -0.1816 -0.1652  0.1635
  253MOL    C9940923   2.178   1.734   6.785  0.7554 -0.2521 -0.5962
  253MOL   C10040924   2.115   1.598   6.805  0.2399 -0.8800 -0.2257
  253MOL   O10140925   2.025   1.550   6.732 -0.0369  1.0479  0.0047
  253MOL   H10240926   2.230   1.683   6.582  2.2659 -0.2959 -1.0269
  253MOL   H10340927   2.266   1.839   6.622  2.6683  0.4906  1.1524
  253MOL   H10440928   2.099   1.809   6.787  0.1097 -0.9178 -0.8033
  253MOL   H10540929   2.241   1.760   6.869  1.3187 -1.2262 -0.7110
  253MOL   C10640930   2.165   1.515   6.921 -0.2059  0.1830 -0.8023
  253MOL   C10740931   2.096   1.387   6.963 -0.3781  0.0952 -0.0746
  253MOL   C10840932   2.169   1.266   6.897 -0.0164  0.1927 -0.2478
  253MOL   O10940933   2.263   1.215   6.954  0.0293 -0.0902  0.2227
  253MOL   H11040934   2.183   1.582   7.005 -2.4314  1.4782 -1.3087
  253MOL   H11140935   2.268   1.493   6.894 -0.0578  0.4457 -0.4545
  253MOL   H11240936   1.992   1.398   6.932  0.7342  2.1749 -3.3503
  253MOL   H11340937   2.110   1.382   7.071  0.9551 -0.7744 -0.2681
  253MOL   C11440938   2.127   1.219   6.758 -0.4244 -0.9624 -0.3731
  253MOL   C11540939   1.980   1.183   6.750 -0.1105 -0.4365  0.0395
  253MOL   C11640940   1.902   1.228   6.622 -0.3446  0.2084  0.6423
  253MOL   O11740941   1.965   1.271   6.525  0.0376  0.0562 -0.1100
  253MOL   H11840942   2.203   1.147   6.729  1.0473 -1.1705  3.6665
  253MOL   H11940943   2.160   1.297   6.689  1.0232  1.6139  3.1114
  253MOL   H12040944   1.923   1.238   6.826 -2.8639 -1.4546 -1.2414
  253MOL   H12140945   1.966   1.081   6.784  0.9552 -0.6850 -0.2264
  253MOL   C12240946   1.753   1.239   6.635  0.2831 -0.6227  0.0193
  253MOL   C12340947   1.676   1.309   6.518 -0.5540 -0.0641  0.4786
  253MOL   C12440948   1.648   1.457   6.536 -0.1033 -0.4451  0.4209
  253MOL   O12540949   1.609   1.507   6.644  0.3591  0.1273 -0.4045
  253MOL   H12640950   1.737   1.291   6.729 -0.3112 -0.5815 -0.1013
  253MOL   H12740951   1.723   1.135   6.646  0.9568 -0.7067  1.1621
  253MOL   H12840952   1.576   1.264   6.522  0.5290 -2.5112  1.4212
  253MOL   H12940953   1.721   1.290   6.421  0.8021 -1.2970  1.3267
  253MOL   C13040954   1.689   1.542   6.419 -0.7380  1.0302 -0.3528
  253MOL   C13140955   1.837   1.570   6.416 -0.7125 -0.3044 -0.0446
  253MOL   C13240956   1.888   1.677   6.316  0.2827 -0.2116  0.1376
  253MOL   O13340957   1.808   1.719   6.235 -0.3483 -0.2705  0.0041
  253MOL   H13440958   1.631   1.634   6.412 -3.0612 -0.0379  3.2950
  253MOL   H13540959   1.664   1.481   6.332  2.6896 -2.9546  1.2766
  253MOL   H13640960   1.891   1.482   6.381  1.7273  0.3504  1.9619
  253MOL   H13740961   1.872   1.604   6.513  0.0591 -0.5447 -0.2354
  253MOL   C13840962   2.039   1.706   6.324 -0.2332  0.4041 -0.9349
  253MOL   C13940963   2.093   1.804   6.218  0.4107  0.5321 -0.1868
  253MOL   C14040964   2.177   1.917   6.275 -0.4726  1.0355 -0.2581
  253MOL   O14140965   2.121   2.022   6.308  0.0736  0.5624  0.6522
  253MOL   H14240966   2.093   1.612   6.314  0.5404  0.3797  2.7378
  253MOL   H14340967   2.050   1.746   6.425 -0.4005 -2.2181  0.1460
  253MOL   H14440968   2.010   1.858   6.170  0.1380  1.5479  1.3859
  253MOL   H14540969   2.148   1.746   6.144  0.7536 -0.3872  0.7803
  253MOL   C14640970   2.326   1.895   6.288  0.0298  0.0296  0.1072
  253MOL   C14740971   2.409   2.025   6.292  0.0300 -0.3632  0.0539
  253MOL   C14840972   2.504   2.026   6.411 -0.3406 -0.3049 -0.3419
  253MOL   O14940973   2.461   2.006   6.527 -0.1772 -0.4204  0.9754
  253MOL   H15040974   2.344   1.834   6.200  1.7393 -0.1868  0.5919
  253MOL   H15140975   2.350   1.843   6.381  1.0183  0.4019  0.0617
  253MOL   H15240976   2.337   2.107   6.291 -2.2477 -2.2809  0.8741
  253MOL   H15340977   2.467   2.039   6.201  0.8734  1.7008  0.8728
  253MOL   C15440978   2.647   2.066   6.386 -0.7088 -0.4972 -0.4528
  253MOL   C15540979   2.743   2.013   6.494 -0.5097  0.1124  0.7246
  253MOL   C15640980   2.860   2.102   6.521  0.4854 -0.4938  0.7814
  253MOL   O15740981   2.910   2.167   6.432 -0.3191 -0.1432 -0.1870
  253MOL   H15840982   2.641   2.174   6.402 -1.4610 -0.5329 -0.4626
  253MOL   H15940983   2.674   2.038   6.284 -2.2008  1.8233 -1.5288
  253MOL   H16040984   2.780   1.918   6.457 -1.1282  0.4783 -0.8874
  253MOL   H16140985   2.693   1.992   6.589 -0.9336 -0.1132  0.4510
  253MOL   H16240986   2.900   2.102   6.623  1.3486 -2.6531  0.4764
  254MOL     C140987   0.715   1.586   7.692 -0.0849 -0.0248  0.8427
  254MOL     C240988   0.785   1.722   7.713 -0.0865  0.6467  0.7150
  254MOL     C340989   0.712   1.839   7.651  0.3105 -0.6444  0.5952
  254MOL     O440990   0.611   1.822   7.584  0.3813  0.0010 -0.2207
  254MOL     H540991   0.633   1.575   7.763  1.4796  1.5010  2.9487
  254MOL     H640992   0.659   1.576   7.599 -0.4436 -0.1709  1.0767
  254MOL     H740993   0.884   1.722   7.666 -0.6299  0.5956 -0.4393
  254MOL     H840994   0.802   1.736   7.820  0.6900 -0.1007  0.6950
  254MOL     H940995   0.783   1.501   7.697  1.9922  1.3547 -1.9522
  254MOL    C1040996   0.776   1.979   7.691  0.1103  0.1591 -0.2596
  254MOL    C1140997   0.667   2.080   7.733 -0.0800 -0.5047  0.8868
  254MOL    C1240998   0.617   2.168   7.617 -0.5397  0.2357 -0.2342
  254MOL    O1340999   0.647   2.147   7.504  0.4751 -0.0330  0.2501
  254MOL    H1441000   0.846   2.011   7.614 -0.8149 -0.1242 -1.2357
  254MOL    H1541001   0.832   1.962   7.783  3.2628 -0.0122 -2.1322
  254MOL    H1641002   0.704   2.143   7.814  0.9183 -0.5648  0.4867
  254MOL    H1741003   0.581   2.031   7.776 -0.5445  0.6891  1.3426
  254MOL    C1841004   0.552   2.303   7.656 -0.0164 -0.3090  0.6150
  254MOL    C1941005   0.426   2.343   7.577 -0.3120  0.5825 -0.5009
  254MOL    C2041006   0.410   2.494   7.562 -0.7799  0.6441  0.5122
  254MOL    O2141007   0.501   2.566   7.586 -0.1221 -0.5110 -0.1706
  254MOL    H2241008   0.629   2.380   7.645 -0.9659  0.5506 -0.1766
  254MOL    H2341009   0.528   2.290   7.761 -2.4638 -0.2116  0.1131
  254MOL    H2441010   0.334   2.292   7.605  0.2728  0.4248  1.2033
  254MOL    H2541011   0.444   2.310   7.475 -0.1498 -1.8250  0.2733
  254MOL    C2641012   0.273   2.552   7.509 -0.4104  0.3907  0.2727
  254MOL    C2741013   0.267   2.707   7.496  0.2274  0.0791  0.7898
  254MOL    C2841014   0.161   2.770   7.593  0.0713 -0.2362  0.2152
  254MOL    O2941015   0.074   2.703   7.653 -0.4837 -0.0519 -0.2285
  254MOL    H3041016   0.186   2.504   7.555  0.4273 -1.3720  0.0565
  254MOL    H3141017   0.258   2.519   7.406  0.7096 -0.1611  0.2920
  254MOL    H3241018   0.239   2.725   7.392  1.4604 -1.5229  0.1731
  254MOL    H3341019   0.367   2.750   7.503 -0.2822  1.5260 -0.4362
  254MOL    C3441020   0.150   2.924   7.600 -0.5223  0.0966  0.1691
  254MOL    C3541021   0.012   2.977   7.558  0.2439 -0.1702  0.3427
  254MOL    C3641022   0.020   3.050   7.422  0.3040 -0.1783  0.0660
  254MOL    O3741023   0.032   3.172   7.414  0.1269 -0.4423  0.0175
  254MOL    H3841024   0.228   2.965   7.536 -0.2801 -2.1068 -1.0150
  254MOL    H3941025   0.177   2.967   7.696 -2.3434  2.6687 -0.4119
  254MOL    H4041026   7.830   3.032   7.643  1.3631  0.1723  0.6761
  254MOL    H4141027   7.802   2.893   7.550 -1.5350  0.9011  3.4697
  254MOL    C4241028   7.850   2.958   7.305 -0.3740 -0.2410  0.7371
  254MOL    C4341029   7.845   3.032   7.170  0.3869  0.2247  0.0501
  254MOL    C4441030   0.007   2.931   7.053  0.1789 -0.2250 -0.4349
  254MOL    O4541031   0.028   2.814   7.088 -0.6286 -0.2066 -0.1292
  254MOL    H4641032   7.763   2.900   7.335 -1.8830  0.8353 -1.4195
  254MOL    H4741033   0.068   2.882   7.318  2.3149  2.3283  0.3019
  254MOL    H4841034   0.065   3.106   7.158 -0.1321  0.4716 -2.0359
  254MOL    H4941035   7.754   3.093   7.171 -0.3618 -0.8793 -0.3688
  254MOL    C5041036   7.850   2.983   6.917 -0.0270 -0.2443  0.5211
  254MOL    C5141037   0.072   2.898   6.824 -0.3070  0.4860  0.0843
  254MOL    C5241038   0.092   2.966   6.687  1.2514  0.5351 -0.2123
  254MOL    O5341039   0.112   3.084   6.676  0.1140  0.0570 -0.1021
  254MOL    H5441040   0.023   3.086   6.929 -0.0349  0.1224 -2.2604
  254MOL    H5541041   7.749   2.977   6.878  0.0661  1.1457  0.0635
  254MOL    H5641042   0.023   2.802   6.810 -1.2903  0.9410  0.4205
  254MOL    H5741043   0.170   2.877   6.868 -0.4611 -3.0060 -1.0624
  254MOL    C5841044   0.075   2.878   6.569  0.2541 -0.7214 -0.2019
  254MOL    C5941045   0.067   2.966   6.439  0.1451  0.5076  0.4850
  254MOL    C6041046   7.789   2.991   6.384  0.5629 -0.2147  0.5245
  254MOL    O6141047   7.732   2.909   6.308  0.0892  0.0429 -0.0372
  254MOL    H6241048   7.838   2.828   6.581  0.5768 -1.9523 -2.4282
  254MOL    H6341049   0.153   2.802   6.576  1.4798  0.5874  0.7077
  254MOL    H6441050   0.130   2.900   6.379  1.0782  0.7761  1.1484
  254MOL    H6541051   0.133   3.052   6.450  0.9733 -0.0069 -0.4124
  254MOL    C6641052   7.725   3.117   6.430  0.7083 -0.2545 -0.3740
  254MOL    C6741053   7.579   3.139   6.375  0.1246  0.7601  0.1732
  254MOL    C6841054   7.512   3.268   6.404 -0.6348  0.2063 -0.4412
  254MOL    O6941055   7.568   3.349   6.481  0.8047 -0.5557 -1.1767
  254MOL    H7041056   7.789   3.192   6.384  0.9271 -0.8341 -1.0309
  254MOL    H7141057   7.740   3.134   6.536 -1.3151 -4.3281  0.6761
  254MOL    H7241058   7.516   3.065   6.423  0.5039  1.8547  2.4059
  254MOL    H7341059   7.562   3.124   6.268  0.6758 -0.1359  0.2040
  254MOL    C7441060   7.382   3.299   6.338 -0.3315 -0.4434  0.5210
  254MOL    C7541061   7.257   3.238   6.403 -0.2317  0.5541 -0.2136
  254MOL    C7641062   7.228   3.098   6.351 -0.1074  0.2408 -0.2025
  254MOL    O7741063   7.238   3.004   6.432  0.2933 -0.0153  0.0502
  254MOL    H7841064   7.380   3.277   6.231 -0.1141 -0.3856  0.5029
  254MOL    H7941065   7.376   3.408   6.341  0.4788 -0.4405  4.9623
  254MOL    H8041066   7.170   3.303   6.394  0.5394  1.4358 -1.4801
  254MOL    H8141067   7.278   3.230   6.509  0.1015  0.0730 -0.3154
  254MOL    C8241068   7.176   3.088   6.207 -0.1346 -0.4193  0.2192
  254MOL    C8341069   7.101   2.948   6.177  0.0180  0.1961 -0.0381
  254MOL    C8441070   7.017   2.957   6.041  0.0821  0.3045 -0.4318
  254MOL    O8541071   7.074   2.980   5.939  0.4322  0.0052  0.5139
  254MOL    H8641072   7.256   3.104   6.134 -0.0345  0.5551  0.5477
  254MOL    H8741073   7.098   3.162   6.190 -0.2274 -0.8779 -1.4741
  254MOL    H8841074   7.038   2.910   6.258  1.8954 -1.1719  0.8180
  254MOL    H8941075   7.174   2.869   6.160 -1.0183 -0.3851 -1.9539
  254MOL    C9041076   6.863   2.936   6.047  0.6419  0.3806 -0.2914
  254MOL    C9141077   6.807   2.988   5.909 -0.1067 -0.4575 -0.1740
  254MOL    C9241078   6.652   2.985   5.892 -0.1864 -0.6726 -0.0332
  254MOL    O9341079   6.571   2.961   5.982 -0.0706 -0.2215 -0.2272
  254MOL    H9441080   6.830   2.988   6.137  2.5462 -0.4799  0.9230
  254MOL    H9541081   6.843   2.831   6.065 -1.1252  0.7672  0.1476
  254MOL    H9641082   6.847   2.945   5.817  0.5443 -0.9242  0.3272
  254MOL    H9741083   6.831   3.094   5.902  0.5000 -0.6204 -0.6547
  254MOL    C9841084   6.599   2.996   5.750 -1.0246  0.6088 -0.0133
  254MOL    C9941085   6.446   3.011   5.734 -0.1035  0.2851  0.2763
  254MOL   C10041086   6.399   3.108   5.626  0.7301  0.5509  0.2430
  254MOL   O10141087   6.472   3.170   5.551  0.0099 -1.1993  0.2003
  254MOL   H10241088   6.643   2.915   5.691 -3.7052 -0.9563  0.0853
  254MOL   H10341089   6.637   3.088   5.706 -1.3829  0.5173 -0.5196
  254MOL   H10441090   6.401   3.034   5.831 -0.2111  0.2499  0.2359
  254MOL   H10541091   6.409   2.912   5.705  1.6541 -0.2404 -0.2035
  254MOL   C10641092   6.245   3.107   5.606 -0.4178 -0.0353 -0.3957
  254MOL   C10741093   6.207   3.223   5.510  0.0982  0.1888  0.5542
  254MOL   C10841094   6.072   3.286   5.556  0.8638  0.8273 -0.1168
  254MOL   O10941095   6.011   3.242   5.651  0.0395  0.4054  0.3137
  254MOL   H11041096   6.210   3.118   5.709 -0.4608  0.1231 -0.4273
  254MOL   H11141097   6.214   3.007   5.578 -0.8542  0.1931 -0.7258
  254MOL   H11241098   6.193   3.188   5.407 -1.7066  2.3489  0.0100
  254MOL   H11341099   6.285   3.298   5.520 -1.7920  2.2274  0.4096
  254MOL   C11441100   6.011   3.401   5.470  0.2435  0.1533 -0.4383
  254MOL   C11541101   5.892   3.473   5.535 -1.0399 -0.2278 -0.0460
  254MOL   C11641102   5.764   3.404   5.554 -0.0883  0.2892 -0.2628
  254MOL   O11741103   5.726   3.318   5.479  0.4238 -0.0208 -0.3139
  254MOL   H11841104   5.975   3.346   5.383 -0.8316 -0.9594  0.6695
  254MOL   H11941105   6.088   3.474   5.448  0.7014 -0.1408  0.1644
  254MOL   H12041106   5.866   3.557   5.471 -0.0294 -0.0539 -0.2432
  254MOL   H12141107   5.927   3.517   5.629 -1.7735  0.3178 -0.0252
  254MOL   C12241108   5.685   3.432   5.678 -0.1899  0.3271 -0.0259
  254MOL   C12341109   5.684   3.309   5.774  0.9803 -0.6890 -0.3358
  254MOL   C12441110   5.658   3.355   5.917 -0.1963  0.2552 -0.1191
  254MOL   O12541111   5.627   3.474   5.946 -0.3862 -0.2335 -0.6115
  254MOL   H12641112   5.581   3.450   5.650  0.5004  0.9156 -2.3404
  254MOL   H12741113   5.725   3.521   5.727  1.8417 -0.0218 -1.0301
  254MOL   H12841114   5.785   3.266   5.778  1.0463 -0.4255  3.9688
  254MOL   H12941115   5.616   3.230   5.743  0.3835  0.0441 -0.8868
  254MOL   C13041116   5.683   3.248   6.028 -0.4260  0.2136  0.1769
  254MOL   C13141117   5.622   3.290   6.159  0.1011 -0.0371  0.1113
  254MOL   C13241118   5.715   3.358   6.260 -0.3556  0.5937 -0.6003
  254MOL   O13341119   5.817   3.418   6.226  0.3826  0.3007  0.0714
  254MOL   H13441120   5.790   3.243   6.044 -0.5143 -0.1616  0.6373
  254MOL   H13541121   5.647   3.146   6.018 -0.2861  0.4066 -2.6041
  254MOL   H13641122   5.588   3.205   6.218 -1.6354  0.7320  0.2577
  254MOL   H13741123   5.541   3.363   6.154  0.1418 -0.0662 -0.9925
  254MOL   C13841124   5.667   3.352   6.399 -0.2225 -0.1749  0.1405
  254MOL   C13941125   5.704   3.472   6.485 -0.6083  0.3511 -0.1220
  254MOL   C14041126   5.720   3.442   6.635  0.0561  0.0419  0.5560
  254MOL   O14141127   5.834   3.427   6.688  0.7184 -0.2894  0.0407
  254MOL   H14241128   5.707   3.259   6.440 -1.1013 -0.7019 -0.1799
  254MOL   H14341129   5.559   3.337   6.400 -0.4357  1.1476 -1.2710
  254MOL   H14441130   5.636   3.557   6.480  0.4320  1.3015  1.3615
  254MOL   H14541131   5.800   3.516   6.458  0.3468 -2.0364 -0.7845
  254MOL   C14641132   5.596   3.455   6.724 -0.9020  0.5784  0.2844
  254MOL   C14741133   5.634   3.448   6.879  0.4501 -0.0349  0.1479
  254MOL   C14841134   5.531   3.504   6.977  0.3203  0.3671 -0.6476
  254MOL   O14941135   5.422   3.548   6.943 -0.4441 -0.0431 -0.0269
  254MOL   H15041136   5.515   3.387   6.699  0.1148 -0.7312  0.5575
  254MOL   H15141137   5.562   3.557   6.702  0.0494  0.5045 -1.6732
  254MOL   H15241138   5.726   3.502   6.898 -0.5022  1.4078  0.6859
  254MOL   H15341139   5.662   3.343   6.891 -1.6591 -0.8110 -1.1832
  254MOL   C15441140   5.575   3.474   7.123  1.3777  0.1347  0.3976
  254MOL   C15541141   5.511   3.558   7.232  0.0582 -0.5593  0.2197
  254MOL   C15641142   5.379   3.501   7.281 -0.2860  0.5813 -0.7078
  254MOL   O15741143   5.346   3.381   7.275 -0.0748  0.2625  0.1194
  254MOL   H15841144   5.684   3.485   7.130  1.4330 -1.2260  1.9681
  254MOL   H15941145   5.569   3.370   7.155  1.8698  1.1187  4.0067
  254MOL   H16041146   5.516   3.666   7.217 -1.4950 -0.2546  1.8069
  254MOL   H16141147   5.576   3.550   7.318  0.1839 -0.5483  0.1264
  254MOL   H16241148   5.310   3.581   7.307 -1.0217 -0.9052  2.1386
  255MOL     C141149   0.948   2.376   7.515  0.2901 -0.2408 -0.6815
  255MOL     C241150   0.958   2.488   7.625 -0.2569 -0.3176  0.6517
  255MOL     C341151   0.923   2.446   7.768 -0.6551 -0.5059  0.2478
  255MOL     O441152   0.949   2.336   7.816 -0.5713 -0.5123 -0.0012
  255MOL     H541153   1.023   2.298   7.528 -0.7337 -1.0009  0.6803
  255MOL     H641154   0.853   2.326   7.526  0.4337 -0.4441 -0.3644
  255MOL     H741155   0.884   2.563   7.596 -0.1088 -0.4075  0.0343
  255MOL     H841156   1.053   2.539   7.613 -0.2407 -0.7706 -1.4993
  255MOL     H941157   0.956   2.420   7.415  1.0652 -0.1550 -0.5903
  255MOL    C1041158   0.852   2.559   7.846 -0.8892  0.7531  0.4367
  255MOL    C1141159   0.738   2.503   0.077 -0.2403 -0.4391 -0.4549
  255MOL    C1241160   0.622   2.599   0.100  1.0628 -0.7467  0.8869
  255MOL    O1341161   0.632   2.715   0.053  0.1618  0.2801 -0.0099
  255MOL    H1441162   0.806   2.629   7.776 -0.5063 -0.4621 -1.0675
  255MOL    H1541163   0.931   2.604   0.048  0.4053 -1.9445  0.7902
  255MOL    H1641164   0.771   2.479   0.178 -0.3716  2.7342  0.3755
  255MOL    H1741165   0.698   2.404   0.053 -2.3152  0.6811 -1.8566
  255MOL    C1841166   0.502   2.547   0.171  1.6130 -0.3902 -0.0684
  255MOL    C1941167   0.383   2.644   0.149 -0.7113 -0.3266 -0.4378
  255MOL    C2041168   0.367   2.752   0.264 -0.0161  0.0032  0.2380
  255MOL    O2141169   0.386   2.720   0.379 -0.0435 -0.3720  0.1144
  255MOL    H2241170   0.517   2.521   0.276 -0.0142 -2.7345 -0.3809
  255MOL    H2341171   0.476   2.450   0.128  1.5921  0.9346 -3.2029
  255MOL    H2441172   0.290   2.588   0.142 -0.0326 -1.3851 -1.0615
  255MOL    H2541173   0.383   2.687   0.049  0.3511 -0.8444 -0.6731
  255MOL    C2641174   0.312   2.883   0.226  0.5355 -0.0889  0.5239
  255MOL    C2741175   0.296   2.975   0.348  0.5071  0.3785  0.3614
  255MOL    C2841176   0.260   3.119   0.323  0.2382 -0.0777 -0.3290
  255MOL    O2941177   0.155   3.156   0.267 -0.5839  0.2519  0.1685
  255MOL    H3041178   0.213   2.859   0.187  1.4201 -1.7259 -0.7599
  255MOL    H3141179   0.363   2.934   0.144 -1.8731 -0.1280 -1.0452
  255MOL    H3241180   0.390   2.971   0.403  1.8943 -1.2171 -2.0625
  255MOL    H3341181   0.220   2.939   0.417  0.9301  1.9661  1.7046
  255MOL    C3441182   0.363   3.213   0.374 -0.3778  0.3892 -0.1352
  255MOL    C3541183   0.366   3.340   0.288 -0.2170 -0.2144  0.0514
  255MOL    C3641184   0.334   3.466   0.376 -0.4189  0.5988  0.5204
  255MOL    O3741185   0.245   3.460   0.463 -0.2238  0.3887  0.3276
  255MOL    H3841186   0.463   3.172   0.382 -1.1183 -1.7515 -1.4934
  255MOL    H3941187   0.322   3.233   0.474  2.5357 -1.6370  1.5396
  255MOL    H4041188   0.296   3.331   0.205  0.3943  0.0170 -0.4949
  255MOL    H4141189   0.467   3.335   0.249 -0.7772 -1.0078 -1.3365
  255MOL    C4241190   0.417   3.598   0.350 -0.4190  0.3824  0.1158
  255MOL    C4341191   0.385   3.720   0.442  0.0195  0.1907  0.1837
  255MOL    C4441192   0.384   3.848   0.358  0.2129 -0.2736 -0.1963
  255MOL    O4541193   0.293   3.874   0.285  0.7389  0.1326 -0.4525
  255MOL    H4641194   0.393   3.620   0.246 -0.6185  1.1623  0.3226
  255MOL    H4741195   0.522   3.572   0.360 -0.5454 -0.2828 -0.2817
  255MOL    H4841196   0.464   3.732   0.517  1.2058 -1.5826 -0.7629
  255MOL    H4941197   0.294   3.716   0.501  1.2951 -1.7994  2.1199
  255MOL    C5041198   0.503   3.935   0.352  0.4243  0.4361 -0.1333
  255MOL    C5141199   0.539   4.009   0.226 -0.2875  0.1857 -0.2841
  255MOL    C5241200   0.615   3.920   0.132 -0.4801 -0.4008 -0.1861
  255MOL    O5341201   0.629   3.800   0.161  0.1079 -0.3000  0.1005
  255MOL    H5441202   0.583   3.866   0.381 -0.8729 -2.8932 -3.9853
  255MOL    H5541203   0.494   4.010   0.430  2.4502  1.6318 -1.0027
  255MOL    H5641204   0.598   4.096   0.253  0.0255  0.3857 -1.6035
  255MOL    H5741205   0.454   4.050   0.172 -1.1710 -0.7011  0.4150
  255MOL    C5841206   0.662   3.990   0.002  0.0853  0.4263  0.2364
  255MOL    C5941207   0.548   3.996   7.750 -0.0417  0.1288 -0.2811
  255MOL    C6041208   0.583   3.936   7.612  0.6920  0.2385  0.1985
  255MOL    O6141209   0.699   3.913   7.586 -0.3813  0.2462 -0.0178
  255MOL    H6241210   0.737   3.920   7.823 -0.2107  0.1757  0.1142
  255MOL    H6341211   0.715   4.085   0.009  1.5386 -0.4430  1.3309
  255MOL    H6441212   0.522   4.101   7.735 -1.7344 -0.4221 -1.3060
  255MOL    H6541213   0.462   3.934   7.776 -0.0601  0.4840  0.5137
  255MOL    C6641214   0.465   3.928   7.514  0.4492  0.1134  1.0628
  255MOL    C6741215   0.515   3.955   7.367 -0.0071 -0.3973  0.3432
  255MOL    C6841216   0.603   4.080   7.351  0.9542 -0.3241  0.4248
  255MOL    O6941217   0.548   4.189   7.354  0.1623 -0.0312  0.3213
  255MOL    H7041218   0.398   4.007   7.546 -2.2824 -0.5833 -2.5584
  255MOL    H7141219   0.415   3.831   7.521 -0.0660  0.1307 -1.6639
  255MOL    H7241220   0.427   3.967   7.304  0.5261 -1.1176 -0.5571
  255MOL    H7341221   0.559   3.866   7.322 -0.9605 -1.2303  1.0329
  255MOL    C7441222   0.755   4.070   7.332  0.6905 -0.4904  0.4178
  255MOL    C7541223   0.817   4.200   7.276 -0.1102 -0.4232  0.1006
  255MOL    C7641224   0.906   4.180   7.155 -0.1649  0.3499  0.9812
  255MOL    O7741225   0.937   4.070   7.112  0.1637  0.4232 -0.2878
  255MOL    H7841226   0.782   3.982   7.273  0.0009 -1.7929  1.9780
  255MOL    H7941227   0.817   4.046   7.419  1.9866 -1.0048 -0.6409
  255MOL    H8041228   0.867   4.256   7.355  1.5134  0.0387 -1.2281
  255MOL    H8141229   0.744   4.277   7.253 -1.2032 -2.0336 -2.0732
  255MOL    C8241230   0.967   4.309   7.107  0.2562  0.1375  0.7731
  255MOL    C8341231   1.050   4.307   6.975  0.1157 -0.0435 -0.6038
  255MOL    C8441232   1.157   4.411   6.968 -0.0118  0.1867  0.6130
  255MOL    O8541233   1.230   4.436   7.066  0.5655  0.5558 -0.2131
  255MOL    H8641234   1.026   4.347   7.190  0.4253 -1.1152  1.2297
  255MOL    H8741235   0.892   4.388   7.096 -0.6709 -0.7694  0.4392
  255MOL    H8841236   0.988   4.301   6.885  1.3256 -1.5375 -1.3712
  255MOL    H8941237   1.107   4.214   6.966  0.3339  0.2944 -3.2574
  255MOL    C9041238   1.162   4.491   6.834 -0.7240  0.4639 -0.7286
  255MOL    C9141239   1.263   4.604   6.835 -0.1518  0.3999  0.4417
  255MOL    C9241240   1.221   4.736   6.763  0.0789  0.2578 -0.6066
  255MOL    O9341241   1.143   4.732   6.671  0.0893  0.0640 -0.0618
  255MOL    H9441242   1.065   4.536   6.816 -1.2976  0.6155  2.5613
  255MOL    H9541243   1.186   4.419   6.755 -0.1676 -2.4290  1.9705
  255MOL    H9641244   1.359   4.578   6.790  0.5749  1.9622  1.0520
  255MOL    H9741245   1.301   4.634   6.932  2.5486  1.6583 -0.9465
  255MOL    C9841246   1.293   4.863   6.816 -0.1204 -0.1161  0.6086
  255MOL    C9941247   1.437   4.855   6.777  0.2254 -0.7353 -0.2307
  255MOL   C10041248   1.521   4.960   6.851 -0.2510  0.5573 -0.0211
  255MOL   O10141249   1.487   5.003   6.961 -0.3711  0.0873 -0.0344
  255MOL   H10241250   1.272   4.851   6.922 -2.0301 -1.4217  0.0980
  255MOL   H10341251   1.243   4.953   6.780 -0.0324 -0.5438 -0.6097
  255MOL   H10441252   1.449   4.875   6.671 -1.0066  1.8172  0.0600
  255MOL   H10541253   1.489   4.763   6.802  1.0003 -0.2399  0.0070
  255MOL   C10641254   1.641   5.021   6.781 -0.1581  0.1642 -0.0618
  255MOL   C10741255   1.776   4.991   6.854  0.1993 -0.2939  0.2577
  255MOL   C10841256   1.887   4.923   6.777 -0.6997 -0.1494  0.3733
  255MOL   O10941257   1.865   4.819   6.717  0.0751  0.1991 -0.2575
  255MOL   H11041258   1.612   5.125   6.766  0.3444  0.0107 -2.1982
  255MOL   H11141259   1.653   4.982   6.680 -0.6294  0.8091 -0.3669
  255MOL   H11241260   1.745   4.931   6.939  1.6250 -2.4619 -0.7033
  255MOL   H11341261   1.818   5.079   6.902 -1.5306 -1.1897  3.5515
  255MOL   C11441262   2.022   4.983   6.779 -1.0882  0.6442  0.2562
  255MOL   C11541263   2.131   4.891   6.720 -0.0035  0.6523  0.3460
  255MOL   C11641264   2.180   4.933   6.583  0.2053 -0.2631  0.5193
  255MOL   O11741265   2.098   4.960   6.496 -0.1578  0.2896 -0.8731
  255MOL   H11841266   2.044   5.009   6.883 -0.1506  2.3064 -0.3389
  255MOL   H11941267   2.031   5.072   6.717  2.0016 -0.5351 -1.0754
  255MOL   H12041268   2.104   4.786   6.736 -0.0278  0.4457 -1.0069
  255MOL   H12141269   2.211   4.910   6.792 -0.6960  0.1204  1.2686
  255MOL   C12241270   2.334   4.936   6.562 -0.3854 -0.4409  0.3951
  255MOL   C12341271   2.379   4.999   6.428 -0.0368  0.0108  0.0546
  255MOL   C12441272   2.514   4.933   6.370  0.4107  0.3154  0.4118
  255MOL   O12541273   2.587   4.870   6.446 -0.4123 -0.1158  0.2799
  255MOL   H12641274   2.375   4.838   6.587  4.5140  1.3674  0.0151
  255MOL   H12741275   2.375   5.001   6.639 -0.1642  1.8669 -1.5892
  255MOL   H12841276   2.391   5.106   6.441 -0.6367 -0.1536  2.0056
  255MOL   H12941277   2.304   4.981   6.351 -1.3504  1.0527  1.0730
  255MOL   C13041278   2.542   4.959   6.227 -0.0793  0.8763  0.7326
  255MOL   C13141279   2.691   4.989   6.194 -0.4132 -0.5987 -0.2803
  255MOL   C13241280   2.713   5.138   6.178  0.2796  0.4299 -0.0699
  255MOL   O13341281   2.662   5.224   6.256 -0.4397 -0.7512 -0.7409
  255MOL   H13441282   2.479   5.043   6.198 -0.9751 -0.1152 -0.2733
  255MOL   H13541283   2.500   4.885   6.158 -0.0695  0.5717  1.0499
  255MOL   H13641284   2.725   4.948   6.099 -0.5970  0.0776 -0.6388
  255MOL   H13741285   2.744   4.950   6.281  1.9109  2.3389 -0.3116
  255MOL   C13841286   2.798   5.183   6.058  0.6989 -0.6612 -0.3282
  255MOL   C13941287   2.872   5.315   6.080  0.1978 -0.1611  0.8121
  255MOL   C14041288   2.968   5.350   5.969 -0.9247 -0.3326 -0.4508
  255MOL   O14141289   2.997   5.272   5.877 -0.2970 -0.2912  0.6024
  255MOL   H14241290   2.732   5.199   5.972 -2.6537 -0.6602  2.1518
  255MOL   H14341291   2.860   5.096   6.033 -0.7402 -1.6916 -0.4076
  255MOL   H14441292   2.942   5.314   6.165  0.7303  1.0217  0.3910
  255MOL   H14541293   2.804   5.398   6.098  0.8648  0.3595  0.9739
  255MOL   C14641294   3.025   5.490   5.982 -0.0605 -0.1608  0.9342
  255MOL   C14741295   3.179   5.472   5.950 -0.2545  0.6093  0.0808
  255MOL   C14841296   3.260   5.451   6.071 -0.2127  0.1176 -0.4248
  255MOL   O14941297   3.207   5.457   6.181  0.2561 -0.6582  0.1131
  255MOL   H15041298   3.007   5.518   6.086 -0.4215  0.8342  0.6034
  255MOL   H15141299   2.967   5.548   5.911 -1.7538 -0.4792  2.0192
  255MOL   H15241300   3.222   5.557   5.897 -2.0760  0.8932 -0.9906
  255MOL   H15341301   3.202   5.381   5.895  2.0591  0.9102  0.4942
  255MOL   C15441302   3.406   5.427   6.054 -0.5949  0.8313 -1.0238
  255MOL   C15541303   3.496   5.445   6.181 -0.0897  0.4686 -0.0411
  255MOL   C15641304   3.604   5.549   6.162  1.1392 -0.2606  0.0016
  255MOL   O15741305   3.616   5.618   6.058 -0.0241 -0.6838 -0.4983
  255MOL   H15841306   3.437   5.509   5.989  2.5545  2.5539  2.5064
  255MOL   H15941307   3.435   5.333   6.006 -1.5549 -0.0743  0.1225
  255MOL   H16041308   3.538   5.353   6.223 -2.0809 -0.5027 -0.1082
  255MOL   H16141309   3.426   5.472   6.260 -0.6102  1.1960 -0.7459
  255MOL   H16241310   3.677   5.563   6.241  0.1734 -1.2214  1.0840
  256MOL     C141311   5.279   0.768   4.188 -0.3272  0.9896  0.0806
  256MOL     C241312   5.315   0.630   4.251 -0.3021 -0.1945  0.1855
  256MOL     C341313   5.452   0.621   4.310  0.1505  0.3498  0.2997
  256MOL     O441314   5.543   0.577   4.244 -0.0847  0.7784 -0.2414
  256MOL     H541315   5.360   0.812   4.130  0.1249 -0.6546 -0.5517
  256MOL     H641316   5.200   0.757   4.114 -1.5951  0.2272  1.5213
  256MOL     H741317   5.312   0.559   4.168  2.0691 -0.1923  0.0559
  256MOL     H841318   5.240   0.598   4.323  0.0552  1.1227  1.1586
  256MOL     H941319   5.232   0.842   4.254  1.5201  0.6820  1.8023
  256MOL    C1041320   5.472   0.679   4.453 -0.6526  0.3295  0.5767
  256MOL    C1141321   5.617   0.683   4.488  0.8144 -0.2150  0.5393
  256MOL    C1241322   5.631   0.750   4.619  0.4345  0.3876  0.3717
  256MOL    O1341323   5.561   0.724   4.718  0.5158  0.0813  1.0888
  256MOL    H1441324   5.419   0.616   4.524 -0.7732 -1.5224 -1.1491
  256MOL    H1541325   5.430   0.780   4.459 -2.3246 -0.4404  2.2101
  256MOL    H1641326   5.679   0.735   4.415 -0.9098  0.4475 -0.4815
  256MOL    H1741327   5.660   0.583   4.493  2.8391  0.7175  2.7635
  256MOL    C1841328   5.741   0.854   4.638  0.4443 -0.2470 -0.0944
  256MOL    C1941329   5.819   0.838   4.770  0.9127 -0.3331  0.6674
  256MOL    C2041330   5.950   0.756   4.759 -0.4228  0.4785  0.9760
  256MOL    O2141331   6.009   0.746   4.651 -0.2370  0.3300 -0.1495
  256MOL    H2241332   5.681   0.945   4.626 -1.3512 -1.4544 -0.5837
  256MOL    H2341333   5.812   0.854   4.556 -0.0102 -0.4803 -0.4959
  256MOL    H2441334   5.757   0.780   4.839 -0.0028 -0.5480 -0.3212
  256MOL    H2541335   5.833   0.935   4.818 -0.4455 -1.0119  2.4842
  256MOL    C2641336   5.986   0.672   4.879 -0.0956  0.7623 -0.0683
  256MOL    C2741337   6.129   0.629   4.878 -1.1650  0.0025 -0.1220
  256MOL    C2841338   6.223   0.719   4.956 -0.3349  0.1257 -0.4474
  256MOL    O2941339   6.183   0.830   4.990  0.0522 -0.4816  0.1305
  256MOL    H3041340   5.925   0.583   4.893  0.0274  0.9626  2.0105
  256MOL    H3141341   5.954   0.716   4.974 -2.0804 -1.3961  0.2942
  256MOL    H3241342   6.171   0.635   4.777  1.8171  0.5012  1.0830
  256MOL    H3341343   6.149   0.525   4.903  1.9291  0.8677  1.3040
  256MOL    C3441344   6.365   0.657   4.977  0.2233  0.3363  0.1230
  256MOL    C3541345   6.464   0.758   5.039  0.4146 -0.9207 -0.1146
  256MOL    C3641346   6.453   0.782   5.188  0.1697 -0.9677  0.0110
  256MOL    O3741347   6.476   0.685   5.253  0.3685 -0.7533 -0.6096
  256MOL    H3841348   6.411   0.636   4.880  0.2997 -0.5089  0.3360
  256MOL    H3941349   6.360   0.564   5.033  0.4168  0.6419  0.6472
  256MOL    H4041350   6.448   0.854   4.989 -0.2179 -0.0166  1.7667
  256MOL    H4141351   6.567   0.730   5.018  0.7102 -0.9094  1.2983
  256MOL    C4241352   6.411   0.913   5.257 -0.6865  0.6616 -0.2503
  256MOL    C4341353   6.469   0.908   5.410 -0.0366  0.0874 -1.0150
  256MOL    C4441354   6.366   0.850   5.514 -0.1548 -0.3690  0.7195
  256MOL    O4541355   6.280   0.773   5.474  0.1476  0.4441  0.1067
  256MOL    H4641356   6.302   0.925   5.252 -0.8902 -0.4621  1.2050
  256MOL    H4741357   6.454   0.996   5.201 -1.5680  0.2710 -1.5067
  256MOL    H4841358   6.513   1.005   5.434 -0.7536  0.4931 -1.3177
  256MOL    H4941359   6.560   0.847   5.415  0.6800  1.2155  0.0305
  256MOL    C5041360   6.378   0.880   5.658 -0.3853  0.6955  0.0617
  256MOL    C5141361   6.248   0.879   5.739 -0.1384  0.0139 -0.2162
  256MOL    C5241362   6.255   0.818   5.874 -0.7174 -0.4496 -1.3878
  256MOL    O5341363   6.364   0.782   5.923 -0.3870 -0.3781 -0.2204
  256MOL    H5441364   6.415   0.981   5.643 -0.6247  0.8058  0.2218
  256MOL    H5541365   6.459   0.815   5.691  0.3520  1.0212 -1.0808
  256MOL    H5641366   6.167   0.829   5.686  0.6105 -2.1775  0.6223
  256MOL    H5741367   6.206   0.979   5.753 -0.6272 -0.2749  0.3952
  256MOL    C5841368   6.120   0.786   5.950  0.4856 -0.1683  0.3258
  256MOL    C5941369   6.124   0.651   6.028 -0.2283  0.5573 -0.7760
  256MOL    C6041370   6.190   0.536   5.955 -0.4444 -0.9546  0.3021
  256MOL    O6141371   6.169   0.522   5.837 -0.0859  0.0819  0.4513
  256MOL    H6241372   6.040   0.780   5.876 -0.3894  0.8821  1.1683
  256MOL    H6341373   6.091   0.872   6.011  1.7155  1.0106 -0.7156
  256MOL    H6441374   6.023   0.616   6.048  0.7531 -1.9892 -0.0945
  256MOL    H6541375   6.173   0.663   6.125 -1.9833 -0.4109  0.2597
  256MOL    C6641376   6.289   0.449   6.031 -0.9460  0.0059  0.0673
  256MOL    C6741377   6.332   0.317   5.960 -0.1677 -0.4056  0.0315
  256MOL    C6841378   6.224   0.213   5.961 -0.0369 -0.4364  0.7595
  256MOL    O6941379   6.141   0.222   6.049  0.1149  0.5584 -0.1822
  256MOL    H7041380   6.247   0.427   6.129 -0.1727 -0.0561  0.3879
  256MOL    H7141381   6.377   0.510   6.051 -0.3948 -0.1126 -1.9377
  256MOL    H7241382   6.432   0.290   5.992  0.6738  2.9987  0.4768
  256MOL    H7341383   6.341   0.351   5.857 -0.5731  0.4447  0.2715
  256MOL    C7441384   6.211   0.105   5.854  0.1039 -0.4593 -0.0398
  256MOL    C7541385   6.079   0.115   5.770  0.1001  0.1608 -0.0575
  256MOL    C7641386   6.009   7.838   5.758 -0.6099  0.4719  1.1327
  256MOL    O7741387   6.067   7.731   5.778 -0.7402 -0.3555  0.0684
  256MOL    H7841388   6.218   0.020   5.921  0.5179 -0.1585  0.3001
  256MOL    H7941389   6.296   0.104   5.785  2.7537  1.7612  3.0661
  256MOL    H8041390   6.084   0.145   5.665  1.9149  0.0310 -0.0137
  256MOL    H8141391   6.006   0.185   5.813  1.6269  2.2043 -0.6940
  256MOL    C8241392   5.858   7.838   5.727  0.0963  0.0183 -0.5798
  256MOL    C8341393   5.793   7.705   5.683  0.2367 -0.1280 -0.2556
  256MOL    C8441394   5.641   7.712   5.701  0.4468  0.0814 -0.2575
  256MOL    O8541395   5.587   7.773   5.794  0.6179  0.1477  1.0236
  256MOL    H8641396   5.823   0.042   5.645  0.6495 -1.7788 -2.2236
  256MOL    H8741397   5.812   0.009   5.821  0.7651  0.5816 -0.4310
  256MOL    H8841398   5.827   7.625   5.749  0.4227 -1.9618 -2.5069
  256MOL    H8941399   5.822   7.682   5.580  3.2555  1.4003  0.2180
  256MOL    C9041400   5.560   7.625   5.605  0.0605  0.5925 -0.3073
  256MOL    C9141401   5.411   7.613   5.640  0.0283 -0.0646  0.2658
  256MOL    C9241402   5.326   7.716   5.565 -0.0228  0.6025 -0.7603
  256MOL    O9341403   5.333   7.744   5.447  0.8116 -0.2289 -0.0044
  256MOL    H9441404   5.598   7.523   5.606 -0.0622  0.5492  0.3971
  256MOL    H9541405   5.571   7.668   5.506  0.1160  0.8084 -0.2078
  256MOL    H9641406   5.394   7.610   5.748 -1.9069 -2.3652 -0.0677
  256MOL    H9741407   5.383   7.514   5.603  1.3946 -1.0264  1.7079
  256MOL    C9841408   5.221   7.788   5.653 -0.4010  0.5795  0.1971
  256MOL    C9941409   5.128   0.026   5.580 -0.4793 -0.4816  0.1975
  256MOL   C10041410   4.982   0.033   5.631 -0.3905 -0.1758 -0.6065
  256MOL   O10141411   4.945   0.008   5.745 -0.3335 -0.4379 -0.1010
  256MOL   H10241412   5.280   7.845   5.724 -0.8773  1.8832 -0.4545
  256MOL   H10341413   5.164   7.706   5.699  1.9477 -0.4081  1.4413
  256MOL   H10441414   5.141   0.030   5.472  0.5138  0.4742  0.3468
  256MOL   H10541415   5.167   0.124   5.608 -0.7096  0.0313 -1.2311
  256MOL   C10641416   4.888   0.067   5.516 -0.0480  0.7000 -0.1004
  256MOL   C10741417   4.750   0.112   5.563 -0.5703 -0.2755 -0.9076
  256MOL   C10841418   4.739   0.262   5.593 -0.0454  0.1027 -0.0275
  256MOL   O10941419   4.835   0.340   5.584 -0.4195 -0.1707 -0.4577
  256MOL   H11041420   4.873   7.841   5.450  1.0140  0.6141 -0.2334
  256MOL   H11141421   4.941   0.146   5.463  1.6422 -0.7217 -0.5594
  256MOL   H11241422   4.707   0.051   5.642 -1.1343 -0.1454 -1.1049
  256MOL   H11341423   4.687   0.107   5.474  0.3529  1.5784 -1.6831
  256MOL   C11441424   4.604   0.302   5.637  0.2276 -0.2752 -0.2872
  256MOL   C11541425   4.578   0.450   5.627 -0.8922  0.0549  0.3451
  256MOL   C11641426   4.430   0.483   5.591  0.4193  0.6790 -0.0253
  256MOL   O11741427   4.345   0.402   5.621 -0.4173  0.1010  0.2433
  256MOL   H11841428   4.579   0.263   5.736  0.7863 -0.9972 -0.4260
  256MOL   H11941429   4.532   0.247   5.575  0.1535 -0.8652  0.3178
  256MOL   H12041430   4.631   0.483   5.538 -1.1962  3.2634  1.2865
  256MOL   H12141431   4.615   0.511   5.710 -0.1923  0.4407 -0.2518
  256MOL   C12241432   4.406   0.611   5.507 -0.1113 -1.2849 -0.2755
  256MOL   C12341433   4.298   0.603   5.395  0.3692 -0.1122  0.6088
  256MOL   C12441434   4.184   0.706   5.408  0.0825 -0.1939  0.8270
  256MOL   O12541435   4.211   0.830   5.397  0.2817  0.3693 -0.6329
  256MOL   H12641436   4.499   0.656   5.473 -0.5919  0.3030  0.4607
  256MOL   H12741437   4.386   0.686   5.584  0.0096 -0.0788 -1.4043
  256MOL   H12841438   4.252   0.505   5.413  0.9901 -0.0777  2.4278
  256MOL   H12941439   4.340   0.621   5.296  0.5698 -1.7690  0.3750
  256MOL   C13041440   4.045   0.652   5.441 -0.1003  0.3242  0.0682
  256MOL   C13141441   3.951   0.765   5.470 -0.5951  0.2558  1.0357
  256MOL   C13241442   3.951   0.790   5.625 -1.1268 -1.2072 -0.4159
  256MOL   O13341443   4.054   0.761   5.688  0.7258  0.3618  0.1535
  256MOL   H13441444   4.053   0.573   5.516 -1.9350 -0.2790 -0.3447
  256MOL   H13541445   4.019   0.610   5.344 -1.0590 -2.6231  1.5310
  256MOL   H13641446   3.851   0.737   5.438 -0.3549  1.2493 -0.6271
  256MOL   H13741447   3.974   0.850   5.406 -1.0489 -0.1447  0.3389
  256MOL   C13841448   3.828   0.855   5.691 -0.4275  0.4647 -0.3237
  256MOL   C13941449   3.821   0.835   5.845 -0.1062  0.6466  0.1836
  256MOL   C14041450   3.681   0.829   5.902 -0.5072 -0.2373 -1.1981
  256MOL   O14141451   3.584   0.844   5.829 -0.2592  0.3379 -0.1332
  256MOL   H14241452   3.748   0.805   5.636  1.7603 -1.9267 -1.4139
  256MOL   H14341453   3.830   0.960   5.663 -0.7640 -0.5169 -4.2305
  256MOL   H14441454   3.885   0.910   5.892  0.0233  2.5677 -2.9088
  256MOL   H14541455   3.859   0.737   5.873 -0.9013  0.5542  0.9465
  256MOL   C14641456   3.670   0.827   6.054  0.5364  0.0195  0.5901
  256MOL   C14741457   3.664   0.681   6.093 -0.0542  0.7471 -0.3787
  256MOL   C14841458   3.784   0.635   6.183 -0.4138  0.2768  0.8649
  256MOL   O14941459   3.867   0.561   6.135 -0.0229  0.9567 -0.2608
  256MOL   H15041460   3.575   0.878   6.073  0.1435 -0.1993 -0.7841
  256MOL   H15141461   3.762   0.869   6.096  0.8399  0.6373 -0.6886
  256MOL   H15241462   3.665   0.611   6.009 -2.5912 -0.2108  0.3153
  256MOL   H15341463   3.566   0.652   6.132  0.8032  0.1580  1.3813
  256MOL   C15441464   3.789   0.690   6.328 -0.3102  0.0430 -0.5098
  256MOL   C15541465   3.887   0.608   6.410 -0.6464  0.0902 -0.5535
  256MOL   C15641466   3.864   0.625   6.562  0.0041 -0.3100  0.5960
  256MOL   O15741467   3.794   0.715   6.616 -0.1226 -0.3505  0.5408
  256MOL   H15841468   3.689   0.684   6.370 -0.8668 -0.1955 -1.8178
  256MOL   H15941469   3.817   0.796   6.324 -1.9439  0.4570 -1.3090
  256MOL   H16041470   3.977   0.661   6.378 -1.9378  1.4104 -2.1109
  256MOL   H16141471   3.908   0.504   6.383  1.5858  0.0333  1.3032
  256MOL   H16241472   3.930   0.563   6.623  1.1493  0.2104 -0.1122
  257MOL     C141473   7.795   1.076   5.471 -0.3945 -0.4166 -0.8515
  257MOL     C241474   7.817   0.947   5.542 -0.0786  0.0770 -0.1007
  257MOL     C341475   7.723   0.930   5.664  0.2914  0.0382 -0.0543
  257MOL     O441476   7.747   0.999   5.765  0.2017 -0.7586 -0.3994
  257MOL     H541477   7.848   1.074   5.376  1.7606  1.9006  0.2347
  257MOL     H641478   7.689   1.088   5.448 -0.5938  0.6855  0.5921
  257MOL     H741479   0.063   0.939   5.571  0.0911  0.0365 -0.7379
  257MOL     H841480   7.785   0.866   5.477  0.7741 -0.9551  0.7565
  257MOL     H941481   7.823   1.165   5.528 -1.2658 -0.2680 -0.6473
  257MOL    C1041482   7.613   0.823   5.656  0.1332 -0.8809  0.2441
  257MOL    C1141483   7.560   0.779   5.800 -0.0679 -0.1349  0.0729
  257MOL    C1241484   7.416   0.725   5.789 -0.0334  0.0710  0.2261
  257MOL    O1341485   7.358   0.724   5.680  0.2668 -0.1904 -0.1822
  257MOL    H1441486   7.654   0.740   5.598 -0.2396 -0.5646 -0.4740
  257MOL    H1541487   7.531   0.852   5.591  1.3420 -1.0648 -1.4090
  257MOL    H1641488   7.567   0.866   5.865 -0.9002  0.7582 -1.0061
  257MOL    H1741489   7.624   0.697   5.832 -2.3618 -1.0698  2.4641
  257MOL    C1841490   7.369   0.644   5.912 -0.5407  0.4429  0.9143
  257MOL    C1941491   7.216   0.645   5.929  0.4765 -0.0200 -0.6346
  257MOL    C2041492   7.167   0.528   6.009  0.0594  0.6900 -0.6147
  257MOL    O2141493   7.152   0.416   5.966  0.1790  0.1592 -0.0428
  257MOL    H2241494   7.416   0.679   6.004  0.9181 -1.3282  0.8721
  257MOL    H2341495   7.421   0.550   5.896 -0.6772  0.6970 -1.2696
  257MOL    H2441496   7.175   0.629   5.829  1.0080 -0.8539 -0.7200
  257MOL    H2541497   7.186   0.742   5.969 -1.6932 -0.2507 -1.6009
  257MOL    C2641498   7.116   0.573   6.143 -0.2212 -0.2252 -1.4120
  257MOL    C2741499   7.092   0.462   6.243  0.2743  0.2265  0.5615
  257MOL    C2841500   7.216   0.440   6.330  1.2221 -0.9017  0.7529
  257MOL    O2941501   7.327   0.487   6.298 -0.1841  0.5180  0.3106
  257MOL    H3041502   7.020   0.623   6.130 -0.0570  1.3167  2.5853
  257MOL    H3141503   7.165   0.661   6.183  2.3251 -1.7092 -1.1409
  257MOL    H3241504   7.059   0.378   6.181 -1.9061  1.8542 -0.5768
  257MOL    H3341505   7.010   0.498   6.306  1.4785  0.5521  1.9503
  257MOL    C3441506   7.187   0.372   6.458  0.2118 -0.1869 -0.9257
  257MOL    C3541507   7.270   0.432   6.575 -0.0639 -0.8215 -0.5700
  257MOL    C3641508   7.380   0.345   6.622 -0.6770 -0.0707 -0.7433
  257MOL    O3741509   7.393   0.307   6.739  0.4711  0.0241 -0.0929
  257MOL    H3841510   7.205   0.264   6.457 -2.4533 -0.6752 -1.7222
  257MOL    H3941511   7.081   0.386   6.479  0.5355 -1.7469  2.1199
  257MOL    H4041512   7.215   0.465   6.664  1.9866  0.0774  0.4059
  257MOL    H4141513   7.325   0.523   6.551  0.6628 -0.2022  3.1101
  257MOL    C4241514   7.487   0.310   6.513 -0.6633 -0.2248 -0.0231
  257MOL    C4341515   7.625   0.289   6.585  0.3764  0.6030  0.2071
  257MOL    C4441516   7.726   0.393   6.544 -0.7211  0.6348  0.2752
  257MOL    O4541517   7.737   0.436   6.427  0.3113 -0.2201  0.1830
  257MOL    H4641518   7.490   0.400   6.452 -1.4638  0.5020  0.9907
  257MOL    H4741519   7.454   0.227   6.451 -0.5849  0.7317 -1.3650
  257MOL    H4841520   7.677   0.194   6.571  0.5754  0.6445  0.6538
  257MOL    H4941521   7.624   0.296   6.693 -0.8744  0.7615  0.1976
  257MOL    C5041522   7.821   0.436   6.657  0.1484 -1.0145 -0.6516
  257MOL    C5141523   7.833   0.587   6.665  1.1623 -1.1015  0.1369
  257MOL    C5241524   0.016   0.640   6.802  0.1323  0.8583  1.0427
  257MOL    O5341525   7.794   0.656   6.890  0.1269 -0.1177  0.3311
  257MOL    H5441526   0.062   0.400   6.633  0.5335 -0.2897 -0.1249
  257MOL    H5541527   7.797   0.394   6.755  0.4420  1.3232  0.4403
  257MOL    H5641528   7.734   0.631   6.650  1.6792  0.0822  0.1768
  257MOL    H5741529   0.052   0.622   6.598 -1.5272  0.7929 -2.1275
  257MOL    C5841530   0.165   0.663   6.818 -0.0622  0.4985 -0.2930
  257MOL    C5941531   0.200   0.710   6.967  0.2791  0.2369  0.2639
  257MOL    C6041532   0.249   0.598   7.055  0.3588 -0.2151  0.6729
  257MOL    O6141533   0.345   0.526   7.027  0.0202 -0.4083 -0.0914
  257MOL    H6241534   0.190   0.743   6.749  3.3785 -2.6806 -2.9768
  257MOL    H6341535   0.208   0.566   6.791  0.3688  0.8464 -0.8493
  257MOL    H6441536   0.122   0.779   7.000 -1.0924 -0.5222 -1.3150
  257MOL    H6541537   0.289   0.772   6.963 -0.8214  1.9677  1.6991
  257MOL    C6641538   0.160   0.579   7.176 -0.4576  0.2723 -0.3707
  257MOL    C6741539   0.235   0.542   7.306 -0.3954 -0.2553  0.4926
  257MOL    C6841540   0.192   0.402   7.356  1.1120 -0.3219 -0.0660
  257MOL    O6941541   0.254   0.303   7.327 -0.3246  0.1189  0.1237
  257MOL    H7041542   0.089   0.501   7.149  1.7524 -2.0887  0.4749
  257MOL    H7141543   0.112   0.676   7.193 -0.4158 -0.1445  2.2691
  257MOL    H7241544   0.207   0.615   7.382 -2.4005 -0.0590 -0.4120
  257MOL    H7341545   0.344   0.543   7.306 -0.3248 -0.2525 -3.5288
  257MOL    C7441546   0.073   0.395   7.459 -0.2921  0.2716 -0.0947
  257MOL    C7541547   0.067   0.261   7.534 -0.3749 -0.1552  0.9311
  257MOL    C7641548   7.816   0.250   7.639  0.2138  0.2800  0.0894
  257MOL    O7741549   7.706   0.309   7.621 -0.5705 -0.2540 -0.5208
  257MOL    H7841550   7.833   0.417   7.420 -1.5188 -3.1262  0.8937
  257MOL    H7941551   0.096   0.476   7.528  1.1835 -0.8179  0.7149
  257MOL    H8041552   0.165   0.239   7.578 -1.2592 -3.1896  1.4958
  257MOL    H8141553   0.053   0.184   7.458 -1.5010  1.0646 -0.1198
  257MOL    C8241554   7.842   0.157   7.749 -0.0348  0.1484 -0.8016
  257MOL    C8341555   7.716   0.123   7.827  0.1627  0.2172 -0.3448
  257MOL    C8441556   7.697   0.209   0.081 -0.6780  1.0503 -0.1947
  257MOL    O8541557   7.777   0.292   0.122  0.3143 -0.1877  0.2863
  257MOL    H8641558   0.067   0.197   7.805  0.9725 -1.5733 -1.0322
  257MOL    H8741559   0.018   0.066   7.699 -0.4937  0.2179 -1.2588
  257MOL    H8841560   7.714   0.018   7.857  0.9397  0.0406 -0.8977
  257MOL    H8941561   7.627   0.142   7.766  2.0428 -0.1928 -3.3481
  257MOL    C9041562   7.562   0.190   0.157 -0.0873 -0.6252  0.1157
  257MOL    C9141563   7.487   0.321   0.195  0.4869 -0.3625  0.6116
  257MOL    C9241564   7.388   0.312   0.306  0.3676 -0.6369  0.3407
  257MOL    O9341565   7.385   0.213   0.376 -0.6133 -0.5772 -0.0416
  257MOL    H9441566   7.584   0.145   0.254  2.6305 -0.2844 -0.3107
  257MOL    H9541567   7.507   0.114   0.102  0.1473 -2.3278  2.1778
  257MOL    H9641568   7.417   0.341   0.113  1.4684  0.0481 -0.1435
  257MOL    H9741569   7.559   0.403   0.195 -0.9343  0.9272  0.6038
  257MOL    C9841570   7.300   0.431   0.327  0.2353  0.7248  0.7581
  257MOL    C9941571   7.212   0.438   0.459 -0.2808  0.3695 -0.6173
  257MOL   C10041572   7.275   0.512   0.577 -0.1239 -0.3577 -0.2060
  257MOL   O10141573   7.383   0.567   0.560  0.4139 -0.0611  0.0652
  257MOL   H10241574   7.219   0.444   0.256  1.9066  3.1084 -0.8179
  257MOL   H10341575   7.371   0.513   0.311  0.0218  0.6448 -0.6990
  257MOL   H10441576   7.165   0.344   0.488 -0.5643  0.4596 -0.7829
  257MOL   H10541577   7.124   0.497   0.434 -2.0596 -1.0059  2.1958
  257MOL   C10641578   7.183   0.534   0.698  0.5800  0.9030 -0.1734
  257MOL   C10741579   7.269   0.519   0.826 -0.1262 -0.3071 -0.2045
  257MOL   C10841580   7.183   0.567   0.945 -0.2188 -0.1148  0.0788
  257MOL   O10941581   7.072   0.609   0.929 -0.6547 -0.3424 -0.3948
  257MOL   H11041582   7.104   0.460   0.707 -1.0952  2.4219 -2.0001
  257MOL   H11141583   7.141   0.635   0.699  0.5474  0.8894  1.4919
  257MOL   H11241584   7.359   0.580   0.819 -1.1234  1.3696  0.9921
  257MOL   H11341585   7.295   0.414   0.837  0.0090 -0.3984 -1.3447
  257MOL   C11441586   7.240   0.558   1.088  0.1512 -0.5173 -0.3816
  257MOL   C11541587   7.125   0.514   1.180  0.0889 -0.3239 -0.7056
  257MOL   C11641588   7.150   0.536   1.328  0.2031  0.0135  1.1403
  257MOL   O11741589   7.159   0.648   1.375 -0.1682  0.3398  0.7869
  257MOL   H11841590   7.291   0.649   1.121 -0.2241 -0.6016  0.4438
  257MOL   H11941591   7.327   0.492   1.087  0.6636  0.1476  0.1147
  257MOL   H12041592   7.087   0.413   1.168 -0.5293  0.0278 -1.8348
  257MOL   H12141593   7.039   0.572   1.147  0.2983 -1.0293 -2.5368
  257MOL   C12241594   7.182   0.411   1.414  0.1788  0.3924 -0.2903
  257MOL   C12341595   7.239   0.434   1.555  0.6990 -0.3224  0.2019
  257MOL   C12441596   7.128   0.462   1.660 -0.1435  0.3435  1.0485
  257MOL   O12541597   7.021   0.504   1.627  0.1488 -0.4300  0.6022
  257MOL   H12641598   7.241   0.343   1.351 -0.6160 -0.4290 -0.1647
  257MOL   H12741599   7.095   0.345   1.414  0.6947 -0.3311  2.0452
  257MOL   H12841600   7.310   0.517   1.547  0.8364 -0.3277  1.2989
  257MOL   H12941601   7.290   0.340   1.574 -0.2695 -0.7381  0.7642
  257MOL   C13041602   7.165   0.450   1.804 -0.5713  0.0206  0.2736
  257MOL   C13141603   7.041   0.443   1.896  0.1703  0.6171 -0.1439
  257MOL   C13241604   7.076   0.499   2.026  0.4871 -0.2105 -0.8950
  257MOL   O13341605   7.191   0.523   2.065 -0.3517  0.0940 -0.1483
  257MOL   H13441606   7.216   0.543   1.829  0.4151 -0.2883 -0.5388
  257MOL   H13541607   7.244   0.376   1.817  0.0982  0.5237 -0.8293
  257MOL   H13641608   6.993   0.345   1.900 -1.5240  1.4706  1.2815
  257MOL   H13741609   6.960   0.504   1.854  0.1128 -0.0733 -1.0724
  257MOL   C13841610   6.961   0.523   2.118  0.0179  0.4628 -0.4142
  257MOL   C13941611   6.990   0.453   2.252  0.2867 -0.6958 -0.2966
  257MOL   C14041612   6.923   0.519   2.373 -0.6258  0.2191 -0.4694
  257MOL   O14141613   6.857   0.625   2.371  0.2420  0.5742 -0.2585
  257MOL   H14241614   6.866   0.500   2.071 -0.8323 -0.9960  1.9641
  257MOL   H14341615   6.964   0.631   2.133 -2.7279  0.3991  0.8841
  257MOL   H14441616   7.096   0.438   2.271  0.6998  0.9974 -1.1723
  257MOL   H14541617   6.938   0.358   2.239  1.6569 -1.0251 -3.9948
  257MOL   C14641618   6.935   0.430   2.504 -0.0807  0.5600  0.3568
  257MOL   C14741619   6.931   0.518   2.631 -0.1810 -0.2001 -0.1834
  257MOL   C14841620   7.062   0.573   2.682  0.1275 -0.0523 -0.2159
  257MOL   O14941621   7.165   0.535   2.636 -0.3488  0.1972  0.8060
  257MOL   H15041622   7.035   0.387   2.505  0.7838  2.5421  2.0362
  257MOL   H15141623   6.862   0.348   2.503  0.8245 -0.2590  0.5646
  257MOL   H15241624   6.880   0.468   2.713 -0.2768 -0.5991 -0.4839
  257MOL   H15341625   6.877   0.611   2.617  0.2745  0.1257  0.2154
  257MOL   C15441626   7.054   0.665   2.804  0.1856  0.1590  0.0847
  257MOL   C15541627   7.190   0.716   2.860 -0.5987 -0.4413  0.7427
  257MOL   C15641628   7.210   0.671   3.005 -0.0245  0.2828  0.2740
  257MOL   O15741629   7.310   0.603   3.031  0.2898  0.1222  0.1687
  257MOL   H15841630   6.994   0.621   2.883 -1.0681  1.3611 -0.1770
  257MOL   H15941631   7.004   0.755   2.768 -0.7016 -0.6990 -0.8571
  257MOL   H16041632   7.173   0.821   2.888  0.4661 -1.0527  3.9056
  257MOL   H16141633   7.276   0.702   2.795  0.5561  1.9954  1.6833
  257MOL   H16241634   7.130   0.706   3.069 -1.0702 -2.2925  0.4327
  258MOL     C141635   3.713   0.220   6.180  0.0877 -0.5366 -0.4256
  258MOL     C241636   3.849   0.251   6.246  0.1585 -0.0479  0.1938
  258MOL     C341637   3.857   0.193   6.380  0.3021  0.9570 -0.2792
  258MOL     O441638   3.757   0.197   6.453 -0.2253  0.4033  0.1014
  258MOL     H541639   3.737   0.219   6.074  0.5945  1.0511 -0.3325
  258MOL     H641640   3.676   0.120   6.205  1.1123 -1.0375 -0.8621
  258MOL     H741641   3.865   0.358   6.255  0.9140 -0.1736  0.4215
  258MOL     H841642   3.939   0.223   6.191 -0.7686 -1.8583 -0.4479
  258MOL     H941643   3.634   0.289   6.208 -0.1745 -0.7563 -0.6290
  258MOL    C1041644   3.986   0.123   6.427 -0.3366 -0.3639  0.6879
  258MOL    C1141645   3.994   0.097   6.583 -0.3080 -0.3486 -0.1646
  258MOL    C1241646   4.067   0.207   6.653 -0.0214 -0.6129  0.5511
  258MOL    O1341647   4.087   0.322   6.607 -0.0692  0.2212 -0.1729
  258MOL    H1441648   4.062   0.197   6.400 -3.3181  2.2807 -0.7632
  258MOL    H1541649   4.019   0.035   6.373  2.1890  0.9166  0.0432
  258MOL    H1641650   4.046   0.003   6.601 -0.1190 -0.4534 -1.2392
  258MOL    H1741651   3.895   0.092   6.628  0.9756  1.6855  3.0764
  258MOL    C1841652   4.152   0.168   6.776  0.0794  0.4424 -0.0367
  258MOL    C1941653   4.164   0.285   6.875  0.1120  0.3331  0.3610
  258MOL    C2041654   4.101   0.248   7.015 -0.3354 -0.3332 -0.0139
  258MOL    O2141655   3.998   0.180   7.042  0.4212 -0.1309  0.1306
  258MOL    H2241656   4.242   0.151   6.717 -0.4436  0.1493 -0.7596
  258MOL    H2341657   4.104   0.077   6.812  3.2986 -1.9528 -1.5353
  258MOL    H2441658   4.118   0.379   6.845 -0.8444 -0.8317 -1.9259
  258MOL    H2541659   4.268   0.304   6.901 -0.4105  0.5782  2.3540
  258MOL    C2641660   4.177   0.309   7.132 -0.4231 -0.4208  0.0657
  258MOL    C2741661   4.215   0.198   7.235 -0.0004  0.0536 -0.0050
  258MOL    C2841662   4.362   0.162   7.207  0.0516  0.2229 -0.5573
  258MOL    O2941663   4.420   0.179   7.101 -0.4990  0.0904 -0.2741
  258MOL    H3041664   4.107   0.369   7.189  0.6994 -0.3959  1.4311
  258MOL    H3141665   4.264   0.372   7.111 -0.6423  0.7427  2.4834
  258MOL    H3241666   4.149   0.112   7.228 -0.4132  0.5044 -2.4612
  258MOL    H3341667   4.189   0.247   7.329  1.9847  1.8111 -0.3289
  258MOL    C3441668   4.428   0.085   7.322  0.0866 -0.4584  0.1067
  258MOL    C3541669   4.578   0.108   7.331 -0.1291  1.1249  0.5146
  258MOL    C3641670   4.631   0.223   7.410  1.1740  0.3888 -0.0954
  258MOL    O3741671   4.565   0.286   7.488 -0.2589 -0.2882 -0.3737
  258MOL    H3841672   4.418   7.839   7.296  0.4878 -0.3624 -0.4522
  258MOL    H3941673   4.384   0.092   7.422  2.3435  1.9172  0.9975
  258MOL    H4041674   4.617   0.104   7.229 -0.6500 -2.0952  0.3942
  258MOL    H4141675   4.626   0.024   7.380 -0.5197 -0.2043 -1.3085
  258MOL    C4241676   4.770   0.274   7.382 -0.4842  0.0185 -0.4261
  258MOL    C4341677   4.783   0.357   7.257  0.4167  0.0037  0.1654
  258MOL    C4441678   4.853   0.286   7.144 -0.3185 -0.1581 -0.5957
  258MOL    O4541679   4.793   0.204   7.067 -0.1194  0.5033 -0.3903
  258MOL    H4641680   4.835   0.187   7.376 -0.5984 -0.2204  1.4329
  258MOL    H4741681   4.806   0.336   7.464 -0.2469 -0.9958  0.2430
  258MOL    H4841682   4.829   0.449   7.292 -1.4729  0.9381  0.2860
  258MOL    H4941683   4.685   0.384   7.216  1.5834  1.5436 -1.7054
  258MOL    C5041684   5.003   0.318   7.128 -0.6281 -0.2384  0.2799
  258MOL    C5141685   5.035   0.381   6.998  0.7581  0.0997  0.1600
  258MOL    C5241686   5.182   0.435   7.007  0.2159  0.2761  0.3539
  258MOL    O5341687   5.274   0.355   7.016  0.2470  0.1724  0.5080
  258MOL    H5441688   5.054   0.222   7.139  3.7535  1.7608 -1.5638
  258MOL    H5541689   5.026   0.401   7.194 -0.7121  1.5565 -1.9026
  258MOL    H5641690   4.976   0.472   6.988  1.6433  0.9810  2.7088
  258MOL    H5741691   5.030   0.332   6.900  2.8465  1.1473 -0.4975
  258MOL    C5841692   5.207   0.581   6.976 -0.7529  0.8836  0.1690
  258MOL    C5941693   5.353   0.614   6.960  0.4702 -0.1544 -0.5717
  258MOL    C6041694   5.418   0.655   7.094  0.6743 -0.1176  0.4009
  258MOL    O6141695   5.356   0.646   7.207 -0.4849  0.0519 -0.2571
  258MOL    H6241696   5.160   0.639   7.056 -1.2928  2.5005 -1.2902
  258MOL    H6341697   5.155   0.596   6.881 -2.4117  1.2161  1.1115
  258MOL    H6441698   5.373   0.700   6.896 -0.1654  1.2187  1.0368
  258MOL    H6541699   5.395   0.516   6.936 -0.0618 -0.7547  0.8726
  258MOL    C6641700   5.547   0.731   7.094  0.6141  0.0888 -0.1887
  258MOL    C6741701   5.546   0.827   7.215 -0.1197 -0.0502 -0.1158
  258MOL    C6841702   5.639   0.787   7.332  0.9286 -0.1763 -0.6354
  258MOL    O6941703   5.761   0.771   7.310 -0.2201  0.4235  0.5064
  258MOL    H7041704   5.558   0.784   7.000 -2.2149 -0.7396 -1.0125
  258MOL    H7141705   5.641   0.676   7.103  0.7413  0.2758 -0.3615
  258MOL    H7241706   5.446   0.845   7.253  0.1954  1.5106 -0.0056
  258MOL    H7341707   5.568   0.926   7.175  1.0069  0.4782  1.7499
  258MOL    C7441708   5.575   0.764   7.465 -0.5882 -0.2722 -0.1218
  258MOL    C7541709   5.680   0.736   7.578 -0.1475 -0.6347  0.4488
  258MOL    C7641710   5.615   0.657   7.689 -0.5682  1.1346  0.3987
  258MOL    O7741711   5.625   0.533   7.697 -0.2645 -0.3516 -0.3669
  258MOL    H7841712   5.505   0.681   7.454 -1.8135  0.5213  1.3930
  258MOL    H7941713   5.498   0.833   7.502  0.1474  0.4207  0.1302
  258MOL    H8041714   5.718   0.831   7.615  0.5750 -0.4775 -0.6835
  258MOL    H8141715   5.766   0.678   7.543  0.6240  1.7878 -1.8166
  258MOL    C8241716   5.523   0.734   7.785 -0.1216 -0.4440  0.5493
  258MOL    C8341717   5.484   0.657   0.052  0.1387 -0.0344 -0.0813
  258MOL    C8441718   5.335   0.607   0.049  0.1110 -0.3529 -0.1628
  258MOL    O8541719   5.265   0.605   7.808 -0.3680 -0.1512  0.2136
  258MOL    H8641720   5.437   0.755   7.721  1.2238  1.4221 -0.6768
  258MOL    H8741721   5.581   0.822   7.811  0.2675 -0.4930 -0.1634
  258MOL    H8841722   5.491   0.711   0.147  1.5458 -0.4193  0.0419
  258MOL    H8941723   5.554   0.574   0.056  0.5744  0.2980 -0.7840
  258MOL    C9041724   5.288   0.537   0.174  0.0221 -0.4237  0.0009
  258MOL    C9141725   5.319   0.389   0.167 -0.2280 -0.0174  0.0458
  258MOL    C9241726   5.418   0.336   0.270 -0.2484 -0.0876 -0.6846
  258MOL    O9341727   5.503   0.415   0.311 -0.2126 -0.2168  0.3145
  258MOL    H9441728   5.180   0.550   0.176 -0.0973 -1.3327 -0.1254
  258MOL    H9541729   5.327   0.582   0.266 -1.2659  0.2178  0.2357
  258MOL    H9641730   5.367   0.367   0.071  0.5620 -0.3717  0.5157
  258MOL    H9741731   5.241   0.313   0.170  0.8600 -1.0830  1.7370
  258MOL    C9841732   5.387   0.201   0.331 -0.2930  0.3858 -0.1801
  258MOL    C9941733   5.483   0.152   0.438 -0.2015 -0.2220  0.2623
  258MOL   C10041734   5.426   0.162   0.580  0.1011  0.1044 -1.1073
  258MOL   O10141735   5.334   0.243   0.611  0.7667 -0.9756 -0.8008
  258MOL   H10241736   5.402   0.130   0.250  2.8687  1.9371 -1.0706
  258MOL   H10341737   5.282   0.201   0.360  0.1051  1.4872  1.3534
  258MOL   H10441738   5.575   0.210   0.430 -0.3501  0.2526  1.8395
  258MOL   H10541739   5.513   0.049   0.420  1.7394  0.2108  0.9198
  258MOL   C10641740   5.494   0.070   0.683  0.4279  0.3966  0.1184
  258MOL   C10741741   5.403   7.813   0.730 -0.2184 -0.4485 -0.4802
  258MOL   C10841742   5.449   7.676   0.686 -1.1879 -0.3571 -0.4964
  258MOL   O10941743   5.546   7.661   0.610 -0.0420  0.3938 -0.1182
  258MOL   H11041744   5.504   0.133   0.771  0.0261  1.5686 -0.6592
  258MOL   H11141745   5.599   0.049   0.662  0.6345  0.7900  0.7470
  258MOL   H11241746   5.298   7.833   0.712 -0.6806 -1.1267  1.3651
  258MOL   H11341747   5.409   7.800   0.838  1.7974 -0.1758 -0.5311
  258MOL   C11441748   5.356   7.556   0.722  0.2281 -0.4669  0.3138
  258MOL   C11541749   5.421   7.449   0.810  0.0210 -0.2308  0.2700
  258MOL   C11641750   5.406   7.479   0.958  0.4121 -0.1980  0.3854
  258MOL   O11741751   5.451   7.580   1.004 -0.0874  0.4784 -0.5224
  258MOL   H11841752   5.337   7.518   0.621 -0.9961  1.3452 -0.1565
  258MOL   H11941753   5.266   7.593   0.770  0.0087  0.0161 -0.4632
  258MOL   H12041754   5.519   7.420   0.773 -0.8181 -0.5386 -1.7808
  258MOL   H12141755   5.357   7.360   0.808  0.5254 -0.7005  2.8315
  258MOL   C12241756   5.348   7.369   1.052  1.0324  0.0116 -0.1651
  258MOL   C12341757   5.217   7.421   1.114  0.4085  0.0345  0.1231
  258MOL   C12441758   5.093   7.397   1.039  0.1767  0.0417  0.2937
  258MOL   O12541759   5.097   7.361   0.915 -0.0888 -0.4941  0.3351
  258MOL   H12641760   5.416   7.346   1.134 -0.3650 -2.4456  0.3590
  258MOL   H12741761   5.327   7.281   0.991  1.4561  0.7815 -1.4231
  258MOL   H12841762   5.225   7.528   1.132 -2.3004 -0.0881  2.3131
  258MOL   H12941763   5.193   7.367   1.206 -1.7278  0.9813  0.1640
  258MOL   C13041764   4.972   7.414   1.117  0.7828  1.0001 -0.1882
  258MOL   C13141765   4.870   7.300   1.083  0.7270  0.1335 -0.1305
  258MOL   C13241766   4.795   7.255   1.209  0.7259  0.0968 -0.7083
  258MOL   O13341767   4.815   7.308   1.324 -0.2503  0.0971  0.2824
  258MOL   H13441768   4.925   7.508   1.087  2.2152  1.0255 -2.4388
  258MOL   H13541769   4.991   7.419   1.225  0.8200 -0.5883 -0.1018
  258MOL   H13641770   4.915   7.211   1.040  2.3552  0.2885  1.1718
  258MOL   H13741771   4.809   7.328   0.998  0.7777  2.4513  0.5492
  258MOL   C13841772   4.698   7.139   1.201 -0.3822 -0.2065  0.5056
  258MOL   C13941773   4.613   7.116   1.328 -0.1395  0.6243  0.5613
  258MOL   C14041774   4.619   6.975   1.389 -0.8655 -0.6268 -0.8351
  258MOL   O14141775   4.710   6.897   1.360  0.4040 -0.0528  0.5600
  258MOL   H14241776   4.744   7.042   1.179 -3.2063 -1.4095 -0.3998
  258MOL   H14341777   4.638   7.162   1.112  2.6916  0.0345 -1.5756
  258MOL   H14441778   4.510   7.126   1.292  0.8804  0.4478 -2.6056
  258MOL   H14541779   4.643   7.176   1.414  1.2922 -0.8447  1.0988
  258MOL   C14641780   4.505   6.932   1.474 -1.1308 -0.7880 -0.1735
  258MOL   C14741781   4.528   6.803   1.562  0.3097 -0.1342 -0.9466
  258MOL   C14841782   4.548   6.846   1.703  0.0215 -0.9210  0.2385
  258MOL   O14941783   4.661   6.875   1.741 -0.0997  0.3944 -0.0753
  258MOL   H15041784   4.417   6.921   1.410 -1.1113 -0.8488 -0.1903
  258MOL   H15141785   4.469   7.018   1.531 -0.1092  0.0255 -0.7480
  258MOL   H15241786   4.618   6.753   1.527  2.1446 -0.3742  3.7403
  258MOL   H15341787   4.447   6.730   1.560 -0.7202  0.8940  1.0099
  258MOL   C15441788   4.417   6.867   1.779 -0.6493 -0.3823  0.3837
  258MOL   C15541789   4.429   6.949   1.911  0.5125  0.2224 -0.0464
  258MOL   C15641790   4.345   6.908   2.027 -0.1925 -0.1804 -0.1363
  258MOL   O15741791   4.238   6.963   2.048  0.5413 -0.6758  0.0952
  258MOL   H15841792   4.379   6.766   1.799  1.1749 -0.8037  1.9058
  258MOL   H15941793   4.348   6.919   1.713  0.6246  2.3994  1.1892
  258MOL   H16041794   4.420   7.057   1.903 -1.0608  0.0173 -1.4901
  258MOL   H16141795   4.532   6.940   1.944  0.4833 -0.4201 -0.1147
  258MOL   H16241796   4.375   6.821   2.084 -1.6927 -0.8813 -0.3836
  259MOL     C141797   3.364   2.910   4.208  0.1218 -0.5399  0.3265
  259MOL     C241798   3.491   2.829   4.180  0.1521 -0.7167 -0.6070
  259MOL     C341799   3.599   2.858   4.285  0.2865 -0.2531 -0.4179
  259MOL     O441800   3.582   2.819   4.407 -0.6009  0.1474 -0.0095
  259MOL     H541801   3.377   2.995   4.142  1.3349 -1.8302 -1.1368
  259MOL     H641802   3.271   2.860   4.180  0.0430  0.0895 -0.5378
  259MOL     H741803   3.518   2.856   4.078  0.2921  0.4322 -0.2750
  259MOL     H841804   3.467   2.723   4.182 -1.0531 -0.4470  0.0538
  259MOL     H941805   3.376   2.942   4.312 -1.5516 -1.5545  0.8522
  259MOL    C1041806   3.713   2.948   4.249  0.6865  0.4102 -0.0053
  259MOL    C1141807   3.841   2.865   4.226  0.2361 -0.3218  0.1437
  259MOL    C1241808   3.952   2.887   4.332  0.6532  0.0761  0.2878
  259MOL    O1341809   3.984   2.994   4.374 -0.0914  0.2591 -0.1078
  259MOL    H1441810   3.708   3.030   4.321 -0.8273  0.8142 -0.5459
  259MOL    H1541811   3.694   2.990   4.150 -0.6582 -2.0387 -0.8448
  259MOL    H1641812   3.896   2.891   4.135  0.5702  0.0111  0.4395
  259MOL    H1741813   3.806   2.764   4.208  0.3310 -0.2789 -0.2816
  259MOL    C1841814   4.015   2.757   4.386 -0.3583  0.4058 -0.5886
  259MOL    C1941815   4.093   2.790   4.517  0.8636  0.7587 -0.1522
  259MOL    C2041816   4.161   2.665   4.575 -0.0201 -0.2117 -0.1995
  259MOL    O2141817   4.199   2.576   4.496 -0.0766 -0.0419  0.1877
  259MOL    H2241818   4.078   2.726   4.302 -0.7336 -1.2573 -0.2765
  259MOL    H2341819   3.940   2.678   4.392  0.0040  0.0483 -0.7518
  259MOL    H2441820   4.035   2.842   4.593  1.1419 -1.1676  1.3988
  259MOL    H2541821   4.169   2.863   4.490  0.6743  1.1041  0.2510
  259MOL    C2641822   4.194   2.662   4.721  0.4756 -0.3826  0.1088
  259MOL    C2741823   4.228   2.520   4.767 -0.2341  0.4629  0.1187
  259MOL    C2841824   4.237   2.508   4.919  0.3977  0.0661  0.5666
  259MOL    O2941825   4.240   2.606   4.995 -0.4148 -0.4739  0.0601
  259MOL    H3041826   4.115   2.698   4.787 -0.1645 -1.8612  0.1682
  259MOL    H3141827   4.274   2.733   4.741  1.6503 -1.1403 -1.7523
  259MOL    H3241828   4.319   2.476   4.728 -0.3681 -0.9899  1.4145
  259MOL    H3341829   4.146   2.458   4.730 -0.2754  1.2025 -1.0513
  259MOL    C3441830   4.247   2.363   4.964 -1.0155  0.2169  0.1263
  259MOL    C3541831   4.287   2.353   5.116  0.2362  0.8011  0.2233
  259MOL    C3641832   4.436   2.314   5.150 -0.4105 -0.1243  0.2599
  259MOL    O3741833   4.481   2.209   5.105 -0.2771  0.3928 -0.3849
  259MOL    H3841834   4.325   2.303   4.916 -2.2911 -1.4774  0.1300
  259MOL    H3941835   4.148   2.326   4.936 -1.2243  0.6222  0.3301
  259MOL    H4041836   4.219   2.277   5.155  0.7821 -0.1784 -0.6958
  259MOL    H4141837   4.265   2.447   5.167 -0.5214  1.1900 -0.8088
  259MOL    C4241838   4.512   2.405   5.241  0.3166  0.3349 -0.0297
  259MOL    C4341839   4.654   2.351   5.259 -0.0636 -0.4785 -0.4302
  259MOL    C4441840   4.660   2.245   5.365 -0.0213 -0.6461 -0.5205
  259MOL    O4541841   4.640   2.265   5.486  0.1051  0.4241 -0.4743
  259MOL    H4641842   4.470   2.402   5.342  0.0012 -0.9080 -0.1791
  259MOL    H4741843   4.509   2.505   5.200  0.2268 -0.3097 -1.6453
  259MOL    H4841844   4.728   2.429   5.280  1.1035 -1.8642  0.6729
  259MOL    H4941845   4.700   2.313   5.167 -1.0480 -1.5271 -0.4951
  259MOL    C5041846   4.677   2.102   5.312  0.0490 -0.0261 -0.8411
  259MOL    C5141847   4.672   1.998   5.435 -1.0966  0.0002 -0.0114
  259MOL    C5241848   4.521   1.965   5.457 -1.1062  0.0499  0.1080
  259MOL    O5341849   4.442   1.934   5.367  0.2320 -0.1503  0.8613
  259MOL    H5441850   4.780   2.103   5.277  0.6985  3.8366  0.9248
  259MOL    H5541851   4.605   2.069   5.237 -0.8504 -0.7649  0.3393
  259MOL    H5641852   4.726   2.037   5.521  0.6485 -1.5762 -0.3751
  259MOL    H5741853   4.727   1.906   5.414  0.6552  0.9269  0.4152
  259MOL    C5841854   4.470   1.961   5.599 -0.1959  0.2129 -0.3106
  259MOL    C5941855   4.322   1.985   5.604  0.2887  0.9983  0.0688
  259MOL    C6041856   4.296   2.124   5.654  0.0020 -0.2478 -0.1070
  259MOL    O6141857   4.381   2.194   5.707 -0.2400 -0.0493 -0.4016
  259MOL    H6241858   4.529   2.038   5.648 -0.7636  0.0389  0.6700
  259MOL    H6341859   4.500   1.863   5.635 -2.3271 -0.3636  0.0157
  259MOL    H6441860   4.275   1.913   5.672  1.2895  0.1301 -0.1408
  259MOL    H6541861   4.274   1.963   5.509 -0.4816 -0.4620  0.7707
  259MOL    C6641862   4.148   2.156   5.650 -0.0446 -0.3386 -0.0788
  259MOL    C6741863   4.111   2.306   5.642  0.7664  0.4624 -0.1614
  259MOL    C6841864   4.195   2.395   5.543  0.3568 -0.4952  0.2739
  259MOL    O6941865   4.210   2.361   5.424 -0.6103 -0.1098  0.0078
  259MOL    H7041866   4.104   2.106   5.736  1.1071  1.5279  1.6411
  259MOL    H7141867   4.110   2.106   5.560  1.4799  0.2038 -1.0405
  259MOL    H7241868   4.129   2.352   5.740  3.3508 -0.1235 -0.3493
  259MOL    H7341869   4.004   2.313   5.621  0.6621  1.1465  0.5737
  259MOL    C7441870   4.259   2.519   5.598 -0.2887 -0.4629 -0.5593
  259MOL    C7541871   4.304   2.623   5.490 -0.5559 -0.4076  0.2538
  259MOL    C7641872   4.190   2.710   5.431  0.4729  0.1026  0.0669
  259MOL    O7741873   4.076   2.693   5.473  0.0720  0.4573  0.0800
  259MOL    H7841874   4.348   2.479   5.646  0.3596 -0.8550 -2.0828
  259MOL    H7941875   4.200   2.578   5.669 -0.3017 -0.3631 -0.6528
  259MOL    H8041876   4.361   2.563   5.419 -0.7270  0.3744 -0.5525
  259MOL    H8141877   4.364   2.701   5.536  0.7194 -1.1329 -0.1570
  259MOL    C8241878   4.212   2.783   5.302  0.0297 -0.5629  0.0815
  259MOL    C8341879   4.096   2.865   5.240 -0.2259 -0.5188  0.0352
  259MOL    C8441880   4.096   3.011   5.255 -0.7759 -1.1108  0.2508
  259MOL    O8541881   4.110   3.072   5.363 -0.3711  0.0542 -0.1428
  259MOL    H8641882   4.243   2.704   5.233  1.6933 -0.0144  0.1805
  259MOL    H8741883   4.301   2.845   5.312 -0.2119  0.4816 -3.5150
  259MOL    H8841884   4.008   2.831   5.293 -0.1404 -0.9531 -0.0921
  259MOL    H8941885   4.092   2.840   5.133 -0.5079 -2.6324  0.5116
  259MOL    C9041886   4.091   3.097   5.127 -0.3066  0.6689  0.8380
  259MOL    C9141887   4.144   3.244   5.148  0.1495 -0.0394 -0.1422
  259MOL    C9241888   4.127   3.337   5.027  0.4836  0.1447 -0.2491
  259MOL    O9341889   4.037   3.319   4.945  0.1357 -0.2383  0.2961
  259MOL    H9441890   3.984   3.087   5.106  0.1678 -2.4026 -0.4329
  259MOL    H9541891   4.146   3.047   5.048 -3.4491 -1.3532 -0.1616
  259MOL    H9641892   4.249   3.246   5.177 -0.4334  0.3725  2.0528
  259MOL    H9741893   4.076   3.295   5.216  0.7894 -1.1275  1.3350
  259MOL    C9841894   4.214   3.467   5.031 -0.5972 -0.6338 -0.8015
  259MOL    C9941895   4.203   3.551   4.907  0.1352 -0.3172 -1.2272
  259MOL   C10041896   4.312   3.657   4.912  0.0588  0.2900 -0.5501
  259MOL   O10141897   4.429   3.631   4.949 -0.0477 -0.3820 -0.5213
  259MOL   H10241898   4.317   3.431   5.041 -0.1685  0.8519  0.2626
  259MOL   H10341899   4.193   3.525   5.120  2.1972 -0.5197 -0.1682
  259MOL   H10441900   4.109   3.606   4.920 -0.0078 -0.9675  0.6043
  259MOL   H10541901   4.214   3.496   4.813  0.4532 -0.0809 -1.3285
  259MOL   C10641902   4.276   3.793   4.871 -0.0348  0.4941  0.5251
  259MOL   C10741903   4.391   3.896   4.842 -0.2609 -0.5487 -0.1166
  259MOL   C10841904   4.353   4.039   4.876  1.4342  0.3792  0.2558
  259MOL   O10941905   4.341   4.078   4.997  0.7153 -0.1369 -0.3010
  259MOL   H11041906   4.207   3.823   4.949 -0.2252  0.5142  0.3483
  259MOL   H11141907   4.206   3.787   4.788 -0.3573  1.1010  0.7527
  259MOL   H11241908   4.432   3.893   4.741 -2.2842  1.1408 -1.0144
  259MOL   H11341909   4.469   3.869   4.913  0.2506  0.2268 -0.3766
  259MOL   C11441910   4.311   4.127   4.749 -0.5869 -0.6592 -0.0812
  259MOL   C11541911   4.300   4.280   4.780 -0.2913 -0.5725 -0.2848
  259MOL   C11641912   4.406   4.364   4.711  0.5070 -0.4985 -0.5491
  259MOL   O11741913   4.478   4.317   4.626  0.7750 -0.2019  0.4804
  259MOL   H11841914   4.215   4.091   4.712 -0.6463 -1.6855  1.0436
  259MOL   H11941915   4.372   4.104   4.661  0.0079  1.8613 -0.3513
  259MOL   H12041916   4.293   4.304   4.886  0.6332  0.9319 -0.5538
  259MOL   H12141917   4.204   4.310   4.737 -0.2580 -2.3299 -1.6402
  259MOL   C12241918   4.415   4.514   4.743 -0.5330  0.3577  0.2044
  259MOL   C12341919   4.561   4.567   4.726  0.9817 -0.5751 -0.1809
  259MOL   C12441920   4.630   4.591   4.862 -0.6886  0.8326 -0.0350
  259MOL   O12541921   4.565   4.578   4.964  0.4735  0.2005 -0.4609
  259MOL   H12641922   4.360   4.551   4.829  0.8136  1.0852  0.7679
  259MOL   H12741923   4.364   4.555   4.656 -0.3326 -2.9925 -1.5902
  259MOL   H12841924   4.548   4.665   4.680 -2.3277 -0.9499 -0.1298
  259MOL   H12941925   4.623   4.505   4.661 -0.9322  0.8808 -3.5598
  259MOL   C13041926   4.785   4.622   4.861 -0.1370 -0.8507 -0.1876
  259MOL   C13141927   4.843   4.675   4.994  0.4292  0.1743  0.0600
  259MOL   C13241928   4.900   4.564   5.085 -0.3741 -0.0847 -0.0734
  259MOL   O13341929   4.940   4.461   5.038  0.3906  0.2008 -0.0744
  259MOL   H13441930   4.792   4.707   4.792 -1.8106 -0.6370 -0.1100
  259MOL   H13541931   4.856   4.549   4.822 -0.1207 -1.0626  0.2444
  259MOL   H13641932   4.767   4.734   5.045 -0.4264 -1.4425  0.7035
  259MOL   H13741933   4.919   4.752   4.987 -0.2006  1.0822  2.5472
  259MOL   C13841934   4.903   4.592   5.238  0.3074 -0.5351 -0.4143
  259MOL   C13941935   5.006   4.503   5.312 -0.0598 -0.4777 -0.6552
  259MOL   C14041936   4.929   4.383   5.382 -0.0172 -0.5476 -0.2506
  259MOL   O14141937   4.843   4.407   5.463  0.3614  0.1135  0.0154
  259MOL   H14241938   4.803   4.569   5.275  0.4762  0.3544  0.6287
  259MOL   H14341939   4.924   4.693   5.272  1.4644  1.2564 -5.9374
  259MOL   H14441940   5.066   4.548   5.391  0.5836 -2.4287  0.0017
  259MOL   H14541941   5.082   4.459   5.248 -1.2185 -3.1473 -0.3013
  259MOL   C14641942   4.970   4.242   5.349  0.2463  0.3708  0.1951
  259MOL   C14741943   4.865   4.130   5.381  0.4329 -0.5797 -0.4320
  259MOL   C14841944   4.884   4.056   5.512  0.5552 -0.4938 -0.9092
  259MOL   O14941945   4.991   4.027   5.557 -0.2836 -0.5825  0.3043
  259MOL   H15041946   5.057   4.223   5.413 -0.1455 -1.1712  0.2818
  259MOL   H15141947   4.996   4.229   5.244 -0.5192  1.0984 -0.0873
  259MOL   H15241948   4.882   4.047   5.312 -1.2912 -1.5653  0.2917
  259MOL   H15341949   4.764   4.169   5.383  0.2832 -0.9754  0.8813
  259MOL   C15441950   4.750   4.035   5.590 -0.0801  0.0283  0.1284
  259MOL   C15541951   4.775   3.975   5.730  0.0946  0.2724  0.4451
  259MOL   C15641952   4.648   3.924   5.794  0.4041  1.2894 -0.3778
  259MOL   O15741953   4.543   3.924   5.725  0.3576 -0.2455  0.6525
  259MOL   H15841954   4.686   3.973   5.528 -0.7555 -0.1533  0.9860
  259MOL   H15941955   4.700   4.131   5.606 -0.4948 -0.4087  1.5677
  259MOL   H16041956   4.823   4.049   5.793  0.4961  1.3204 -1.0664
  259MOL   H16141957   4.842   3.890   5.722  0.6788  0.7535  0.1910
  259MOL   H16241958   4.657   3.881   5.894 -1.0338  2.8281  0.4381
  260MOL     C141959   2.808   1.220   7.715  0.5262 -0.2447 -1.3754
  260MOL     C241960   2.834   1.341   7.815 -0.9029 -0.3501 -0.0018
  260MOL     C341961   2.939   1.307   0.072 -0.3257 -0.1210  0.1407
  260MOL     O441962   2.948   1.191   0.112  0.3292  0.1409  0.3693
  260MOL     H541963   2.750   1.145   7.769  0.0889  2.5025  2.1525
  260MOL     H641964   2.748   1.242   7.627 -1.1341  0.8632 -0.0106
  260MOL     H741965   2.731   1.356   7.847 -0.8257 -1.3927  0.7858
  260MOL     H841966   2.862   1.437   7.771  1.2120 -0.1989  1.5740
  260MOL     H941967   2.907   1.186   7.685  0.7282 -0.1287 -0.8427
  260MOL    C1041968   3.031   1.419   0.119 -0.2003 -0.2909 -0.2318
  260MOL    C1141969   3.170   1.420   0.051  0.9786  0.5192 -0.3536
  260MOL    C1241970   3.212   1.571   0.024  0.1052 -0.0674 -0.1174
  260MOL    O1341971   3.152   1.669   0.066 -0.2416 -0.1869  0.1163
  260MOL    H1441972   3.022   1.432   0.227  0.8166  0.2467 -0.2073
  260MOL    H1541973   2.988   1.512   0.083 -0.2127 -0.6683 -1.2069
  260MOL    H1641974   3.180   1.369   7.814  0.2443  0.4384 -0.3911
  260MOL    H1741975   3.244   1.377   0.119  0.3922 -0.2526 -0.2009
  260MOL    C1841976   3.343   1.592   7.799  0.8773  1.0089 -0.2769
  260MOL    C1941977   3.350   1.725   7.730 -1.1315  0.7681 -0.2665
  260MOL    C2041978   3.403   1.721   7.586 -0.1647 -0.2765  0.4173
  260MOL    O2141979   3.456   1.618   7.538  0.1119  0.0641 -0.0733
  260MOL    H2241980   3.354   1.512   7.726 -1.5079  1.8357 -1.6069
  260MOL    H2341981   3.425   1.581   0.011  0.4642 -2.4652 -0.2290
  260MOL    H2441982   3.415   1.791   7.786  1.6255 -0.3030 -2.1084
  260MOL    H2541983   3.260   1.787   7.729 -0.0938  2.3737  1.8480
  260MOL    C2641984   3.367   1.840   7.493  0.3516 -0.6362 -0.6454
  260MOL    C2741985   3.408   1.810   7.348 -0.3486  0.0664  0.6959
  260MOL    C2841986   3.304   1.736   7.272  0.0723 -0.2127 -0.2601
  260MOL    O2941987   3.190   1.726   7.309 -0.0632  0.0034  0.1228
  260MOL    H3041988   3.421   1.928   7.529  0.0807 -0.8606  0.3258
  260MOL    H3141989   3.261   1.868   7.489 -0.1650 -2.4473 -0.2114
  260MOL    H3241990   3.497   1.747   7.346 -0.9928 -0.8237 -0.4010
  260MOL    H3341991   3.422   1.901   7.290 -0.1117  0.7298  1.7751
  260MOL    C3441992   3.352   1.690   7.137 -0.0378  0.7237  1.1546
  260MOL    C3541993   3.339   1.540   7.110 -0.8507 -0.9638 -0.3489
  260MOL    C3641994   3.457   1.474   7.037  0.9002 -0.1728 -0.8406
  260MOL    O3741995   3.543   1.534   6.974  0.6449 -0.2579  0.6573
  260MOL    H3841996   3.451   1.730   7.116  0.7015 -1.4655  0.2893
  260MOL    H3941997   3.299   1.741   7.057 -0.1628  0.9777  1.3991
  260MOL    H4041998   3.255   1.523   7.044 -0.0957 -0.2955 -1.5018
  260MOL    H4141999   3.329   1.486   7.204  0.6218 -0.7115 -0.0356
  260MOL    C4242000   3.468   1.321   7.049  1.0524 -0.0482  0.0396
  260MOL    C4342001   3.501   1.261   6.914  0.1967 -0.1495 -0.2487
  260MOL    C4442002   3.593   1.145   6.936  0.2789  0.2437 -0.1802
  260MOL    O4542003   3.693   1.149   7.014 -0.3736 -0.0115 -0.4725
  260MOL    H4642004   3.376   1.289   7.097  0.7837 -1.0263 -1.1001
  260MOL    H4742005   3.552   1.294   7.114  0.2128 -0.3722  0.9980
  260MOL    H4842006   3.560   1.331   6.854  0.6277 -0.4898 -0.2293
  260MOL    H4942007   3.416   1.231   6.852 -0.1252 -1.1120  0.6519
  260MOL    C5042008   3.548   1.020   6.869  0.4021 -0.1615  0.1572
  260MOL    C5142009   3.661   0.919   6.851  0.0871  0.7167  0.1717
  260MOL    C5242010   3.644   0.798   6.951 -0.5424 -0.0959  0.0703
  260MOL    O5342011   3.548   0.789   7.032  0.2006 -0.2686 -0.3172
  260MOL    H5442012   3.505   1.035   6.770  0.6939 -2.0991 -0.2910
  260MOL    H5542013   3.467   0.983   6.931 -0.4351  0.1514 -0.7453
  260MOL    H5642014   3.756   0.970   6.866 -0.6489  1.6938  1.5681
  260MOL    H5742015   3.663   0.891   6.745  1.2129  2.6794 -0.3611
  260MOL    C5842016   3.742   0.684   6.937 -0.8182  0.3830  0.0332
  260MOL    C5942017   3.668   0.562   6.878  0.5040 -0.7826 -0.1409
  260MOL    C6042018   3.747   0.445   6.831 -0.5948  0.2547 -0.5307
  260MOL    O6142019   3.870   0.452   6.822  0.0796  0.1367 -0.3620
  260MOL    H6242020   3.783   0.659   7.035  0.1233 -0.8811 -0.6648
  260MOL    H6342021   3.825   0.708   6.870 -0.8583  1.6967  0.4465
  260MOL    H6442022   3.591   0.591   6.807  0.1070  0.8250  0.9326
  260MOL    H6542023   3.607   0.517   6.956 -0.2892  1.3233  0.4678
  260MOL    C6642024   3.671   0.321   6.773  0.1135  0.6921 -0.2942
  260MOL    C6742025   3.628   0.224   6.885 -0.1221  0.3560 -0.2235
  260MOL    C6842026   3.488   0.240   6.938 -0.3687 -0.0883 -0.2331
  260MOL    O6942027   3.403   0.319   6.897  0.6011 -0.7052 -0.0289
  260MOL    H7042028   3.742   0.255   6.723 -1.7156 -0.6868 -1.0760
  260MOL    H7142029   3.599   0.348   6.696  2.5594  2.2308 -2.1676
  260MOL    H7242030   3.702   0.213   6.964  0.5585  1.7746 -0.6516
  260MOL    H7342031   3.621   0.131   6.828  1.8940 -1.0198  1.7086
  260MOL    C7442032   3.440   0.149   7.044  0.0893 -0.0402 -0.5695
  260MOL    C7542033   3.402   0.223   7.171 -1.0355  0.3124  0.0247
  260MOL    C7642034   3.296   0.141   7.249  0.0092 -0.6031  0.1410
  260MOL    O7742035   3.181   0.178   7.253  0.0568 -0.3601  0.5744
  260MOL    H7842036   3.508   0.064   7.057 -0.7039 -0.8752 -1.8150
  260MOL    H7942037   3.348   0.096   7.019 -0.4951  0.1211  1.1808
  260MOL    H8042038   3.367   0.321   7.139 -1.1203  1.0505  2.2896
  260MOL    H8142039   3.491   0.241   7.232 -1.3373  1.4523  0.1468
  260MOL    C8242040   3.347   0.005   7.306 -0.1928 -0.6710  0.6815
  260MOL    C8342041   3.301   7.827   7.447  0.5112  1.1074 -0.4172
  260MOL    C8442042   3.322   7.679   7.481 -0.1199 -0.3383 -0.4385
  260MOL    O8542043   3.423   7.614   7.449  0.0311  0.1594 -0.5768
  260MOL    H8642044   3.454   7.849   7.292 -0.5355 -2.6815 -0.0124
  260MOL    H8742045   3.295   7.785   7.251  1.2541 -2.2206  1.4846
  260MOL    H8842046   3.199   0.003   7.467  0.9631  0.2870  3.6741
  260MOL    H8942047   3.364   0.020   7.519 -1.5129  1.1461  1.3861
  260MOL    C9042048   3.218   7.619   7.570  0.2479  0.2493 -0.0199
  260MOL    C9142049   3.241   7.469   7.615 -0.1653 -0.6015 -0.3676
  260MOL    C9242050   3.123   7.413   7.692 -0.3354  0.5608 -0.2572
  260MOL    O9342051   3.047   7.476   7.766  0.5122  0.2517  0.4918
  260MOL    H9442052   3.119   7.629   7.527 -0.1798 -2.1136  0.3800
  260MOL    H9542053   3.206   7.685   7.657  0.6942 -0.3521  0.5019
  260MOL    H9642054   3.327   7.457   7.682  0.2542 -0.7740 -0.9306
  260MOL    H9742055   3.260   7.411   7.524 -1.9137 -0.4395 -0.8425
  260MOL    C9842056   3.106   7.260   7.689 -0.8245  1.3206  0.1953
  260MOL    C9942057   3.007   7.226   7.567 -0.0608 -0.5109  0.1098
  260MOL   C10042058   2.901   7.133   7.619 -0.5086  0.5939  0.2957
  260MOL   O10142059   2.784   7.175   7.618 -0.6225  0.1005 -0.3020
  260MOL   H10242060   3.067   7.219   7.782 -0.8579  0.9435  0.0147
  260MOL   H10342061   3.202   7.213   7.669 -0.7483  0.3448  2.6183
  260MOL   H10442062   3.065   7.186   7.483 -0.7829 -0.5868 -0.3646
  260MOL   H10542063   2.948   7.309   7.529 -2.7569 -1.7567  1.4114
  260MOL   C10642064   2.946   6.996   7.677 -0.5554 -0.2682  0.0997
  260MOL   C10742065   2.850   6.946   7.786 -0.6661 -0.7047  0.1474
  260MOL   C10842066   2.916   6.946   0.064 -0.1307 -0.4614 -0.7834
  260MOL   O10942067   3.020   7.011   0.084 -0.6744  0.2839  0.5861
  260MOL   H11042068   3.051   7.006   7.705 -0.5908 -1.6824  0.7569
  260MOL   H11142069   2.940   6.918   7.601  1.0053 -0.7539  0.4709
  260MOL   H11242070   2.818   6.845   7.761 -1.2742 -0.7138  0.9274
  260MOL   H11342071   2.751   6.991   7.789  0.1873  1.7929 -4.4860
  260MOL   C11442072   2.848   6.882   0.180 -0.5629 -0.1746  0.2192
  260MOL   C11542073   2.949   6.845   0.295  0.1871 -0.3012  0.0324
  260MOL   C11642074   3.010   6.708   0.266 -0.0819  0.5736 -0.6736
  260MOL   O11742075   2.984   6.639   0.165  0.5691  0.5153  0.0992
  260MOL   H11842076   2.791   6.798   0.140 -0.1785 -0.5869  0.5238
  260MOL   H11942077   2.786   6.967   0.211  1.3329  0.6496  1.8874
  260MOL   H12042078   2.900   6.847   0.392  0.4776  1.8866  0.1613
  260MOL   H12142079   3.023   6.921   0.318 -0.7837  0.4432  0.6933
  260MOL   C12242080   3.121   6.662   0.357 -0.6147 -0.9113  0.2489
  260MOL   C12342081   3.172   6.517   0.341 -0.7227  0.8303 -0.2339
  260MOL   C12442082   3.250   6.492   0.210 -0.2567 -0.3290 -0.5594
  260MOL   O12542083   3.314   6.583   0.152  0.5948 -0.4403 -0.2268
  260MOL   H12642084   3.091   6.677   0.461  1.1543  2.0158  0.3918
  260MOL   H12742085   3.201   6.734   0.336 -0.6628 -1.0508 -0.4146
  260MOL   H12842086   3.079   6.461   0.343 -0.2339  0.0270  1.6853
  260MOL   H12942087   3.221   6.480   0.431 -1.1987  0.5502 -0.0896
  260MOL   C13042088   3.258   6.349   0.158 -0.1847  0.5116 -0.5437
  260MOL   C13142089   3.308   6.333   0.012  0.0051  0.3214 -0.2788
  260MOL   C13242090   3.197   6.330   7.764  0.1828  0.2770 -0.1518
  260MOL   O13342091   3.171   6.225   7.703  0.1135  0.1402 -0.3221
  260MOL   H13442092   3.172   6.297   0.199  0.5195  0.8994  1.4491
  260MOL   H13542093   3.338   6.309   0.219 -1.0188  0.5818  0.6040
  260MOL   H13642094   3.362   6.238   0.013 -2.3855 -1.0802 -0.9253
  260MOL   H13742095   3.395   6.396   7.854  0.8435 -1.1173 -1.4066
  260MOL   C13842096   3.118   6.452   7.742  0.4979 -0.3528  0.0236
  260MOL   C13942097   2.960   6.436   7.724  0.7699 -0.1660 -0.2389
  260MOL   C14042098   2.914   6.442   7.581  0.2281  0.6996  0.0014
  260MOL   O14142099   2.965   6.523   7.508  0.2689  0.3442 -0.6183
  260MOL   H14242100   3.157   6.512   7.659  0.2419  0.1216  0.2462
  260MOL   H14342101   3.134   6.519   7.826 -3.5012  1.1454 -0.2757
  260MOL   H14442102   2.900   6.505   7.783 -0.8215 -0.7905 -1.1168
  260MOL   H14542103   2.929   6.335   7.752  1.2189 -1.4291 -4.0182
  260MOL   C14642104   2.810   6.340   7.528 -0.6599 -0.0303  0.1418
  260MOL   C14742105   2.669   6.398   7.555  0.7491 -1.0436  0.0082
  260MOL   C14842106   2.589   6.314   7.655 -0.4988 -0.5391  0.6596
  260MOL   O14942107   2.550   6.199   7.634 -0.8838  0.7388  0.2000
  260MOL   H15042108   2.823   6.243   7.577 -0.5787 -0.3433 -0.4974
  260MOL   H15142109   2.847   6.323   7.427 -0.2594 -0.3910  0.3471
  260MOL   H15242110   2.612   6.404   7.463  0.6870  1.2913  0.1701
  260MOL   H15342111   2.666   6.502   7.588  0.6124 -0.4321 -1.8476
  260MOL   C15442112   2.542   6.390   7.777  0.0838  0.2384 -0.5414
  260MOL   C15542113   2.435   6.307   7.845  0.5491  0.3048  0.3119
  260MOL   C15642114   2.293   6.317   7.789 -0.5059  0.1248  0.1191
  260MOL   O15742115   2.267   6.397   7.697 -0.2221  0.6812 -0.1784
  260MOL   H15842116   2.507   6.490   7.753 -1.5596  1.0734  4.6653
  260MOL   H15942117   2.631   6.397   7.840 -0.9880  2.4009  0.7956
  260MOL   H16042118   2.417   6.333   0.090  0.7267  0.4171  0.3143
  260MOL   H16142119   2.463   6.202   7.856  0.0838  0.3152  1.6325
  260MOL   H16242120   2.224   6.251   7.843  0.2574 -0.6655  0.1476
  261MOL     C142121   0.350   7.242   0.712 -0.0492  0.3833  0.5188
  261MOL     C242122   0.481   7.178   0.737 -0.5159 -0.3962 -0.5553
  261MOL     C342123   0.578   7.249   0.839 -0.4504  0.3581  0.3137
  261MOL     O442124   0.614   7.196   0.946  0.2238 -0.4234  0.5258
  261MOL     H542125   0.270   7.175   0.680  0.7630 -2.1842  3.6193
  261MOL     H642126   0.299   7.295   0.792  2.1565  2.4286  0.6066
  261MOL     H742127   0.534   7.176   0.641  0.7172 -1.5328  0.1288
  261MOL     H842128   0.477   7.077   0.777  1.9434 -0.8326 -1.3029
  261MOL     H942129   0.367   7.318   0.636  1.0316 -1.3082 -0.9948
  261MOL    C1042130   0.631   7.390   0.805  0.7360 -1.2517 -0.6277
  261MOL    C1142131   0.770   7.441   0.850  0.4604  0.9150 -0.3653
  261MOL    C1242132   0.752   7.595   0.848  0.0920  0.7031  0.1014
  261MOL    O1342133   0.750   7.654   0.741  0.6643  0.2471 -0.5229
  261MOL    H1442134   0.556   7.460   0.842  0.3014 -1.8342 -0.3944
  261MOL    H1542135   0.620   7.393   0.697 -1.2664 -2.7239 -0.4959
  261MOL    H1642136   0.844   7.399   0.782 -0.5141 -2.4058  0.5623
  261MOL    H1742137   0.796   7.397   0.946 -0.5304 -0.3140 -0.6470
  261MOL    C1842138   0.745   7.666   0.975  0.3272 -0.4273  0.4873
  261MOL    C1942139   0.701   7.809   0.967  0.2467 -0.3494 -0.1491
  261MOL    C2042140   0.630   7.851   1.094 -0.3546  0.2328 -0.3147
  261MOL    O2142141   0.584   7.768   1.176  0.0594  0.3921  0.0064
  261MOL    H2242142   0.835   7.659   1.037  1.8876 -0.2908 -1.7243
  261MOL    H2342143   0.657   7.616   1.013 -0.4318 -0.0580 -0.7629
  261MOL    H2442144   0.638   7.830   0.880 -0.1399 -1.0018 -0.0301
  261MOL    H2542145   0.790   0.006   0.938  1.1577 -1.0378  1.3006
  261MOL    C2642146   0.619   0.142   1.108  0.4500 -0.5382  1.0669
  261MOL    C2742147   0.703   0.208   1.216  0.8899  0.6745  0.2314
  261MOL    C2842148   0.754   0.352   1.192 -0.5397 -0.5935  0.2398
  261MOL    O2942149   0.834   0.379   1.097 -0.4295  0.0690 -0.6155
  261MOL    H3042150   0.513   0.159   1.125  0.5703  1.2373  0.2130
  261MOL    H3142151   0.637   0.188   1.010 -0.8015  1.0667  1.5785
  261MOL    H3242152   0.793   0.149   1.231 -1.4922 -2.9206  0.9382
  261MOL    H3342153   0.647   0.216   1.310 -1.4403  1.4048 -1.1815
  261MOL    C3442154   0.712   0.461   1.292  0.3564  0.1716 -0.8127
  261MOL    C3542155   0.790   0.444   1.425 -0.3031  0.2524  0.1398
  261MOL    C3642156   0.712   0.388   1.544 -0.3024 -0.6974 -0.1039
  261MOL    O3742157   0.592   0.377   1.538  0.1151  0.7033 -0.2184
  261MOL    H3842158   0.604   0.463   1.305  0.4185 -0.1366 -0.2503
  261MOL    H3942159   0.732   0.563   1.258  3.4275  0.1697  0.8583
  261MOL    H4042160   0.839   0.536   1.456  1.1475 -0.8434  1.1218
  261MOL    H4142161   0.872   0.375   1.405  1.0190  2.4151 -2.1328
  261MOL    C4242162   0.795   0.340   1.656  0.1257  0.6923  0.3585
  261MOL    C4342163   0.711   0.271   1.764 -0.0101  0.2341  0.2448
  261MOL    C4442164   0.639   0.344   1.878 -0.0458  0.4965 -0.4838
  261MOL    O4542165   0.590   0.458   1.867 -0.9462 -0.2801 -0.0050
  261MOL    H4642166   0.857   0.420   1.696 -1.0153  1.9330 -0.2980
  261MOL    H4742167   0.863   0.272   1.604  0.4286  0.7350  0.6950
  261MOL    H4842168   0.783   0.208   1.816 -0.1235 -0.1976 -0.1142
  261MOL    H4942169   0.633   0.208   1.721  2.4685 -2.0817 -1.0154
  261MOL    C5042170   0.634   0.261   2.006 -0.2464  0.5072 -0.1293
  261MOL    C5142171   0.564   0.323   2.126 -0.1071  0.5024  0.2283
  261MOL    C5242172   0.473   0.227   2.201  0.9325 -0.8473  0.7369
  261MOL    O5342173   0.488   0.105   2.194  0.1846 -0.7454  0.5554
  261MOL    H5442174   0.741   0.253   2.024  0.4248  1.2085 -3.4326
  261MOL    H5542175   0.598   0.161   1.980  0.3272  0.4110 -0.5598
  261MOL    H5642176   0.495   0.401   2.094 -0.4626 -0.1459 -0.6127
  261MOL    H5742177   0.637   0.360   2.198 -1.9990  0.9711  1.9205
  261MOL    C5842178   0.360   0.289   2.282 -0.2642 -0.7436 -0.3897
  261MOL    C5942179   0.268   0.200   2.362 -0.0620 -0.1442  0.5032
  261MOL    C6042180   0.129   0.201   2.295  1.0150 -0.5390  1.1468
  261MOL    O6142181   0.068   0.301   2.265  0.1246 -0.3214  0.4019
  261MOL    H6242182   0.299   0.339   2.206  0.4140  4.6533  2.3694
  261MOL    H6342183   0.399   0.371   2.342  1.1368 -1.6727 -0.0077
  261MOL    H6442184   0.262   0.221   2.469  0.0909 -0.2074  0.5256
  261MOL    H6542185   0.311   0.100   2.366  1.8483  0.6127 -0.5826
  261MOL    C6642186   0.046   0.072   2.292  0.6443 -0.3342  0.0025
  261MOL    C6742187   7.775   0.088   2.210 -1.2201 -0.0111  0.2593
  261MOL    C6842188   7.760   0.010   2.076  0.3233  0.4354  0.3717
  261MOL    O6942189   7.839   7.779   2.050  0.0622 -0.0105  0.1426
  261MOL    H7042190   0.029   0.035   2.393 -1.5948  0.7635  0.0586
  261MOL    H7142191   0.097   7.847   2.244  3.5068 -1.4715  4.6328
  261MOL    H7242192   7.734   0.186   2.186  0.0872  0.4488 -0.0916
  261MOL    H7342193   7.700   0.046   2.277 -2.0014  2.9802  1.3314
  261MOL    C7442194   7.635   0.033   1.995  0.6237  0.3619 -0.3075
  261MOL    C7542195   7.653   0.020   1.849  0.2121  0.5032 -0.0465
  261MOL    C7642196   7.587   0.127   1.765  0.0318 -0.4349  0.5933
  261MOL    O7742197   7.479   0.168   1.800 -0.8318 -0.4392 -0.2591
  261MOL    H7842198   7.601   0.131   2.027 -2.9581 -1.0439  0.4932
  261MOL    H7942199   7.553   7.825   2.022 -1.1512  2.7526  0.4149
  261MOL    H8042200   7.639   7.778   1.809 -1.3744 -0.2478  2.2475
  261MOL    H8142201   7.757   0.046   1.828  1.4688  0.7518  5.5496
  261MOL    C8242202   7.638   0.153   1.622  0.4365  0.7871  0.6426
  261MOL    C8342203   7.584   0.288   1.568 -0.7643 -0.3111  0.5637
  261MOL    C8442204   7.668   0.356   1.461  0.2365 -0.3372  0.9609
  261MOL    O8542205   7.723   0.282   1.372 -0.2580 -0.0655 -0.8023
  261MOL    H8642206   7.621   0.069   1.554 -0.5643 -0.7017  2.6881
  261MOL    H8742207   7.746   0.169   1.630  0.7249 -0.3887 -0.5765
  261MOL    H8842208   7.571   0.364   1.645  0.3759  0.5604 -0.0698
  261MOL    H8942209   7.486   0.273   1.524 -0.7028  1.0669 -0.0797
  261MOL    C9042210   7.673   0.515   1.453  0.3247  0.0959 -0.5491
  261MOL    C9142211   7.779   0.572   1.351  0.1361  0.8061 -0.6681
  261MOL    C9242212   7.714   0.610   1.209 -0.2717 -0.0705  0.0151
  261MOL    O9342213   7.590   0.617   1.190 -0.2615 -0.3044 -0.6354
  261MOL    H9442214   7.712   0.551   1.549 -2.2341  0.8862  0.2433
  261MOL    H9542215   7.575   0.561   1.441  0.9146  1.1540 -1.4289
  261MOL    H9642216   7.857   0.499   1.327  0.4773  0.6919  0.7730
  261MOL    H9742217   7.819   0.671   1.376 -0.7438  0.5592  1.8263
  261MOL    C9842218   7.819   0.632   1.104 -0.1126  0.1061  0.2025
  261MOL    C9942219   7.759   0.672   0.970 -0.2108  0.2309 -0.5252
  261MOL   C10042220   7.806   0.806   0.925  0.3882 -0.0572 -0.3466
  261MOL   O10142221   0.031   0.872   0.979 -0.2787  0.0206 -0.1120
  261MOL   H10242222   0.023   0.544   1.091  0.9045  1.1755 -2.4452
  261MOL   H10342223   0.035   0.706   1.130  1.5115 -1.2188 -0.6307
  261MOL   H10442224   7.650   0.662   0.968 -0.0388 -3.5725  2.4955
  261MOL   H10542225   7.792   0.593   0.902 -0.5642  1.8913 -2.6697
  261MOL   C10642226   7.737   0.850   0.792 -0.1967 -0.1760 -0.3172
  261MOL   C10742227   7.840   0.928   0.713 -0.7988 -0.5885  0.5924
  261MOL   C10842228   0.083   0.844   0.637 -0.4582  0.3956  0.1948
  261MOL   O10942229   0.085   0.722   0.640 -0.1948 -0.6918  0.0335
  261MOL   H11042230   7.655   0.917   0.814 -0.2154  0.2534 -1.6090
  261MOL   H11142231   7.704   0.769   0.726 -1.1897  0.7018 -0.8974
  261MOL   H11242232   0.032   0.992   0.784 -1.6883  0.9549 -0.1199
  261MOL   H11342233   7.801   0.983   0.627  2.3236 -1.8947 -1.7890
  261MOL   C11442234   0.173   0.911   0.539  0.5901  0.4560 -0.1479
  261MOL   C11542235   0.250   1.023   0.617  0.0563 -0.2406 -0.0480
  261MOL   C11642236   0.398   0.984   0.642  0.1393  0.2526  0.5079
  261MOL   O11742237   0.434   0.917   0.737 -0.0201  0.1483  0.7725
  261MOL   H11842238   0.120   0.959   0.458  1.5385  1.6717 -0.0616
  261MOL   H11942239   0.246   0.834   0.514 -0.0556 -0.6806  1.3910
  261MOL   H12042240   0.210   1.043   0.717  1.3063  2.1973  0.0040
  261MOL   H12142241   0.236   1.117   0.563 -2.9378  0.1882  1.3820
  261MOL   C12242242   0.505   1.037   0.550 -0.2066  0.6125  0.2823
  261MOL   C12342243   0.600   0.929   0.504 -0.3585 -0.5379  0.3441
  261MOL   C12442244   0.550   0.863   0.373  0.2847 -0.0316  0.4016
  261MOL   O12542245   0.426   0.869   0.347 -0.2164  0.2679 -0.1976
  261MOL   H12642246   0.566   1.105   0.609  0.2196 -1.2250  2.0116
  261MOL   H12742247   0.467   1.095   0.466  1.4799  2.2698  0.6285
  261MOL   H12842248   0.619   0.861   0.587 -0.8931 -0.8214  0.2400
  261MOL   H12942249   0.702   0.963   0.484  0.4940 -2.4043  1.4063
  261MOL   C13042250   0.657   0.810   0.283  0.4345 -0.6567  0.8184
  261MOL   C13142251   0.627   0.670   0.239  0.0216  0.7738  0.1345
  261MOL   C13242252   0.748   0.575   0.251  0.4616  0.1739  0.2827
  261MOL   O13342253   0.852   0.606   0.198 -0.0358 -0.2640 -0.4685
  261MOL   H13442254   0.753   0.799   0.335  0.4262 -0.1772  0.9315
  261MOL   H13542255   0.676   0.867   0.192  0.1140  0.3431  1.3768
  261MOL   H13642256   0.593   0.663   0.136  1.8357 -1.8137 -0.3389
  261MOL   H13742257   0.544   0.625   0.295 -1.8639  0.8078 -2.5174
  261MOL   C13842258   0.721   0.440   0.309 -0.5444  1.0145 -0.6660
  261MOL   C13942259   0.848   0.358   0.316  0.5207  0.6187  0.3092
  261MOL   C14042260   0.835   0.230   0.236 -0.4525  0.0014  0.4523
  261MOL   O14142261   0.728   0.184   0.201  0.0934 -0.3249 -0.9363
  261MOL   H14242262   0.649   0.383   0.249 -1.4684  1.6661 -0.1825
  261MOL   H14342263   0.677   0.442   0.409 -3.3986  0.7222 -1.8519
  261MOL   H14442264   0.878   0.335   0.419  0.4981  3.7190  1.0368
  261MOL   H14542265   0.933   0.408   0.270  1.5424 -2.2454 -1.0454
  261MOL   C14642266   0.965   0.150   0.217 -0.6905  0.0595 -0.1654
  261MOL   C14742267   0.960   0.038   0.103  0.0521  0.3516  0.0274
  261MOL   C14842268   0.890   7.763   0.136  0.6887  0.1792 -0.2115
  261MOL   O14942269   0.883   7.724   0.251 -0.1262 -0.0104 -0.1087
  261MOL   H15042270   1.000   0.112   0.312  0.1651 -1.2034 -0.9677
  261MOL   H15142271   1.040   0.224   0.189 -0.1731 -0.1222  0.7480
  261MOL   H15242272   1.060   7.858   0.086 -0.3705  0.4559 -2.9438
  261MOL   H15342273   0.933   0.088   0.009  0.4106 -0.0860 -0.3050
  261MOL   C15442274   0.818   7.690   0.029  0.6171 -0.0246 -0.2130
  261MOL   C15542275   0.880   7.555   7.846 -0.2712 -0.3464  0.1409
  261MOL   C15642276   0.895   7.545   7.697 -0.5521  0.2877  0.1052
  261MOL   O15742277   0.954   7.448   7.647  0.2858 -0.2225  0.3811
  261MOL   H15842278   0.823   7.763   7.807  1.5871 -0.9298 -0.9840
  261MOL   H15942279   0.715   7.678   0.061  0.5217  0.4679 -0.3246
  261MOL   H16042280   0.827   7.467   0.023 -1.1853  0.5311  0.9831
  261MOL   H16142281   0.978   7.549   0.034 -0.1744 -0.1256 -0.0314
  261MOL   H16242282   0.847   7.625   7.642 -1.0446  0.5150  0.8664
  262MOL     C142283   6.880   2.620   5.023  0.8713  0.0066 -0.4783
  262MOL     C242284   6.737   2.601   4.970  0.0044  0.2158 -0.1494
  262MOL     C342285   6.737   2.591   4.823  0.3977 -0.1185  0.5514
  262MOL     O442286   6.758   2.484   4.773  0.0662 -0.6543  0.1981
  262MOL     H542287   6.903   2.726   5.020  0.8177  0.1163  1.9869
  262MOL     H642288   6.889   2.572   5.120 -0.6815 -0.8701 -0.7450
  262MOL     H742289   6.658   2.671   4.998  0.7207  0.2098  1.9604
  262MOL     H842290   6.716   2.499   5.004  1.7129  0.3088  1.2679
  262MOL     H942291   6.940   2.558   4.956 -0.0055  0.3346 -1.5874
  262MOL    C1042292   6.746   2.717   4.741 -0.0215 -0.5487  0.0037
  262MOL    C1142293   6.701   2.705   4.599  0.4203 -0.2546  0.1005
  262MOL    C1242294   6.820   2.705   4.499 -0.1875  0.2348  0.0684
  262MOL    O1342295   6.939   2.720   4.518  0.2290  0.1138  0.0426
  262MOL    H1442296   6.845   2.762   4.748 -0.1038 -0.3335 -0.1818
  262MOL    H1542297   6.680   2.784   4.796  1.0797  1.0575 -0.5749
  262MOL    H1642298   6.647   2.798   4.582  0.4531 -0.6605 -2.3881
  262MOL    H1742299   6.632   2.624   4.577  1.1907 -1.2576  1.2795
  262MOL    C1842300   6.778   2.685   4.359 -0.4973  0.2237  0.0636
  262MOL    C1942301   6.770   2.533   4.324  0.3689  0.5287 -0.2646
  262MOL    C2042302   6.902   2.474   4.273  0.3297  0.2036 -0.5021
  262MOL    O2142303   7.004   2.536   4.274  0.1398  0.2935  0.3471
  262MOL    H2242304   6.849   2.725   4.287 -0.1714 -0.0167  0.2491
  262MOL    H2342305   6.678   2.726   4.349 -0.0730  1.2602  0.1017
  262MOL    H2442306   6.693   2.513   4.250  0.8987 -1.1187 -0.3788
  262MOL    H2542307   6.743   2.473   4.411 -2.4737  0.7463 -0.9357
  262MOL    C2642308   6.902   2.331   4.229 -0.2754 -0.3879 -0.8167
  262MOL    C2742309   7.018   2.245   4.277  0.0296 -0.0049  0.3341
  262MOL    C2842310   7.075   2.153   4.170  0.6363 -0.1008 -0.1446
  262MOL    O2942311   7.005   2.107   4.077  0.4155 -0.3556  0.4416
  262MOL    H3042312   6.901   2.326   4.120 -3.7049 -1.6849 -0.7863
  262MOL    H3142313   6.805   2.297   4.266  0.5652 -1.8375  0.0916
  262MOL    H3242314   6.978   2.182   4.356 -2.6235 -1.2247 -1.9229
  262MOL    H3342315   7.104   2.302   4.312  0.8533 -1.4738  0.7343
  262MOL    C3442316   7.224   2.119   4.183  0.1873  0.3569 -0.3840
  262MOL    C3542317   7.292   2.095   4.053 -0.8930  0.4528 -0.9175
  262MOL    C3642318   7.373   1.966   4.057  0.3404  0.4666  0.3345
  262MOL    O3742319   7.426   1.940   4.158 -0.5088  0.1973 -0.3091
  262MOL    H3842320   7.247   2.045   4.259 -0.4262 -0.8788 -1.3954
  262MOL    H3942321   7.281   2.204   4.221  2.0297 -1.8101  1.8695
  262MOL    H4042322   7.355   2.182   4.036 -2.2437  2.3538  3.1987
  262MOL    H4142323   7.221   2.089   3.970 -0.9445  1.5757 -0.9506
  262MOL    C4242324   7.384   1.881   3.927 -0.2987  0.0965  0.0975
  262MOL    C4342325   7.493   1.774   3.930 -0.7704  0.1109 -0.4683
  262MOL    C4442326   7.538   1.733   3.792 -0.0796 -0.6212  0.0822
  262MOL    O4542327   7.508   1.620   3.752  0.0549  0.1910 -0.0964
  262MOL    H4642328   7.401   1.953   3.847 -2.9584 -0.2730 -0.8469
  262MOL    H4742329   7.282   1.859   3.897 -0.8604  0.5575  1.6491
  262MOL    H4842330   7.482   1.684   3.991 -0.4952 -1.4700 -2.6739
  262MOL    H4942331   7.580   1.825   3.971 -0.2213  0.3650 -1.9303
  262MOL    C5042332   7.601   1.826   3.692  0.1228 -0.1211 -0.1120
  262MOL    C5142333   7.570   1.786   3.544  0.3772  0.1011 -0.0336
  262MOL    C5242334   7.556   1.908   3.457  0.6716 -0.1694 -0.6673
  262MOL    O5342335   7.464   1.991   3.477 -0.2591 -1.0464 -0.3347
  262MOL    H5442336   7.706   1.812   3.716  0.4959  2.2229 -0.2846
  262MOL    H5542337   7.579   1.932   3.696 -0.4242 -0.2548  0.5266
  262MOL    H5642338   7.479   1.726   3.541  1.4214 -1.6049  1.8803
  262MOL    H5742339   7.651   1.725   3.504  2.0777 -0.2920  3.8872
  262MOL    C5842340   7.660   1.937   3.348  0.4248  0.0188  0.5243
  262MOL    C5942341   7.735   2.062   3.386 -0.1147 -0.2821 -0.1364
  262MOL    C6042342   7.816   2.044   3.504  0.0266  0.2518 -0.3726
  262MOL    O6142343   0.032   1.948   3.521 -0.6291 -0.5326  0.1653
  262MOL    H6242344   7.612   1.945   3.251  1.6839  0.5411 -0.0685
  262MOL    H6342345   7.721   1.847   3.339 -0.6917 -0.7727  0.7101
  262MOL    H6442346   7.675   2.153   3.389  0.8735  0.3765 -0.1742
  262MOL    H6542347   7.804   2.078   3.303 -0.3866  1.7280 -0.0065
  262MOL    C6642348   7.795   2.148   3.624  0.1802 -0.0096  0.2388
  262MOL    C6742349   0.001   2.083   3.749  0.6615  0.5660 -0.9547
  262MOL    C6842350   7.773   2.102   3.876  0.3610  1.3657  0.5891
  262MOL    O6942351   7.655   2.126   3.868 -0.4129  0.3533 -0.2741
  262MOL    H7042352   7.686   2.154   3.632  0.0849  0.5431 -1.2547
  262MOL    H7142353   7.841   2.242   3.595 -0.9480 -0.8034 -4.7260
  262MOL    H7242354   0.094   2.135   3.772  0.8762  0.1085 -0.8013
  262MOL    H7342355   0.022   1.976   3.746  0.1362  0.5043 -2.7634
  262MOL    C7442356   7.831   2.092   4.016 -0.3750 -0.7558  0.5836
  262MOL    C7542357   7.721   2.073   4.125 -0.2358 -0.3139 -0.0049
  262MOL    C7642358   7.715   2.189   4.232 -0.1658  0.1755 -0.1737
  262MOL    O7742359   7.818   2.261   4.245  0.3329  0.3113  0.1192
  262MOL    H7842360   0.033   2.180   4.033 -1.1685  0.4054 -2.4300
  262MOL    H7942361   0.035   2.003   4.009 -0.6190 -0.8962  0.1052
  262MOL    H8042362   7.755   1.982   4.174 -1.9157 -2.5159 -2.7712
  262MOL    H8142363   7.619   2.055   4.093  0.2276  0.5447 -2.0224
  262MOL    C8242364   7.585   2.224   4.300 -0.3702  0.4280  0.0796
  262MOL    C8342365   7.574   2.361   4.369  0.0883 -0.0991  0.6593
  262MOL    C8442366   7.489   2.449   4.280  0.7207  0.3919 -0.0333
  262MOL    O8542367   7.443   2.410   4.170  0.7158 -0.0175  0.5865
  262MOL    H8642368   7.585   2.155   4.385  2.5121  0.4051  0.1151
  262MOL    H8742369   7.506   2.203   4.229  0.9344 -0.4384 -1.1514
  262MOL    H8842370   7.672   2.403   4.389 -0.3577  1.1827  0.2128
  262MOL    H8942371   7.515   2.348   4.460 -0.7226 -1.2009 -0.0238
  262MOL    C9042372   7.452   2.579   4.342  0.5214 -0.0945  0.5919
  262MOL    C9142373   7.351   2.656   4.253 -0.4451 -0.5170 -1.1466
  262MOL    C9242374   7.314   2.794   4.319 -0.2064 -0.6037 -0.6798
  262MOL    O9342375   7.403   2.855   4.386  0.2773  0.3841  0.1350
  262MOL    H9442376   7.543   2.639   4.342  1.1978 -1.1208  0.3713
  262MOL    H9542377   7.415   2.577   4.445 -1.0372 -0.7757  0.0380
  262MOL    H9642378   7.262   2.595   4.244 -0.6903 -0.5374  1.0181
  262MOL    H9742379   7.379   2.692   4.154 -0.0184  0.1631 -0.7872
  262MOL    C9842380   7.177   2.850   4.290  0.4339  0.2524  0.4100
  262MOL    C9942381   7.151   2.969   4.386 -0.5964 -0.2783 -0.8082
  262MOL   C10042382   7.031   3.061   4.351 -0.2391  0.0347 -1.1988
  262MOL   O10142383   7.004   3.080   4.231 -0.5219  0.0269  0.2261
  262MOL   H10242384   7.098   2.777   4.306  0.7194  0.1763  1.5467
  262MOL   H10342385   7.188   2.888   4.189 -1.0527 -0.6234 -0.1051
  262MOL   H10442386   7.232   3.042   4.385 -1.0461  0.2651  0.9910
  262MOL   H10542387   7.136   2.925   4.484  1.9849 -0.9155 -0.6800
  262MOL   C10642388   6.965   3.134   4.471  0.5758 -0.4998 -0.3622
  262MOL   C10742389   6.840   3.216   4.430  0.0957  0.9126  0.0739
  262MOL   C10842390   6.716   3.123   4.444  0.6409  0.2943  0.1998
  262MOL   O10942391   6.717   3.024   4.513  0.3355  0.3869  0.1511
  262MOL   H11042392   7.040   3.208   4.499  1.2272 -1.0439 -0.6428
  262MOL   H11142393   6.965   3.074   4.561 -0.1684 -0.3165 -0.2366
  262MOL   H11242394   6.848   3.247   4.326  1.0192 -1.2142 -0.5167
  262MOL   H11342395   6.830   3.305   4.491  1.0706  1.6239 -0.7684
  262MOL   C11442396   6.583   3.163   4.381 -0.0677 -0.0846 -0.4074
  262MOL   C11542397   6.544   3.063   4.277  0.2379 -0.8649 -0.1081
  262MOL   C11642398   6.491   3.124   4.148  0.0996  0.1133 -0.6744
  262MOL   O11742399   6.432   3.230   4.159 -0.1284  0.3158  0.0651
  262MOL   H11842400   6.604   3.259   4.334  0.8297  1.2852  2.6663
  262MOL   H11942401   6.502   3.197   4.445  1.1173  0.3037  0.9288
  262MOL   H12042402   6.499   2.983   4.337 -0.1995  0.4207  1.3054
  262MOL   H12142403   6.639   3.017   4.248  0.6943  0.0474 -0.0593
  262MOL   C12242404   6.505   3.055   4.013  0.2856 -0.0893  0.6120
  262MOL   C12342405   6.486   3.145   3.886 -0.4256  0.6487 -0.1392
  262MOL   C12442406   6.365   3.106   3.796  0.3597 -0.1948 -1.0624
  262MOL   O12542407   6.373   3.041   3.693  0.2997  0.0969 -0.4174
  262MOL   H12642408   6.432   2.974   4.011  1.5209 -1.2329  1.4045
  262MOL   H12742409   6.604   3.009   4.019  0.8580  1.0261 -0.1308
  262MOL   H12842410   6.580   3.145   3.831 -2.0136 -0.8523 -2.9255
  262MOL   H12942411   6.463   3.246   3.921  0.3482  0.7329  0.1500
  262MOL   C13042412   6.229   3.152   3.851 -0.2891  0.0023 -0.6082
  262MOL   C13142413   6.118   3.047   3.863  1.0999  0.4030 -0.1726
  262MOL   C13242414   6.114   2.984   4.000  0.0434  0.4018 -0.2179
  262MOL   O13342415   6.179   3.033   4.099 -0.2453 -0.2894  0.0201
  262MOL   H13442416   6.200   3.243   3.798  1.2320  0.0581 -1.3898
  262MOL   H13542417   6.241   3.206   3.945  1.7417 -1.0056 -0.2580
  262MOL   H13642418   6.142   2.974   3.786 -2.6878  1.5899 -2.6256
  262MOL   H13742419   6.025   3.096   3.835 -0.0122 -0.7054  1.4749
  262MOL   C13842420   6.020   2.862   4.018 -0.3384  0.5710 -0.1194
  262MOL   C13942421   6.030   2.789   4.159  0.3959  0.3212  0.6587
  262MOL   C14042422   6.154   2.694   4.160 -0.4239 -0.2885  0.6365
  262MOL   O14142423   6.162   2.592   4.092  0.7045 -0.2090 -0.1210
  262MOL   H14242424   6.025   2.788   3.938  1.7090 -0.4682  0.9516
  262MOL   H14342425   5.918   2.901   4.017 -1.4475 -2.2029  0.0928
  262MOL   H14442426   5.938   2.738   4.189  0.2595 -0.6316 -1.2583
  262MOL   H14542427   6.065   2.854   4.239  0.4496 -0.5678  1.3474
  262MOL   C14642428   6.272   2.733   4.253  0.5943 -0.0397  0.1055
  262MOL   C14742429   6.392   2.635   4.225 -0.5684 -0.5992 -0.0459
  262MOL   C14842430   6.479   2.680   4.106  0.3308  0.2281  0.5180
  262MOL   O14942431   6.574   2.749   4.129  0.5737  0.1489  0.6552
  262MOL   H15042432   6.231   2.714   4.352  1.2338  0.0240  0.3828
  262MOL   H15142433   6.297   2.839   4.242  0.2382 -0.2154 -2.6887
  262MOL   H15242434   6.361   2.531   4.227  2.1462 -1.4881 -1.5024
  262MOL   H15342435   6.461   2.626   4.309  0.2812  1.7812 -0.4422
  262MOL   C15442436   6.455   2.618   3.964  0.1244 -0.2224 -0.2137
  262MOL   C15542437   6.497   2.711   3.847 -0.0094  0.1157  0.3851
  262MOL   C15642438   6.412   2.719   3.721 -0.3211  0.1700 -0.2262
  262MOL   O15742439   6.299   2.759   3.734 -0.7076 -0.1952 -0.2645
  262MOL   H15842440   6.349   2.594   3.957  0.1210 -1.1006  2.2539
  262MOL   H15942441   6.518   2.531   3.944  0.7837  0.7842 -2.6973
  262MOL   H16042442   6.595   2.685   3.806 -0.3661  2.1370 -1.8256
  262MOL   H16142443   6.506   2.813   3.885 -0.8608  0.3686 -0.0768
  262MOL   H16242444   6.463   2.690   3.629  1.0017  1.8086 -0.0348
  263MOL     C142445   4.267   0.666   4.152  0.3616  0.8610  0.4491
  263MOL     C242446   4.394   0.749   4.132 -0.4596  0.1145  0.2921
  263MOL     C342447   4.482   0.763   4.250 -0.0703 -0.0749 -0.4470
  263MOL     O442448   4.444   0.715   4.360  0.2471 -0.4764  0.0387
  263MOL     H542449   4.201   0.650   4.067 -0.1378  1.8051  0.6526
  263MOL     H642450   4.282   0.568   4.197 -0.8355 -0.3651 -1.7588
  263MOL     H742451   4.356   0.847   4.103  0.6946  1.0415  1.8710
  263MOL     H842452   4.441   0.701   4.046 -0.6114 -0.6275  0.6114
  263MOL     H942453   4.198   0.710   4.224  2.6462  0.9807  2.6395
  263MOL    C1042454   4.610   0.838   4.224 -0.1717  0.2908  0.1109
  263MOL    C1142455   4.746   0.779   4.275 -0.5190  0.2763  0.4149
  263MOL    C1242456   4.797   0.659   4.186 -0.2071 -0.4667 -0.2110
  263MOL    O1342457   4.763   0.645   4.067  0.0128 -0.2745  0.3541
  263MOL    H1442458   4.604   0.937   4.269  0.3569 -0.0480  0.9525
  263MOL    H1542459   4.631   0.868   4.121  2.4253 -0.3976  0.3974
  263MOL    H1642460   4.715   0.742   4.372 -1.1247 -0.2764  0.0157
  263MOL    H1742461   4.824   0.856   4.272 -1.1621  0.9064 -0.5397
  263MOL    C1842462   4.882   0.559   4.255  0.2658 -0.2700  0.9315
  263MOL    C1942463   4.957   0.457   4.168  0.7429  0.1215  0.2341
  263MOL    C2042464   5.051   0.368   4.239  0.0529  0.0810 -0.1219
  263MOL    O2142465   5.086   0.406   4.350  0.4610 -0.0526  0.2678
  263MOL    H2242466   4.827   0.502   4.329  0.9538 -0.6544  1.1490
  263MOL    H2342467   4.965   0.610   4.303  0.5288 -0.3221  0.5379
  263MOL    H2442468   5.003   0.515   4.089 -0.7031 -1.6758 -1.9923
  263MOL    H2542469   4.888   0.388   4.119  2.0276 -0.7152 -0.4464
  263MOL    C2642470   5.108   0.242   4.169 -0.4411 -0.5358 -0.3106
  263MOL    C2742471   5.189   0.274   4.045 -0.3889  0.3632 -0.2772
  263MOL    C2842472   5.336   0.251   4.072 -0.3490  0.0188 -0.4797
  263MOL    O2942473   5.379   0.250   4.186 -0.1980  0.2376  0.1026
  263MOL    H3042474   5.028   0.170   4.150 -0.3645 -0.5015 -0.7708
  263MOL    H3142475   5.158   0.183   4.246 -1.5688 -1.1404 -0.0309
  263MOL    H3242476   5.166   0.375   4.010 -0.8268 -0.2782 -1.8961
  263MOL    H3342477   5.159   0.212   3.961  1.6184 -2.2703  0.8753
  263MOL    C3442478   5.429   0.229   3.958  0.7742 -0.5282 -0.2612
  263MOL    C3542479   5.575   0.204   3.996 -0.0493  0.1484  0.2823
  263MOL    C3642480   5.649   0.079   3.945 -1.7850 -0.5946 -0.6906
  263MOL    O3742481   5.655   7.840   4.022  0.3927 -0.2900 -0.1548
  263MOL    H3842482   5.430   0.329   3.914 -1.5987 -0.6737 -0.7437
  263MOL    H3942483   5.395   0.152   3.889  1.1945 -1.3815  0.4714
  263MOL    H4042484   5.601   0.204   4.102 -1.7442  3.7836  0.7709
  263MOL    H4142485   5.632   0.286   3.953  1.9345 -1.7490 -0.8544
  263MOL    C4242486   5.691   0.083   3.796 -0.1818  0.1016 -0.2028
  263MOL    C4342487   5.843   0.086   3.786 -0.2235 -0.1142  0.3564
  263MOL    C4442488   5.903   7.855   3.673 -0.6141 -0.2895  0.4410
  263MOL    O4542489   5.839   7.814   3.580 -0.3907 -0.2374 -0.6013
  263MOL    H4642490   5.640   0.159   3.736 -0.7259 -0.6335 -0.6822
  263MOL    H4742491   5.660   7.840   3.777 -0.6593 -0.3910  3.0307
  263MOL    H4842492   5.883   0.055   3.883  2.3047 -0.9776 -0.9107
  263MOL    H4942493   5.872   0.190   3.775  1.3956 -0.6407 -0.5871
  263MOL    C5042494   6.054   7.829   3.682 -0.0178  0.1360 -0.2342
  263MOL    C5142495   6.090   7.679   3.672  0.2416  0.0545 -0.8937
  263MOL    C5242496   6.071   7.618   3.806 -0.3653  0.1214 -0.2687
  263MOL    O5342497   6.078   7.686   3.909  0.4659  0.2588  0.3292
  263MOL    H5442498   6.101   0.018   3.768  2.9994 -1.5954 -0.8497
  263MOL    H5542499   6.105   0.016   3.597 -1.0809  0.9564 -0.4306
  263MOL    H5642500   6.189   7.664   3.629  0.6024 -2.6476  0.7743
  263MOL    H5742501   6.030   7.619   3.604 -2.0959  2.1469 -0.7699
  263MOL    C5842502   6.050   7.472   3.822  0.7887  0.3130  0.1112
  263MOL    C5942503   5.965   7.433   3.944 -0.8545 -0.4426  0.0080
  263MOL    C6042504   5.826   7.378   3.910  0.2226  0.0173  0.0239
  263MOL    O6142505   5.815   7.270   3.855 -0.4452  0.4269  0.2472
  263MOL    H6242506   6.144   7.417   3.826 -0.0490 -1.0313  1.8942
  263MOL    H6342507   6.004   7.453   3.725  0.1046 -3.2229  1.0637
  263MOL    H6442508   5.959   7.518   4.012 -0.7991  1.0485 -1.8043
  263MOL    H6542509   6.014   7.348   3.990  0.2103 -0.1567 -0.5905
  263MOL    C6642510   5.715   7.451   3.975  0.4788 -0.1506 -0.1373
  263MOL    C6742511   5.588   7.362   3.995  0.1597 -0.2963 -0.2370
  263MOL    C6842512   5.506   7.353   3.868 -0.5637  0.4217 -0.4956
  263MOL    O6942513   5.535   7.421   3.767 -0.4732 -0.3004 -0.2768
  263MOL    H7042514   5.696   7.540   3.916  0.1757 -0.8181 -1.0608
  263MOL    H7142515   5.739   7.486   4.075  0.5936  1.8730 -0.8574
  263MOL    H7242516   5.536   7.427   4.065  1.7243  0.0887  0.5989
  263MOL    H7342517   5.615   7.268   4.044 -3.2380 -1.5655 -0.6959
  263MOL    C7442518   5.371   7.282   3.872 -0.4306  0.4910  0.2402
  263MOL    C7542519   5.314   7.248   3.730  0.1928 -0.6776 -0.7506
  263MOL    C7642520   5.317   7.107   3.683  0.0491  0.2129 -0.1965
  263MOL    O7742521   5.385   7.020   3.743  0.2622 -0.3754  0.2819
  263MOL    H7842522   5.310   7.361   3.915  0.3530  1.4269 -0.3585
  263MOL    H7942523   5.350   7.200   3.940  2.4896 -1.0222 -0.6161
  263MOL    H8042524   5.354   7.317   3.655  1.2052 -2.2933 -1.7627
  263MOL    H8142525   5.206   7.261   3.730  0.1158 -1.2738  1.1387
  263MOL    C8242526   5.254   7.071   3.552 -0.0878  0.0299 -0.0153
  263MOL    C8342527   5.351   7.064   3.435 -0.1792  0.2109  1.1162
  263MOL    C8442528   5.370   7.205   3.371 -0.2336 -0.0803  0.4365
  263MOL    O8542529   5.327   7.305   3.421 -0.3508 -0.3266  0.3160
  263MOL    H8642530   5.178   7.144   3.525 -0.7590 -1.8788 -3.5772
  263MOL    H8742531   5.198   6.978   3.559  0.8328 -0.5451 -0.1802
  263MOL    H8842532   5.287   7.017   3.361  1.7055  0.2025 -0.5259
  263MOL    H8942533   5.434   6.998   3.460  0.2769 -0.4170 -1.8693
  263MOL    C9042534   5.436   7.211   3.233 -0.2982 -0.1144  0.0384
  263MOL    C9142535   5.498   7.345   3.200  0.4725 -1.0506 -0.3094
  263MOL    C9242536   5.425   7.426   3.099 -0.3077  0.2663  0.0119
  263MOL    O9342537   5.300   7.424   3.099 -0.1960  0.2032  0.2528
  263MOL    H9442538   5.369   7.183   3.151 -0.2945 -0.6905  0.2327
  263MOL    H9542539   5.509   7.131   3.221 -2.9853 -2.6974  0.4067
  263MOL    H9642540   5.595   7.329   3.152  0.1981 -1.2841 -0.7937
  263MOL    H9742541   5.505   7.407   3.289 -1.3090  0.2062 -1.0174
  263MOL    C9842542   5.510   7.505   3.000  0.0964 -0.3097 -0.3594
  263MOL    C9942543   5.447   7.516   2.863 -0.6169  0.0608  0.1979
  263MOL   C10042544   5.417   7.663   2.828  0.3891 -0.1903 -0.3467
  263MOL   O10142545   5.494   7.737   2.770 -0.0577 -0.5230  0.5649
  263MOL   H10242546   5.602   7.452   2.976 -0.0884 -0.6076 -0.4082
  263MOL   H10342547   5.544   7.597   3.048 -0.5344 -0.2195 -0.0834
  263MOL   H10442548   5.353   7.460   2.862 -0.3117 -0.5374  2.5447
  263MOL   H10542549   5.509   7.459   2.794  1.1855  0.4076  1.4944
  263MOL   C10642550   5.282   7.713   2.876  0.3397  0.6374 -0.0439
  263MOL   C10742551   5.269   0.010   2.884 -0.6344  0.0039 -0.0768
  263MOL   C10842552   5.249   0.071   3.018 -0.9890  0.0172  0.2892
  263MOL   O10942553   5.308   0.024   3.115 -0.6622 -0.0070 -0.3985
  263MOL   H11042554   5.251   7.674   2.972 -0.6010  0.8698 -0.2559
  263MOL   H11142555   5.207   7.665   2.813 -0.4859 -1.4603  2.5143
  263MOL   H11242556   5.178   0.028   2.825  0.0149  0.9160 -0.8112
  263MOL   H11342557   5.359   0.050   2.838 -0.9336  0.5134 -0.2167
  263MOL   C11442558   5.147   0.185   3.025  0.1982 -1.0193 -0.1413
  263MOL   C11542559   5.127   0.261   3.163 -0.2167  0.4550  0.2067
  263MOL   C11642560   4.991   0.225   3.227  0.2645 -0.7257  0.3751
  263MOL   O11742561   4.994   0.150   3.324  0.7683 -0.3216  0.0118
  263MOL   H11842562   5.063   0.134   2.978  0.5430 -2.4023  0.6905
  263MOL   H11942563   5.178   0.257   2.949 -0.9452 -1.5129 -1.0952
  263MOL   H12042564   5.133   0.369   3.170 -2.3511  0.4898  2.2414
  263MOL   H12142565   5.201   0.220   3.231  0.3737 -0.9549 -1.2590
  263MOL   C12242566   4.858   0.269   3.158 -0.6082  0.5774 -0.0766
  263MOL   C12342567   4.732   0.231   3.235  1.3198  0.2294  0.3638
  263MOL   C12442568   4.623   0.145   3.170 -0.0043  0.3933 -0.5501
  263MOL   O12542569   4.653   0.066   3.078  0.2446 -0.1718  0.2782
  263MOL   H12642570   4.865   0.221   3.061 -0.9744 -0.1440  0.2458
  263MOL   H12742571   4.858   0.374   3.130 -3.2384  0.3207 -1.2113
  263MOL   H12842572   4.690   0.321   3.280 -2.1208 -2.2923  2.4480
  263MOL   H12942573   4.770   0.196   3.331  0.3142  0.8157  0.9899
  263MOL   C13042574   4.481   0.156   3.222 -0.0234 -0.2850  0.6252
  263MOL   C13142575   4.457   0.050   3.331 -0.0910  0.3974 -0.6505
  263MOL   C13242576   4.428   0.116   3.467  0.0637 -0.4501 -1.3580
  263MOL   O13342577   4.505   0.200   3.518  0.2782  0.0148 -0.1439
  263MOL   H13442578   4.408   0.142   3.143 -0.2647 -0.7668  0.9346
  263MOL   H13542579   4.472   0.252   3.271  0.0444 -0.4218  0.9031
  263MOL   H13642580   4.542   7.842   3.324  0.2040  1.0266 -3.8471
  263MOL   H13742581   4.371   7.847   3.306  0.7109 -1.4534  1.0643
  263MOL   C13842582   4.299   0.077   3.537 -0.3211 -0.1748 -0.2484
  263MOL   C13942583   4.320   7.806   3.620  0.5941 -0.3368  0.3969
  263MOL   C14042584   4.244   7.809   3.756 -0.0716  1.3937 -0.6883
  263MOL   O14142585   4.140   0.017   3.780 -0.3755 -0.4212  0.3744
  263MOL   H14242586   4.222   0.061   3.462 -0.5738  2.5789 -0.6398
  263MOL   H14342587   4.259   0.166   3.585  0.2325 -0.6600  1.1421
  263MOL   H14442588   4.423   7.771   3.623  0.5375 -0.6406 -0.9848
  263MOL   H14542589   4.277   7.725   3.561  2.1825 -0.8990 -0.0121
  263MOL   C14642590   4.290   7.713   3.863  0.3206 -0.3350 -0.9094
  263MOL   C14742591   4.219   7.579   3.844 -0.0051  0.7731 -0.5865
  263MOL   C14842592   4.307   7.477   3.787 -0.0734  0.3160 -0.3570
  263MOL   O14942593   4.374   7.503   3.684  0.1877  0.2950 -0.0231
  263MOL   H15042594   4.253   7.746   3.960 -0.7352 -1.4715 -0.9203
  263MOL   H15142595   4.399   7.716   3.875  0.4443  0.4488 -2.1329
  263MOL   H15242596   4.128   7.592   3.786 -1.2307 -0.8790  0.8993
  263MOL   H15342597   4.187   7.531   3.937  0.5184  2.3231  0.4181
  263MOL   C15442598   4.316   7.346   3.859  0.1343  0.0261  0.2104
  263MOL   C15542599   4.357   7.229   3.765  0.4329 -0.3108 -0.5720
  263MOL   C15642600   4.504   7.191   3.785 -0.1508  0.3876 -0.1174
  263MOL   O15742601   4.595   7.279   3.788  0.3437 -0.4381 -0.3100
  263MOL   H15842602   4.221   7.326   3.909 -0.3240  0.3037 -0.5395
  263MOL   H15942603   4.388   7.359   3.940 -0.2989 -2.7245  1.0626
  263MOL   H16042604   4.339   7.245   3.659  0.5530  0.3968 -0.4868
  263MOL   H16142605   4.301   7.137   3.784 -1.9288  1.6503  2.3773
  263MOL   H16242606   4.527   7.084   3.785 -0.4127  0.3224 -1.6749
  264MOL     C142607   0.717   1.990   3.370  0.3767  0.1474  0.0963
  264MOL     C242608   0.792   2.050   3.484  0.3783 -0.3771  0.0318
  264MOL     C342609   0.808   2.198   3.465  0.5755 -0.5495 -0.0719
  264MOL     O442610   0.809   2.241   3.348 -0.2361  0.0552  0.0074
  264MOL     H542611   0.754   2.028   3.275 -0.2775  0.8867  0.1275
  264MOL     H642612   0.740   1.885   3.384  2.0470  0.1852 -2.2014
  264MOL     H742613   0.882   1.994   3.510  2.3640  1.7154 -2.0570
  264MOL     H842614   0.728   2.029   3.569  1.2460 -1.0066  0.5376
  264MOL     H942615   0.608   1.993   3.380  0.1880  0.3119 -1.8814
  264MOL    C1042616   0.811   2.287   3.588  0.2147 -0.3846 -0.2373
  264MOL    C1142617   0.919   2.396   3.566  0.1417  0.3272  0.6545
  264MOL    C1242618   0.992   2.441   3.690 -0.3845  0.1315 -0.2533
  264MOL    O1342619   0.950   2.421   3.805 -0.3212  0.4035  0.5825
  264MOL    H1442620   0.834   2.210   3.661 -1.0439 -1.3589 -0.8405
  264MOL    H1542621   0.713   2.328   3.610  0.4187  0.1640 -0.3408
  264MOL    H1642622   0.883   2.494   3.534 -1.7087 -0.8479 -0.9554
  264MOL    H1742623   0.999   2.369   3.497 -0.7551 -5.0894  1.5635
  264MOL    C1842624   1.112   2.537   3.664  0.0054  0.5602  0.2800
  264MOL    C1942625   1.051   2.670   3.615  1.2429  0.3513  0.3895
  264MOL    C2042626   1.084   2.702   3.468 -0.9830  0.7257  0.2600
  264MOL    O2142627   0.998   2.672   3.378 -0.1273 -0.4968  0.7570
  264MOL    H2242628   1.184   2.491   3.597 -1.6244  0.4516 -1.4498
  264MOL    H2342629   1.164   2.555   3.758 -1.3350  0.1883  1.1071
  264MOL    H2442630   1.090   2.747   3.681  1.1327 -1.7095  2.9484
  264MOL    H2542631   0.943   2.664   3.628  0.8832  0.6750 -2.2130
  264MOL    C2642632   1.225   2.765   3.431  0.7891 -0.5790  0.5354
  264MOL    C2742633   1.275   2.725   3.289 -0.5584  0.1770 -0.2246
  264MOL    C2842634   1.329   2.583   3.288 -0.5311 -0.6045 -0.6144
  264MOL    O2942635   1.327   2.514   3.394 -0.2473 -0.0199 -0.4997
  264MOL    H3042636   1.305   2.723   3.492 -0.4821 -3.5922  0.2424
  264MOL    H3142637   1.233   2.874   3.432 -0.8934 -0.4286 -0.4703
  264MOL    H3242638   1.357   2.795   3.270 -2.0464  1.6389 -1.4237
  264MOL    H3342639   1.199   2.745   3.214 -0.5000  1.3478  0.0203
  264MOL    C3442640   1.418   2.547   3.164 -0.2285  0.4108 -0.1707
  264MOL    C3542641   1.444   2.385   3.169 -0.6200  0.4132  0.1137
  264MOL    C3642642   1.585   2.340   3.133  0.4779 -0.2148  0.0676
  264MOL    O3742643   1.668   2.425   3.111 -0.5591  0.2255  0.3066
  264MOL    H3842644   1.518   2.591   3.164 -1.2126  2.7485  0.1259
  264MOL    H3942645   1.357   2.570   3.076 -1.1013 -1.0006  0.0526
  264MOL    H4042646   1.376   2.326   3.107 -1.0985  0.3947  0.6575
  264MOL    H4142647   1.438   2.349   3.272 -0.9515 -0.0018 -0.0506
  264MOL    C4242648   1.609   2.196   3.094  0.7395  0.2599  0.0685
  264MOL    C4342649   1.760   2.172   3.087  1.0319 -1.1464  0.0562
  264MOL    C4442650   1.798   2.048   3.014  0.1089 -0.2087 -0.3491
  264MOL    O4542651   1.723   1.987   2.931 -0.3785  0.3395 -0.0626
  264MOL    H4642652   1.575   2.186   2.991 -1.4128 -1.3105  0.8831
  264MOL    H4742653   1.576   2.114   3.158 -1.6733  2.0504  1.2030
  264MOL    H4842654   1.806   2.168   3.185  0.6022 -0.3855  0.2906
  264MOL    H4942655   1.814   2.252   3.035 -3.1939  0.1251 -2.6602
  264MOL    C5042656   1.943   1.987   3.040  0.2705 -0.5435  0.1548
  264MOL    C5142657   1.944   1.826   3.029 -0.0007  0.2202  0.4792
  264MOL    C5242658   2.024   1.768   2.918 -0.2423 -0.1628  0.7027
  264MOL    O5342659   2.114   1.828   2.858 -0.5052 -0.2824 -0.2104
  264MOL    H5442660   1.972   2.013   3.142  0.1254  0.2034  0.0083
  264MOL    H5542661   2.012   2.040   2.976  1.1450 -1.3543  0.4200
  264MOL    H5642662   1.840   1.796   3.032  0.2083 -0.7290 -1.1588
  264MOL    H5742663   1.984   1.780   3.120 -0.4405  2.1549  1.6596
  264MOL    C5842664   1.996   1.629   2.872 -0.3647  0.0695  0.0856
  264MOL    C5942665   2.105   1.577   2.780 -0.0246  0.6427  0.0992
  264MOL    C6042666   2.094   1.425   2.751  0.6022 -0.4601  0.0196
  264MOL    O6142667   2.091   1.343   2.845 -0.4660  0.2949  0.8121
  264MOL    H6242668   1.900   1.629   2.820 -1.5503 -0.9344  2.2037
  264MOL    H6342669   1.983   1.561   2.956  1.4271  0.0958  0.4083
  264MOL    H6442670   2.201   1.595   2.828 -0.2892  0.2560  0.7796
  264MOL    H6542671   2.124   1.629   2.686  0.1515 -0.1807 -0.3291
  264MOL    C6642672   2.080   1.377   2.604  0.2105  0.5950 -1.0780
  264MOL    C6742673   1.992   1.249   2.594  0.2390  0.4859 -0.0987
  264MOL    C6842674   2.055   1.139   2.503  0.1924  0.0680 -0.4941
  264MOL    O6942675   2.146   1.162   2.427 -0.2222  0.1161 -0.4265
  264MOL    H7042676   2.178   1.342   2.573  0.6526 -1.6452  2.5970
  264MOL    H7142677   2.046   1.459   2.541 -0.4188  0.4143 -0.9787
  264MOL    H7242678   1.894   1.288   2.566 -0.9586 -1.5467  1.2138
  264MOL    H7342679   1.984   1.197   2.689 -3.6369 -0.4295 -0.8213
  264MOL    C7442680   2.013   0.989   2.525 -0.2032  0.4827  0.0830
  264MOL    C7542681   2.071   0.891   2.428 -0.1120  0.0338  0.2952
  264MOL    C7642682   1.961   0.815   2.350  0.0304 -0.1500  0.7413
  264MOL    O7742683   1.895   0.883   2.266  0.6447 -0.0349  0.3676
  264MOL    H7842684   1.904   0.981   2.533 -0.2632 -0.9510 -1.6907
  264MOL    H7942685   2.056   0.972   2.623  0.3671 -0.1593 -0.2710
  264MOL    H8042686   2.124   0.813   2.484  0.0507 -0.1160 -0.0692
  264MOL    H8142687   2.140   0.934   2.356  1.3072 -0.1220  1.5251
  264MOL    C8242688   1.940   0.665   2.361 -0.0600  0.5432 -0.0294
  264MOL    C8342689   1.837   0.618   2.472  0.4744  1.3096 -0.1308
  264MOL    C8442690   1.887   0.508   2.564 -0.8010 -0.3142  0.1728
  264MOL    O8542691   1.997   0.520   2.624 -0.1615 -0.2734  0.8792
  264MOL    H8642692   2.041   0.628   2.374 -0.5014  0.6034  4.0861
  264MOL    H8742693   1.918   0.620   2.264  0.3848  0.9585 -0.3246
  264MOL    H8842694   1.742   0.578   2.437  1.8675 -0.7067 -1.7297
  264MOL    H8942695   1.811   0.704   2.535 -3.4578 -1.1479  1.7780
  264MOL    C9042696   1.795   0.388   2.592 -0.3225  0.0044  0.5344
  264MOL    C9142697   1.845   0.304   2.707 -0.0845 -0.7576 -0.1043
  264MOL    C9242698   1.795   0.357   2.842  0.7385 -0.1302 -0.2921
  264MOL    O9342699   1.677   0.364   2.869  0.5828 -0.8483  0.5427
  264MOL    H9442700   1.797   0.320   2.507 -3.1952 -0.9045  1.1334
  264MOL    H9542701   1.690   0.407   2.616 -0.2951 -0.4562  1.0264
  264MOL    H9642702   1.953   0.293   2.706 -0.3122 -3.3765 -0.6510
  264MOL    H9742703   1.802   0.204   2.700  0.0451 -0.8047 -0.2157
  264MOL    C9842704   1.891   0.424   2.937 -0.9348  0.4398 -0.1626
  264MOL    C9942705   1.884   0.576   2.936  0.3063  0.3124  0.1422
  264MOL   C10042706   2.024   0.643   2.954  0.6949  0.9957 -0.8004
  264MOL   O10142707   2.118   0.582   3.012  0.5008  0.1190  0.3653
  264MOL   H10242708   1.988   0.379   2.918 -0.2816  1.0560  1.6086
  264MOL   H10342709   1.877   0.387   3.038  1.7976 -2.1784 -0.6718
  264MOL   H10442710   1.805   0.627   2.991 -1.1197 -2.2852  0.5834
  264MOL   H10542711   1.860   0.606   2.833 -0.1522  0.4424  0.2864
  264MOL   C10642712   2.036   0.782   2.900 -0.2167  0.4306 -0.4168
  264MOL   C10742713   2.162   0.845   2.950 -0.0241 -0.0371  0.1046
  264MOL   C10842714   2.148   0.949   3.060  0.6874  0.0155  0.6734
  264MOL   O10942715   2.052   0.938   3.136  0.3849  0.4122 -0.2443
  264MOL   H11042716   1.942   0.833   2.918 -0.4443  0.2948 -1.1832
  264MOL   H11142717   2.044   0.768   2.792 -0.9350  2.8021 -0.7973
  264MOL   H11242718   2.207   0.901   2.868  1.9595 -0.7266  0.6898
  264MOL   H11342719   2.240   0.780   2.992  0.8639 -0.1347 -1.6421
  264MOL   C11442720   2.246   1.064   3.065  0.0651 -0.0246  0.1373
  264MOL   C11542721   2.191   1.190   3.152 -0.6253 -0.1543 -0.1917
  264MOL   C11642722   2.306   1.280   3.188  0.3137  0.0738  0.1548
  264MOL   O11742723   2.421   1.232   3.194  0.3884  0.3404 -0.0218
  264MOL   H11842724   2.285   1.093   2.968  2.0640  1.1028  1.2407
  264MOL   H11942725   2.333   1.010   3.103  1.3148 -1.0819 -3.9793
  264MOL   H12042726   2.159   1.159   3.252 -0.2849 -1.0448 -0.3511
  264MOL   H12142727   2.122   1.258   3.102 -2.5961 -0.4801  1.9435
  264MOL   C12242728   2.289   1.427   3.210 -0.2063 -0.4032 -0.3716
  264MOL   C12342729   2.213   1.453   3.342 -0.3886  0.0027  0.3486
  264MOL   C12442730   2.084   1.529   3.320  0.4057  0.4539 -0.5579
  264MOL   O12542731   1.990   1.485   3.249  0.3306 -0.2284  0.3605
  264MOL   H12642732   2.239   1.468   3.122 -2.8393 -0.4895  1.0282
  264MOL   H12742733   2.392   1.461   3.206  0.0505 -1.1684 -0.4438
  264MOL   H12842734   2.273   1.512   3.411  0.7160 -1.6589  0.8424
  264MOL   H12942735   2.190   1.369   3.407 -2.3361  0.2194 -0.0490
  264MOL   C13042736   2.075   1.667   3.379  0.4098  0.0767 -0.4920
  264MOL   C13142737   1.936   1.718   3.389 -0.7510  0.0446  0.9219
  264MOL   C13242738   1.923   1.865   3.410  0.4337  0.0980  0.2408
  264MOL   O13342739   2.020   1.947   3.411 -0.7603 -0.5840  0.0745
  264MOL   H13442740   2.129   1.733   3.312  1.9797 -2.1243 -1.4780
  264MOL   H13542741   2.117   1.664   3.480 -0.5081  0.4971 -0.0944
  264MOL   H13642742   1.873   1.670   3.464 -0.3804 -0.6371  0.7970
  264MOL   H13742743   1.873   1.684   3.306  0.9939  0.4271 -0.5836
  264MOL   C13842744   1.780   1.915   3.405  0.6371 -0.5644 -0.2384
  264MOL   C13942745   1.762   2.033   3.505  0.1393  0.7779  0.2709
  264MOL   C14042746   1.623   2.088   3.513  0.0768  0.0993 -0.0183
  264MOL   O14142747   1.543   2.088   3.419 -0.1265  0.6625  0.3715
  264MOL   H14242748   1.713   1.830   3.413  2.7009 -2.2070 -0.0533
  264MOL   H14342749   1.768   1.943   3.301 -2.1211  2.3506  0.7754
  264MOL   H14442750   1.838   2.109   3.492  2.7075 -1.6600  0.4507
  264MOL   H14542751   1.777   1.994   3.606 -0.3158  2.0576  0.8370
  264MOL   C14642752   1.581   2.166   3.638 -0.8938  0.4226  0.2990
  264MOL   C14742753   1.528   2.304   3.613 -0.2241 -0.3022  0.3785
  264MOL   C14842754   1.633   2.419   3.633 -0.1825 -0.4431 -0.6206
  264MOL   O14942755   1.725   2.408   3.712  0.8030  0.0830 -0.6433
  264MOL   H15042756   1.668   2.168   3.703 -1.7025 -1.5447  1.4934
  264MOL   H15142757   1.499   2.115   3.689 -0.1506 -0.9563  0.1349
  264MOL   H15242758   1.469   2.333   3.700  0.9718  2.7573  0.2448
  264MOL   H15342759   1.482   2.324   3.517 -1.4964  0.4383  1.1317
  264MOL   C15442760   1.608   2.557   3.578  0.1934 -0.4766  0.0498
  264MOL   C15542761   1.739   2.621   3.524  0.3320  0.0865  0.0248
  264MOL   C15642762   1.734   2.661   3.375 -0.0069  0.6343 -0.4076
  264MOL   O15742763   1.660   2.752   3.330  0.5485 -0.1248  0.0863
  264MOL   H15842764   1.563   2.622   3.653 -1.0408 -1.4976  0.2138
  264MOL   H15942765   1.550   2.557   3.486 -1.4561 -1.1368  1.0667
  264MOL   H16042766   1.819   2.550   3.542 -1.0418 -1.5082 -0.0018
  264MOL   H16142767   1.762   2.705   3.589 -1.7922 -1.1974  2.5350
  264MOL   H16242768   1.803   2.603   3.314  1.7930 -0.2409  2.4047
  265MOL     C142769   7.155   3.300   7.835  0.0856  0.1487  0.3993
  265MOL     C242770   7.135   3.442   7.773 -0.2193  1.3213  0.0331
  265MOL     C342771   7.011   3.449   7.685 -0.0433 -0.3579  0.3379
  265MOL     O442772   6.907   3.389   7.718 -0.3647  0.6918  0.2062
  265MOL     H542773   7.093   3.285   0.065 -1.0264  0.0335 -0.3814
  265MOL     H642774   7.121   3.225   7.764  1.2275  1.3945 -1.4803
  265MOL     H742775   7.227   3.459   7.716 -0.4600  1.0289 -0.4449
  265MOL     H842776   7.127   3.518   7.851  1.1117  1.0038  0.4895
  265MOL     H942777   7.256   3.289   0.014 -0.0798  0.3194  0.8965
  265MOL    C1042778   7.013   3.522   7.557  0.4890 -0.1310 -0.5167
  265MOL    C1142779   6.875   3.580   7.523 -0.3316  0.6925  0.3828
  265MOL    C1242780   6.857   3.614   7.370  0.3078  0.1436 -0.5586
  265MOL    O1342781   6.867   3.523   7.287  0.0719 -0.3940 -0.0569
  265MOL    H1442782   7.039   3.460   7.472  2.3144 -1.1207  0.7301
  265MOL    H1542783   7.085   3.604   7.559 -0.7467  1.0671 -2.7160
  265MOL    H1642784   6.849   3.676   7.569 -1.3497  0.4085  0.4008
  265MOL    H1742785   6.795   3.509   7.543 -1.3081  1.2386 -1.5162
  265MOL    C1842786   6.823   3.761   7.336 -0.1539 -0.4288  0.0581
  265MOL    C1942787   6.789   3.784   7.187 -0.0368 -0.7962  0.2477
  265MOL    C2042788   6.653   3.731   7.146  0.2742 -0.6112  0.2266
  265MOL    O2142789   6.562   3.707   7.221 -0.1665  0.7356 -0.6843
  265MOL    H2242790   6.921   3.804   7.355 -0.2696 -0.4817  0.7662
  265MOL    H2342791   6.752   3.806   7.405  0.2371 -1.1808  0.9484
  265MOL    H2442792   6.866   3.729   7.133  0.0008  1.6557 -2.3361
  265MOL    H2542793   6.796   3.890   7.161 -0.0839 -1.3499 -2.1052
  265MOL    C2642794   6.625   3.715   6.994  0.0305 -0.2399 -0.3019
  265MOL    C2742795   6.697   3.596   6.930  0.3379  0.1346  0.0390
  265MOL    C2842796   6.815   3.632   6.843 -0.4586  0.2666  0.3691
  265MOL    O2942797   6.800   3.661   6.726 -0.3105 -0.2410 -0.1182
  265MOL    H3042798   6.627   3.809   6.938  0.2906  0.7914  1.3786
  265MOL    H3142799   6.518   3.695   6.990 -0.1706  0.0240  2.3546
  265MOL    H3242800   6.623   3.537   6.877  2.1946 -1.4764 -0.8504
  265MOL    H3342801   6.733   3.543   7.019 -0.2622  0.3413  0.4052
  265MOL    C3442802   6.953   3.630   6.905 -0.8910 -0.4585 -0.2194
  265MOL    C3542803   7.055   3.595   6.793 -0.8667  0.0347 -0.7615
  265MOL    C3642804   7.202   3.579   6.845  0.0847 -0.3403  0.3113
  265MOL    O3742805   7.222   3.556   6.963  0.4499 -0.0621  0.0579
  265MOL    H3842806   6.960   3.560   6.988 -1.1609 -0.3455 -0.1025
  265MOL    H3942807   6.973   3.730   6.943 -0.7470 -0.4711 -0.2599
  265MOL    H4042808   7.040   3.662   6.709  0.3190  2.6839  1.0951
  265MOL    H4142809   7.031   3.494   6.759  1.6581 -0.6874 -0.4947
  265MOL    C4242810   7.312   3.557   6.739  0.0699  0.1558 -0.2048
  265MOL    C4342811   7.447   3.478   6.779  0.8025 -0.2258  0.1328
  265MOL    C4442812   7.416   3.331   6.783 -0.1542  0.8167  0.0426
  265MOL    O4542813   7.302   3.294   6.765  0.0337 -0.3412  0.5424
  265MOL    H4642814   7.336   3.656   6.698 -0.8883 -0.6345 -2.7610
  265MOL    H4742815   7.253   3.504   6.664 -0.0930  1.9087 -1.3562
  265MOL    H4842816   7.500   3.513   6.867  1.4905  1.6935 -1.0049
  265MOL    H4942817   7.526   3.485   6.705  1.0102  1.9704  0.5248
  265MOL    C5042818   7.523   3.230   6.813  0.2644  0.2189 -0.1659
  265MOL    C5142819   7.483   3.095   6.752  0.5082 -0.7203  0.8875
  265MOL    C5242820   7.430   2.995   6.857 -0.6519  0.1261 -0.1191
  265MOL    O5342821   7.490   2.981   6.965  0.0403  0.3645  0.4275
  265MOL    H5442822   7.531   3.216   6.921  1.9796 -0.5775 -0.3661
  265MOL    H5542823   7.623   3.256   6.778 -0.2140 -0.6656 -2.2520
  265MOL    H5642824   7.567   3.047   6.701 -0.4623  1.1348 -2.5975
  265MOL    H5742825   7.411   3.105   6.670 -0.1673  1.0696  1.6616
  265MOL    C5842826   7.300   2.924   6.818  0.4028 -0.2451 -0.1683
  265MOL    C5942827   7.238   2.830   6.931  0.4113  0.2966 -0.2885
  265MOL    C6042828   7.091   2.836   6.951  0.0569 -0.0025 -0.4954
  265MOL    O6142829   7.028   2.924   6.886 -0.4433  0.0388 -0.0908
  265MOL    H6242830   7.332   2.864   6.733  2.8810 -1.9511  1.9100
  265MOL    H6342831   7.218   2.985   6.781 -0.9191 -0.6511  1.9668
  265MOL    H6442832   7.296   2.853   7.021  3.0973 -2.5637 -1.2098
  265MOL    H6542833   7.276   2.729   6.913  1.9999  1.3517 -3.1133
  265MOL    C6642834   7.014   2.735   7.039 -0.5830 -0.2237 -0.4102
  265MOL    C6742835   6.889   2.803   7.098 -0.4191  0.2647  0.3548
  265MOL    C6842836   6.766   2.778   7.010  0.3323  0.3447  0.2264
  265MOL    O6942837   6.770   2.703   6.916 -0.3161 -0.4415  0.1079
  265MOL    H7042838   7.076   2.706   7.124 -3.2302  0.0552  1.6801
  265MOL    H7142839   6.996   2.641   6.987 -1.9721  0.6817 -1.5999
  265MOL    H7242840   6.908   2.910   7.090  0.3791 -0.0595 -2.9072
  265MOL    H7342841   6.868   2.781   7.202  1.6193 -2.1277  0.3125
  265MOL    C7442842   6.634   2.841   7.039  0.0557 -0.6071 -0.9099
  265MOL    C7542843   6.511   2.749   7.006 -0.5356 -0.2098  0.0277
  265MOL    C7642844   6.379   2.824   6.976 -0.7948 -0.2643 -0.0578
  265MOL    O7742845   6.364   2.945   6.995 -0.9083  0.5387 -0.0489
  265MOL    H7842846   6.639   2.938   6.990  3.5274  1.8981  4.0239
  265MOL    H7942847   6.624   2.874   7.142 -2.1227 -1.7464 -0.7239
  265MOL    H8042848   6.483   2.686   7.090 -1.4517  0.1059 -0.0315
  265MOL    H8142849   6.523   2.684   6.920  0.3003  1.7762 -1.4098
  265MOL    C8242850   6.260   2.734   6.951  0.1660 -0.2729 -0.3918
  265MOL    C8342851   6.170   2.766   6.833  1.0040  0.2372  0.2596
  265MOL    C8442852   6.213   2.692   6.705 -0.2292 -0.1132 -0.0154
  265MOL    O8542853   6.324   2.645   6.700 -0.5473  0.3125  0.4967
  265MOL    H8642854   6.199   2.736   7.041 -2.1242  0.2547 -1.9259
  265MOL    H8742855   6.299   2.632   6.948  0.3861 -0.1500 -2.3295
  265MOL    H8842856   6.171   2.874   6.814  0.5907  0.1839 -0.0682
  265MOL    H8942857   6.072   2.727   6.858  0.6155 -0.8930 -2.8350
  265MOL    C9042858   6.119   2.694   6.584  0.0638 -0.3414 -0.3844
  265MOL    C9142859   6.198   2.667   6.456 -0.1938  0.2677  0.1293
  265MOL    C9242860   6.213   2.790   6.369  0.5440  0.2156  0.0220
  265MOL    O9342861   6.150   2.808   6.267  0.2616 -0.2486 -0.8027
  265MOL    H9442862   6.052   2.779   6.572  0.9814  0.6206  1.1287
  265MOL    H9542863   6.053   2.609   6.605  1.6385 -1.2707  0.8771
  265MOL    H9642864   6.156   2.576   6.412 -0.2775  0.2647  0.2181
  265MOL    H9742865   6.301   2.635   6.475 -0.5233 -2.0156 -1.7412
  265MOL    C9842866   6.332   2.886   6.399 -0.3227 -0.1152 -0.3565
  265MOL    C9942867   6.399   2.929   6.273  0.4105  0.0219 -0.5352
  265MOL   C10042868   6.413   3.080   6.263 -0.6586 -0.1112  0.3457
  265MOL   O10142869   6.329   3.149   6.204 -0.2420 -0.1811  0.1065
  265MOL   H10242870   6.403   2.828   6.458  0.4676  1.8200  0.6262
  265MOL   H10342871   6.302   2.976   6.453  0.2548  0.8846 -1.6646
  265MOL   H10442872   6.343   2.890   6.188 -1.1234 -1.0315  0.9342
  265MOL   H10542873   6.497   2.882   6.272  0.9102  1.0230  0.2751
  265MOL   C10642874   6.540   3.137   6.310 -0.3750  0.1439 -0.2926
  265MOL   C10742875   6.562   3.273   6.246  0.3343  0.3916  0.1127
  265MOL   C10842876   6.699   3.327   6.277  0.1884  0.5633 -0.6029
  265MOL   O10942877   6.802   3.262   6.253 -0.0384 -0.0235  0.4227
  265MOL   H11042878   6.620   3.063   6.300 -0.1857  0.3735 -0.5003
  265MOL   H11142879   6.527   3.150   6.417 -0.6617  0.1412 -0.3268
  265MOL   H11242880   6.483   3.343   6.273  1.8509  1.5467  1.6823
  265MOL   H11342881   6.560   3.254   6.138  1.0762 -0.2762  0.2139
  265MOL   C11442882   6.710   3.471   6.329  0.1058  0.0597  0.7732
  265MOL   C11542883   6.795   3.477   6.452 -0.0477  0.0694 -0.5534
  265MOL   C11642884   6.922   3.559   6.435  0.4355  0.6242  1.0599
  265MOL   O11742885   7.035   3.505   6.424 -0.1051 -0.4985 -0.0886
  265MOL   H11842886   6.614   3.523   6.334  2.1201  3.9774  0.6282
  265MOL   H11942887   6.763   3.524   6.249 -2.1047 -0.8195 -1.3528
  265MOL   H12042888   6.831   3.381   6.487 -1.6596 -0.6927 -0.9867
  265MOL   H12142889   6.738   3.514   6.537  0.2339 -1.9306  0.5220
  265MOL   C12242890   6.913   3.712   6.426  0.3509 -0.5759 -0.1980
  265MOL   C12342891   7.036   3.777   6.352  0.1952 -0.0895 -0.1624
  265MOL   C12442892   7.053   3.744   6.208  0.5729 -0.4450  0.2495
  265MOL   O12542893   6.956   3.764   6.129 -0.2037  0.6379 -0.3798
  265MOL   H12642894   6.906   3.759   6.524 -1.2647  2.3003 -1.6382
  265MOL   H12742895   6.822   3.740   6.373  1.2337  0.1714 -1.3521
  265MOL   H12842896   7.133   3.761   6.399  0.8279 -0.4013 -1.5476
  265MOL   H12942897   7.013   3.882   6.370  0.0341 -0.1279 -0.1480
  265MOL   C13042898   7.181   3.676   6.171 -0.7938  0.0514  0.2103
  265MOL   C13142899   7.190   3.617   6.029  0.7246  0.6493  0.2562
  265MOL   C13242900   7.147   3.472   6.028 -0.1644  0.9527 -0.1880
  265MOL   O13342901   7.210   3.386   6.083  0.1635  0.1059  0.0154
  265MOL   H13442902   7.208   3.594   6.239  1.1530 -0.2935 -0.9418
  265MOL   H13542903   7.256   3.750   6.197 -1.0012 -0.4545  2.3421
  265MOL   H13642904   7.294   3.627   5.999  1.3204  0.6766  2.2047
  265MOL   H13742905   7.129   3.691   5.978 -0.6604 -0.6603 -0.0272
  265MOL   C13842906   7.009   3.452   5.969 -0.1355 -0.7460  0.5357
  265MOL   C13942907   7.008   3.336   5.864 -0.3667 -0.2504  0.5476
  265MOL   C14042908   6.901   3.331   5.759  0.5423 -0.1342  0.6589
  265MOL   O14142909   6.790   3.305   5.801  0.0991  0.0521  0.3002
  265MOL   H14242910   6.982   3.550   5.931 -0.4725 -1.0389  0.0099
  265MOL   H14342911   6.943   3.429   6.052  1.9745 -2.6874  1.7440
  265MOL   H14442912   7.017   3.245   5.923  1.4216 -1.7071 -1.9043
  265MOL   H14542913   7.099   3.330   5.805 -0.1942  0.5237  0.7265
  265MOL   C14642914   6.941   3.387   5.623 -0.2408  0.0998  0.6159
  265MOL   C14742915   6.830   3.356   5.516 -0.2463  0.2791  0.5008
  265MOL   C14842916   6.733   3.471   5.512 -0.1691 -0.0192 -0.2299
  265MOL   O14942917   6.763   3.580   5.564 -0.0552  0.5161 -0.3339
  265MOL   H15042918   7.038   3.346   5.593 -0.0737  2.0632 -1.6934
  265MOL   H15142919   6.962   3.494   5.635 -0.8798  0.2805  0.0953
  265MOL   H15242920   6.778   3.264   5.544 -0.0197 -0.9847 -2.9609
  265MOL   H15342921   6.870   3.344   5.416  0.6373  1.9870  0.6362
  265MOL   C15442922   6.600   3.450   5.447 -0.0276  0.6839 -0.2048
  265MOL   C15542923   6.486   3.539   5.513  0.3132 -0.6342  0.1801
  265MOL   C15642924   6.366   3.537   5.422 -0.6970 -0.0805 -0.6158
  265MOL   O15742925   6.360   3.453   5.336  0.6293 -0.2936 -0.3821
  265MOL   H15842926   6.572   3.345   5.451 -0.5052  0.8452  1.1231
  265MOL   H15942927   6.612   3.468   5.340  1.3259 -1.4238 -0.4194
  265MOL   H16042928   6.505   3.644   5.533  0.7337 -0.7184  0.2389
  265MOL   H16142929   6.462   3.492   5.608  2.6019  0.0562  1.1384
  265MOL   H16242930   6.283   3.607   5.435 -0.8037 -0.6519  2.0355
  266MOL     C142931   4.544   3.650   1.619  0.4454  0.3692 -0.9113
  266MOL     C242932   4.683   3.641   1.678 -0.3037 -0.0738 -0.3338
  266MOL     C342933   4.779   3.733   1.594 -0.1680 -1.3799  0.4594
  266MOL     O442934   4.744   3.850   1.556 -0.3134  0.1332  0.3085
  266MOL     H542935   4.484   3.571   1.665  1.3573  0.0210 -0.3046
  266MOL     H642936   4.496   3.747   1.627 -0.3294 -0.0922  0.3541
  266MOL     H742937   4.717   3.538   1.689 -0.8470 -0.2645 -0.4345
  266MOL     H842938   4.687   3.671   1.783  1.1739  0.1060 -0.4347
  266MOL     H942939   4.532   3.616   1.516 -1.7302 -1.3676 -0.1451
  266MOL    C1042940   4.913   3.686   1.554 -0.0867  0.6646 -0.0087
  266MOL    C1142941   4.917   3.658   1.409 -0.5092  0.7528 -1.4476
  266MOL    C1242942   5.013   3.542   1.375  0.6720  0.3221 -0.4127
  266MOL    O1342943   5.005   3.433   1.432 -0.9102 -0.0079 -0.0519
  266MOL    H1442944   4.946   3.603   1.618 -0.6050 -0.4296 -1.1438
  266MOL    H1542945   4.992   3.759   1.572 -1.3583  1.8770  0.7503
  266MOL    H1642946   4.966   3.745   1.366 -0.1858  0.6825 -1.2257
  266MOL    H1742947   4.815   3.636   1.376 -0.7195 -0.4626 -0.0497
  266MOL    C1842948   5.113   3.565   1.258 -0.5028  0.4015  0.0695
  266MOL    C1942949   5.027   3.600   1.133 -0.1010 -0.4897  0.0681
  266MOL    C2042950   5.018   3.498   1.025  0.0996  0.4131  0.0896
  266MOL    O2142951   5.077   3.389   1.030  0.2494 -0.2044 -0.2296
  266MOL    H2242952   5.178   3.478   1.245 -0.6592  0.2186  0.5004
  266MOL    H2342953   5.174   3.651   1.287  0.6892 -0.0598 -1.0120
  266MOL    H2442954   5.065   3.689   1.083 -0.5975  0.0120  0.5738
  266MOL    H2542955   4.929   3.633   1.169  0.0749 -1.7168  1.7192
  266MOL    C2642956   4.933   3.540   0.906 -0.6113 -0.0655  0.2272
  266MOL    C2742957   4.904   3.428   0.801 -0.0839 -0.1515 -0.1694
  266MOL    C2842958   4.835   3.496   0.682  0.2387  0.4503 -0.1098
  266MOL    O2942959   4.779   3.607   0.691  0.5961  0.2004  0.0483
  266MOL    H3042960   4.985   3.624   0.860  1.4729 -0.6537  1.4603
  266MOL    H3142961   4.834   3.569   0.940 -1.0346 -0.8688 -0.3196
  266MOL    H3242962   4.839   3.349   0.838 -0.0376 -0.8075 -1.4610
  266MOL    H3342963   4.994   3.377   0.769 -0.8777 -0.1851 -2.4987
  266MOL    C3442964   4.803   3.402   0.568  0.4198  0.4497 -0.5203
  266MOL    C3542965   4.751   3.473   0.446  0.3722  0.2562  0.3193
  266MOL    C3642966   4.705   3.370   0.339 -0.0945 -0.2997 -0.0293
  266MOL    O3742967   4.694   3.253   0.364  0.2053  0.0702 -0.5299
  266MOL    H3842968   4.727   3.339   0.613 -0.3831  3.1832  2.0561
  266MOL    H3942969   4.871   3.321   0.542  0.6052  0.1149  1.0056
  266MOL    H4042970   4.820   3.537   0.392  2.0680 -0.9760  0.9917
  266MOL    H4142971   4.662   3.533   0.466  1.9737  2.0079  2.4321
  266MOL    C4242972   4.678   3.419   0.199  0.1862 -0.2835  1.3568
  266MOL    C4342973   4.710   3.314   0.090  0.1935  0.0765 -0.2162
  266MOL    C4442974   4.633   3.329   7.821 -0.0067 -0.1153  0.4315
  266MOL    O4542975   4.561   3.429   7.794 -0.1238  0.2153 -0.5879
  266MOL    H4642976   4.738   3.508   0.180  0.6956 -0.7508  0.7268
  266MOL    H4742977   4.571   3.439   0.194 -0.2982 -3.1824 -2.2679
  266MOL    H4842978   4.675   3.214   0.117 -1.3366  1.0422  1.4623
  266MOL    H4942979   4.818   3.316   0.072  0.1986 -0.8689 -0.3354
  266MOL    C5042980   4.645   3.204   7.728 -0.2927  0.1212 -0.1891
  266MOL    C5142981   4.560   3.079   7.777 -0.1824  0.0062 -0.0164
  266MOL    C5242982   4.435   3.061   7.691 -0.2457 -0.7191 -0.1730
  266MOL    O5342983   4.438   3.078   7.568 -0.2518  0.2954 -0.9101
  266MOL    H5442984   4.748   3.167   7.735  0.0205  0.9622 -0.3513
  266MOL    H5542985   4.631   3.224   7.622  3.6652  0.6353 -0.7060
  266MOL    H5642986   4.537   3.086   0.025  1.6450 -2.3937  0.5858
  266MOL    H5742987   4.608   2.981   7.788 -1.7490 -0.6441  1.1971
  266MOL    C5842988   4.298   3.022   7.755 -0.8913 -0.1953 -0.0512
  266MOL    C5942989   4.177   3.028   7.663  0.5485 -0.0691  0.3621
  266MOL    C6042990   4.102   2.901   7.650  0.4281  0.1415  0.2857
  266MOL    O6142991   4.141   2.806   7.718  0.4058  0.2527 -0.3571
  266MOL    H6242992   4.276   3.093   7.835 -1.5908 -1.2930  0.7486
  266MOL    H6342993   4.303   2.927   7.806  0.8572  1.1737  2.4394
  266MOL    H6442994   4.212   3.047   7.562 -0.7615 -1.8564 -0.4408
  266MOL    H6542995   4.108   3.109   7.689  1.3359  0.1891  1.7495
  266MOL    C6642996   3.972   2.893   7.573  0.3137  0.4254 -0.0558
  266MOL    C6742997   3.860   2.827   7.654 -0.8916 -0.0494  0.2601
  266MOL    C6842998   3.736   2.922   7.659 -0.2321 -0.4638  0.1639
  266MOL    O6942999   3.749   3.046   7.663  0.2378  0.2672  0.0356
  266MOL    H7043000   3.987   2.850   7.475 -0.3934  0.3487 -0.1365
  266MOL    H7143001   3.946   2.995   7.543  2.4566  0.4206 -2.0213
  266MOL    H7243002   3.890   2.792   7.753 -1.4119  0.2119  0.5126
  266MOL    H7343003   3.833   2.734   7.605  0.6334 -0.1637 -0.4018
  266MOL    C7443004   3.599   2.854   7.657  0.1347 -0.2491  0.1440
  266MOL    C7543005   3.484   2.954   7.630  0.4575 -0.2477  0.0316
  266MOL    C7643006   3.451   2.989   7.478 -0.7225 -0.0638 -0.0310
  266MOL    O7743007   3.529   2.945   7.393 -0.1885  0.0896 -0.8195
  266MOL    H7843008   3.576   2.809   7.753 -2.1507 -2.1729 -1.2215
  266MOL    H7943009   3.606   2.769   7.588  2.1544  1.8975 -2.4148
  266MOL    H8043010   3.492   3.051   7.679  1.5537  0.5333 -1.6383
  266MOL    H8143011   3.385   2.918   7.659 -0.6901  1.4185 -1.6144
  266MOL    C8243012   3.329   3.073   7.447  0.5146 -0.1433  0.4527
  266MOL    C8343013   3.194   3.003   7.461 -0.1616  0.0286  0.2966
  266MOL    C8443014   3.107   3.007   7.331  0.5196  1.1246  0.1234
  266MOL    O8543015   3.159   3.012   7.227  0.3353 -0.2400  0.4017
  266MOL    H8643016   3.338   3.116   7.347 -2.3044 -1.3650 -0.3695
  266MOL    H8743017   3.328   3.152   7.521 -0.2692 -0.6175  0.9599
  266MOL    H8843018   3.123   3.052   7.529  0.3944  0.2482  0.7255
  266MOL    H8943019   3.204   2.897   7.482 -1.9533 -0.1513  0.3283
  266MOL    C9043020   2.954   3.012   7.345 -0.0117 -0.2165 -0.3459
  266MOL    C9143021   2.891   2.932   7.225  0.2018  0.6608  0.0813
  266MOL    C9243022   2.761   2.855   7.254  0.8416  0.0620 -0.6419
  266MOL    O9343023   2.678   2.903   7.332  0.6524 -0.3792  0.4871
  266MOL    H9443024   2.914   3.113   7.356  0.5230  0.1014 -1.3132
  266MOL    H9543025   2.927   2.951   7.431  0.0755 -1.0093 -0.8808
  266MOL    H9643026   2.962   2.855   7.198 -2.5674 -2.0126  0.1713
  266MOL    H9743027   2.887   2.995   7.135  0.4501  0.8807  0.2242
  266MOL    C9843028   2.721   2.727   7.176  0.4478  0.7102  0.2520
  266MOL    C9943029   2.567   2.692   7.169  0.7500 -0.3121 -0.5419
  266MOL   C10043030   2.502   2.766   7.052 -0.0498 -0.1785  0.0231
  266MOL   O10143031   2.565   2.862   7.002  0.1491  0.3402  0.1342
  266MOL   H10243032   2.765   2.644   7.230  0.6516 -0.3730 -1.5274
  266MOL   H10343033   2.753   2.730   7.072 -0.9679  0.7344 -0.1943
  266MOL   H10443034   2.516   2.708   7.264  2.0862  0.4419  0.0594
  266MOL   H10543035   2.544   2.589   7.143  1.4377 -0.5312 -0.2757
  266MOL   C10643036   2.360   2.713   7.010  0.1245  0.2772 -0.0552
  266MOL   C10743037   2.276   2.811   6.930 -0.1907 -0.4769  0.3813
  266MOL   C10843038   2.129   2.763   6.915 -0.0909  0.5772 -0.0329
  266MOL   O10943039   2.117   2.646   6.879  0.2853 -0.4297 -0.0451
  266MOL   H11043040   2.316   2.684   7.106  2.0714  2.4313  1.5328
  266MOL   H11143041   2.375   2.618   6.959  0.8246  0.3933 -0.0703
  266MOL   H11243042   2.318   2.824   6.830 -2.5019  0.8300 -0.4642
  266MOL   H11343043   2.268   2.907   6.980 -1.1453 -1.7701  2.8053
  266MOL   C11443044   2.013   2.857   6.919  0.0394  0.6636  0.5262
  266MOL   C11543045   1.875   2.827   6.843  0.1132  0.1935 -0.2056
  266MOL   C11643046   1.771   2.748   6.915  0.5345  0.1508 -0.6413
  266MOL   O11743047   1.765   2.740   7.036  0.0738  0.2954 -0.3096
  266MOL   H11843048   2.044   2.952   6.876 -1.8431  0.5500 -1.1638
  266MOL   H11943049   1.991   2.877   7.024 -1.3485 -1.1099  0.5895
  266MOL   H12043050   1.885   2.765   6.753  0.5891 -0.1036  0.0536
  266MOL   H12143051   1.828   2.920   6.810 -1.0936 -0.1797  0.4193
  266MOL   C12243052   1.659   2.688   6.829  0.3048 -0.5108 -0.4578
  266MOL   C12343053   1.531   2.766   6.848  0.2653  0.6011 -0.2588
  266MOL   C12443054   1.478   2.844   6.725 -0.4586  0.3092 -0.2432
  266MOL   O12543055   1.551   2.887   6.637 -0.5707 -0.2922 -0.5079
  266MOL   H12643056   1.631   2.587   6.860  0.9342 -1.5556 -3.1736
  266MOL   H12743057   1.688   2.675   6.725 -1.2992 -2.0953 -0.7266
  266MOL   H12843058   1.544   2.827   6.937 -2.2856  0.2164  0.4192
  266MOL   H12943059   1.458   2.689   6.871 -1.1408  2.0088  0.0398
  266MOL   C13043060   1.325   2.854   6.705  1.0601 -0.4108  0.2583
  266MOL   C13143061   1.280   2.852   6.562  0.1992  0.1325  0.2407
  266MOL   C13243062   1.224   2.990   6.517 -0.0518  0.4342  0.4384
  266MOL   O13343063   1.104   3.005   6.512 -0.5690  0.2342  0.4615
  266MOL   H13443064   1.285   2.939   6.760 -0.5503  0.0662 -1.5829
  266MOL   H13543065   1.286   2.771   6.763  1.5064 -0.9944 -0.2711
  266MOL   H13643066   1.207   2.771   6.559  2.8510 -2.3391  0.1125
  266MOL   H13743067   1.360   2.817   6.497  1.8271  1.6379  1.3906
  266MOL   C13843068   1.323   3.102   6.490  0.0995 -0.1727 -0.7409
  266MOL   C13943069   1.279   3.194   6.372  0.3695  0.2809  0.1852
  266MOL   C14043070   1.328   3.338   6.398 -0.7048  0.0936 -0.3229
  266MOL   O14143071   1.282   3.401   6.495  0.7691 -0.5244  0.6790
  266MOL   H14243072   1.421   3.056   6.480 -0.3268 -1.3696  0.4910
  266MOL   H14343073   1.329   3.166   6.577  0.5116 -0.1031 -0.8212
  266MOL   H14443074   1.171   3.205   6.362 -0.0245 -2.5404  0.7477
  266MOL   H14543075   1.316   3.168   6.273 -0.4429 -1.4999  0.3159
  266MOL   C14643076   1.424   3.407   6.302  0.1676 -0.3718 -0.6338
  266MOL   C14743077   1.489   3.533   6.360  0.4659 -0.2093 -0.2344
  266MOL   C14843078   1.417   3.660   6.326 -0.3851 -0.0384 -0.0381
  266MOL   O14943079   1.343   3.664   6.232  0.3077 -1.0202  0.2973
  266MOL   H15043080   1.390   3.426   6.201 -2.5726 -0.8277  0.1739
  266MOL   H15143081   1.504   3.334   6.284 -0.4487 -1.2942  0.3252
  266MOL   H15243082   1.588   3.548   6.316  0.4221 -0.2474 -0.3442
  266MOL   H15343083   1.499   3.515   6.467  3.1592 -3.5917 -0.9585
  266MOL   C15443084   1.455   3.776   6.415  0.0806  0.1502  0.7920
  266MOL   C15543085   1.475   3.907   6.332  0.2628 -0.7561  0.4938
  266MOL   C15643086   1.578   3.995   6.397 -0.0899 -0.5955 -0.0267
  266MOL   O15743087   1.531   4.063   6.485 -0.2029  0.5259  0.4143
  266MOL   H15843088   1.551   3.750   6.460 -0.1912 -1.8930  0.2180
  266MOL   H15943089   1.377   3.789   6.491  0.5377  0.1182  1.2700
  266MOL   H16043090   1.388   3.969   6.311  0.2092 -0.4745  1.5199
  266MOL   H16143091   1.519   3.878   6.236  1.1021  1.9430  0.0302
  266MOL   H16243092   1.679   4.001   6.356 -0.4095  0.8445 -0.6354
  267MOL     C143093   6.262   7.003   5.785  0.5194  0.2339  0.1272
  267MOL     C243094   6.263   6.848   5.802 -0.0080  0.8234 -0.1172
  267MOL     C343095   6.339   6.771   5.694  0.1317  0.8703 -0.9869
  267MOL     O443096   6.363   6.814   5.585  0.2287 -0.2727 -0.1740
  267MOL     H543097   6.310   7.025   5.690 -0.8978  0.7376 -0.4879
  267MOL     H643098   6.159   7.035   5.772  0.8552  1.4663  0.4119
  267MOL     H743099   6.162   6.806   5.797  1.3695 -2.3037 -4.3445
  267MOL     H843100   6.308   6.820   5.897 -0.0171 -0.9784 -0.6241
  267MOL     H943101   6.306   7.056   5.870  2.2184 -2.0130  0.7117
  267MOL    C1043102   6.368   6.629   5.731  0.5383 -0.2016  0.2111
  267MOL    C1143103   6.445   6.537   5.631  0.5319  0.4685  0.0049
  267MOL    C1243104   6.579   6.604   5.593  0.1298  0.6331  0.5558
  267MOL    O1343105   6.652   6.626   5.684  0.1258  0.0786 -0.1979
  267MOL    H1443106   6.272   6.583   5.751  1.1070 -1.9650 -1.0001
  267MOL    H1543107   6.427   6.634   5.823  0.6902 -0.8738  0.1494
  267MOL    H1643108   6.379   6.524   5.545 -0.8285  1.0684  0.9419
  267MOL    H1743109   6.467   6.442   5.679  1.4871  0.6583 -0.0463
  267MOL    C1843110   6.627   6.609   5.451 -0.1691 -0.2980 -0.0326
  267MOL    C1943111   6.624   6.757   5.399 -0.5733  0.5255 -0.0074
  267MOL    C2043112   6.603   6.760   5.245  0.3312  0.4343  0.6622
  267MOL    O2143113   6.663   6.679   5.180  0.1785  0.7475 -0.1807
  267MOL    H2243114   6.554   6.545   5.401 -1.1484  0.8695 -0.1148
  267MOL    H2343115   6.725   6.562   5.451 -0.0988 -0.1556  0.3170
  267MOL    H2443116   6.709   6.818   5.432 -0.8651  0.2126  1.3549
  267MOL    H2543117   6.537   6.815   5.431 -1.7688 -0.2292 -1.8372
  267MOL    C2643118   6.531   6.877   5.190  0.7034  0.4451 -0.1177
  267MOL    C2743119   6.516   6.870   5.042  0.4992  0.0999 -1.0083
  267MOL    C2843120   6.378   6.832   5.001  0.6107 -0.2331  0.1720
  267MOL    O2943121   6.316   6.742   5.054  0.4641 -0.4344  0.8094
  267MOL    H3043122   6.600   6.961   5.197  1.1155  0.1716 -0.9051
  267MOL    H3143123   6.451   6.908   5.258  0.8760 -1.9644  1.2536
  267MOL    H3243124   6.580   6.808   4.979  0.5284  0.3071 -1.1817
  267MOL    H3343125   6.549   6.964   4.999 -0.5996  0.6319 -0.6974
  267MOL    C3443126   6.337   6.908   4.880 -1.3763  0.2261 -0.2567
  267MOL    C3543127   6.179   6.911   4.869 -0.7161 -0.0062 -0.3020
  267MOL    C3643128   6.129   6.944   4.730  0.0684 -0.0398 -0.2883
  267MOL    O3743129   6.162   6.884   4.628  0.0701  0.2724  0.4501
  267MOL    H3843130   6.379   6.852   4.797 -1.5404 -0.3214  0.0247
  267MOL    H3943131   6.385   7.006   4.882 -0.8162  0.0037 -2.0823
  267MOL    H4043132   6.137   6.973   4.948 -0.2227  0.1155 -0.1298
  267MOL    H4143133   6.141   6.811   4.890 -2.5018 -0.0701 -3.5697
  267MOL    C4243134   6.028   7.060   4.728 -0.5403  0.2774 -0.4560
  267MOL    C4343135   6.025   7.119   4.585  0.0313  0.0503  0.4430
  267MOL    C4443136   5.911   7.063   4.501 -0.4101 -0.2437  0.5017
  267MOL    O4543137   5.816   6.990   4.539 -0.6987  0.3074  0.7852
  267MOL    H4643138   6.055   7.129   4.808 -2.5178 -0.2408  0.7128
  267MOL    H4743139   5.937   7.010   4.761  0.1907  0.0197  1.2317
  267MOL    H4843140   6.116   7.093   4.532 -2.1259 -0.8476 -2.9979
  267MOL    H4943141   6.027   7.228   4.588  0.0130  0.0458  0.6933
  267MOL    C5043142   5.924   7.121   4.358 -0.0124 -0.0627  0.3704
  267MOL    C5143143   5.789   7.120   4.293  0.4106  0.3609 -0.0919
  267MOL    C5243144   5.752   6.999   4.208 -0.1069  0.6990 -0.4308
  267MOL    O5343145   5.821   6.898   4.212  0.0749  0.3116  0.0812
  267MOL    H5443146   5.994   7.050   4.312  0.5389  1.1628 -0.7076
  267MOL    H5543147   5.966   7.220   4.375  0.7843 -0.3385  0.0093
  267MOL    H5643148   5.786   7.198   4.217 -1.1942 -1.3340 -1.8332
  267MOL    H5743149   5.708   7.140   4.363 -0.5154 -0.8077 -0.8046
  267MOL    C5843150   5.611   6.991   4.138 -0.3941 -0.2897 -0.5219
  267MOL    C5943151   5.625   6.943   3.990 -0.2272 -0.2084  0.4172
  267MOL    C6043152   5.548   6.806   3.965 -0.3036 -0.0125  0.0298
  267MOL    O6143153   5.498   6.745   4.060  0.0455 -0.2575 -0.8121
  267MOL    H6243154   5.540   7.073   4.151 -1.9940 -1.6981 -0.3091
  267MOL    H6343155   5.560   6.921   4.203 -0.3623  0.4307  0.2899
  267MOL    H6443156   5.732   6.933   3.971  0.1936  2.3096  1.3572
  267MOL    H6543157   5.578   7.015   3.923  1.7885 -0.2868 -1.0960
  267MOL    C6643158   5.555   6.736   3.824  0.3094 -0.1412  0.3296
  267MOL    C6743159   5.412   6.721   3.763  0.2928  0.9951 -0.0173
  267MOL    C6843160   5.411   6.723   3.607 -0.0566 -0.1003 -0.2488
  267MOL    O6943161   5.515   6.746   3.543 -0.2352  0.3599 -0.6951
  267MOL    H7043162   5.592   6.635   3.836  0.3611 -0.4487 -2.1782
  267MOL    H7143163   5.628   6.788   3.762 -0.5670  1.0550  0.2711
  267MOL    H7243164   5.339   6.797   3.790 -0.4752 -0.4694  2.1669
  267MOL    H7343165   5.370   6.624   3.791  1.4538  0.8217  1.1526
  267MOL    C7443166   5.292   6.676   3.531  0.8857 -1.1796 -0.0237
  267MOL    C7543167   5.153   6.699   3.594 -0.0306 -0.2958  0.1172
  267MOL    C7643168   5.055   6.585   3.554 -0.5779 -0.3781  0.0565
  267MOL    O7743169   4.960   6.593   3.475 -0.0686 -0.0252 -0.4927
  267MOL    H7843170   5.300   6.571   3.506 -0.4276 -1.7573  1.9029
  267MOL    H7943171   5.290   6.728   3.435 -1.0458  1.2639  1.2752
  267MOL    H8043172   5.110   6.784   3.541  1.1668 -1.0836 -2.1716
  267MOL    H8143173   5.148   6.722   3.700  2.3118 -1.3211  0.4823
  267MOL    C8243174   5.075   6.459   3.638  0.7172  0.9711  0.2253
  267MOL    C8343175   4.971   6.342   3.618 -0.5552 -0.3899 -0.4493
  267MOL    C8443176   5.024   6.205   3.633  0.5080 -0.2902 -0.6605
  267MOL    O8543177   5.035   6.118   3.548 -0.1122  0.0189 -0.0662
  267MOL    H8643178   5.067   6.493   3.741  0.6274 -0.1027  0.5899
  267MOL    H8743179   5.175   6.421   3.619  0.2195  0.8997 -2.4545
  267MOL    H8843180   4.945   6.352   3.512 -1.7039  0.6462 -0.0846
  267MOL    H8943181   4.878   6.360   3.673  0.9042 -0.4737  2.0854
  267MOL    C9043182   5.067   6.173   3.772  0.0592 -0.0852  0.9074
  267MOL    C9143183   5.222   6.162   3.783  0.6783 -0.6127 -0.0579
  267MOL    C9243184   5.288   6.253   3.876 -0.2321 -0.1423  0.5998
  267MOL    O9343185   5.235   6.353   3.924 -0.2705 -0.2966 -0.0621
  267MOL    H9443186   5.018   6.082   3.807  1.0501 -0.6965  0.7156
  267MOL    H9543187   5.027   6.247   3.842 -1.6723 -1.2680  1.2158
  267MOL    H9643188   5.275   6.157   3.688  1.1359  0.5035  0.1415
  267MOL    H9743189   5.255   6.061   3.808  0.1336 -0.8840 -0.4278
  267MOL    C9843190   5.429   6.219   3.915 -0.0982  0.0500  0.5569
  267MOL    C9943191   5.437   6.172   4.065 -0.0075 -0.8214  0.5513
  267MOL   C10043192   5.468   6.287   4.163  0.2845 -0.3009 -0.0797
  267MOL   O10143193   5.569   6.352   4.155  0.3327  0.9521 -0.6209
  267MOL   H10243194   5.485   6.312   3.907 -0.5191  0.2689  0.1051
  267MOL   H10343195   5.464   6.137   3.852 -0.4788  1.8775 -2.1428
  267MOL   H10443196   5.524   6.106   4.073 -0.7425 -1.9619 -0.6931
  267MOL   H10543197   5.354   6.112   4.101 -0.4879  1.6070  3.6694
  267MOL   C10643198   5.362   6.318   4.270  0.0630  0.0417 -0.2396
  267MOL   C10743199   5.408   6.424   4.371 -0.3525  0.6215 -0.3652
  267MOL   C10843200   5.301   6.524   4.406  0.0704 -1.1543 -0.0497
  267MOL   O10943201   5.185   6.498   4.435  0.6927 -0.4293  0.3089
  267MOL   H11043202   5.341   6.224   4.321  1.1645  0.6561  1.3737
  267MOL   H11143203   5.272   6.355   4.219  1.9405  2.1430 -2.1495
  267MOL   H11243204   5.492   6.483   4.333  0.0808 -0.0881 -0.5136
  267MOL   H11343205   5.430   6.367   4.461 -0.9661  0.8175 -0.0886
  267MOL   C11443206   5.351   6.669   4.412  0.8083  0.6528 -0.2489
  267MOL   C11543207   5.250   6.764   4.486 -0.0243  0.1701 -0.3003
  267MOL   C11643208   5.295   6.779   4.631 -0.6095 -0.1318 -0.0676
  267MOL   O11743209   5.233   6.718   4.718 -0.1162  0.7913 -0.5264
  267MOL   H11843210   5.377   6.704   4.312  0.4744 -0.5258 -0.7575
  267MOL   H11943211   5.450   6.667   4.458  0.2979  2.8018  1.0087
  267MOL   H12043212   5.146   6.731   4.484 -0.0217  0.0502  1.2735
  267MOL   H12143213   5.255   6.863   4.440  2.1355  0.2278 -0.0254
  267MOL   C12243214   5.402   6.878   4.656 -0.2495  0.0596  1.0012
  267MOL   C12343215   5.411   6.929   4.802 -0.7066 -0.4805 -0.5087
  267MOL   C12443216   5.530   6.877   4.880 -0.5895 -0.0105 -0.2082
  267MOL   O12543217   5.600   6.787   4.842  0.1382 -0.9490  0.4013
  267MOL   H12643218   5.375   6.962   4.592  0.7184  1.0445  1.8669
  267MOL   H12743219   5.498   6.839   4.623 -1.7179 -0.7584 -2.5467
  267MOL   H12843220   5.325   6.892   4.859 -0.6781  0.2902  0.0585
  267MOL   H12943221   5.405   7.038   4.800 -1.2654 -0.4934  0.0588
  267MOL   C13043222   5.570   6.951   5.012 -0.9544  0.4438  0.0007
  267MOL   C13143223   5.702   6.901   5.070 -0.4125 -0.1240 -0.0900
  267MOL   C13243224   5.682   6.829   5.201 -0.3727 -0.5029 -0.1747
  267MOL   O13343225   5.689   6.887   5.310  0.2889  0.3640 -0.1156
  267MOL   H13443226   5.493   6.952   5.089 -0.5825  2.4568  0.3587
  267MOL   H13543227   5.588   7.055   4.984 -0.5533  0.9203  1.9529
  267MOL   H13643228   5.761   6.984   5.107  0.4496 -0.2011 -1.2891
  267MOL   H13743229   5.773   6.853   5.003 -0.8399 -0.5950 -0.2111
  267MOL   C13843230   5.659   6.678   5.190  0.4001  0.1433  0.1389
  267MOL   C13943231   5.588   6.611   5.308  0.0911  0.6791 -0.2183
  267MOL   C14043232   5.675   6.509   5.379 -0.4240 -0.4101  0.4741
  267MOL   O14143233   5.790   6.487   5.344  0.5409 -0.2734 -0.1457
  267MOL   H14243234   5.744   6.621   5.152 -0.5646 -0.7313 -0.7472
  267MOL   H14343235   5.584   6.676   5.111  0.7304  1.3427 -0.2151
  267MOL   H14443236   5.505   6.549   5.272  2.3336 -1.1994 -2.2839
  267MOL   H14543237   5.542   6.684   5.375 -2.8979 -0.4791 -0.8974
  267MOL   C14643238   5.612   6.425   5.494  0.2602  0.1575  0.1676
  267MOL   C14743239   5.712   6.319   5.543  0.1334  0.6064  0.3242
  267MOL   C14843240   5.835   6.377   5.621 -0.3885  0.2563 -1.0577
  267MOL   O14943241   5.837   6.498   5.645  0.3595 -0.1773  0.3863
  267MOL   H15043242   5.518   6.381   5.461  0.3598 -0.1858  0.3484
  267MOL   H15143243   5.587   6.495   5.574  1.2826  1.1796 -0.3920
  267MOL   H15243244   5.745   6.262   5.456 -0.9905  1.5088 -0.7180
  267MOL   H15343245   5.656   6.263   5.618  0.1499  0.4430  0.2131
  267MOL   C15443246   5.932   6.276   5.665 -0.3215 -0.5699  0.5374
  267MOL   C15543247   6.067   6.315   5.736  0.4621  0.2457 -0.3789
  267MOL   C15643248   6.171   6.205   5.730 -0.1731  0.9208  0.8363
  267MOL   O15743249   6.138   6.087   5.710  0.0273 -0.3645  0.1850
  267MOL   H15843250   5.949   6.209   5.581 -0.1571 -1.1802  1.0629
  267MOL   H15943251   5.868   6.217   5.731  0.7604 -2.3902 -0.0152
  267MOL   H16043252   6.050   6.323   5.844 -0.9163  0.6304 -0.6124
  267MOL   H16143253   6.110   6.408   5.700  0.2437  0.3548 -0.3555
  267MOL   H16243254   6.272   6.239   5.753  0.1427 -0.4283  1.4982
  268MOL     C143255   6.499   6.307   4.104 -0.4930  0.2361 -0.3850
  268MOL     C243256   6.363   6.309   4.183  0.4651 -0.2854  0.0168
  268MOL     C343257   6.385   6.373   4.320 -0.3148 -0.5495 -0.8953
  268MOL     O443258   6.499   6.393   4.369  0.5703 -0.0808  0.1773
  268MOL     H543259   6.500   6.296   3.995 -0.5172  0.3035 -0.3917
  268MOL     H643260   6.553   6.401   4.100  1.3740 -0.8928 -4.4759
  268MOL     H743261   6.310   6.214   4.196  1.3432 -0.6542  0.9254
  268MOL     H843262   6.302   6.375   4.122 -0.4717 -1.1556 -0.0076
  268MOL     H943263   6.569   6.232   4.142  1.2472  1.9659 -0.1251
  268MOL    C1043264   6.259   6.405   4.394  0.1506 -0.1441  0.2539
  268MOL    C1143265   6.279   6.402   4.539 -0.6989 -0.1066  0.0846
  268MOL    C1243266   6.165   6.328   4.611  0.1164 -0.3582  0.3469
  268MOL    O1343267   6.046   6.364   4.585  0.0471  0.4410 -0.0501
  268MOL    H1443268   6.188   6.327   4.366 -1.9339  1.9493 -0.4824
  268MOL    H1543269   6.216   6.498   4.356 -3.1478 -0.5085  2.8649
  268MOL    H1643270   6.285   6.504   4.578  1.5689  0.7614 -2.3243
  268MOL    H1743271   6.369   6.346   4.566  0.6719  1.4181 -1.1619
  268MOL    C1843272   6.197   6.229   4.717 -0.9070 -0.4356 -0.5079
  268MOL    C1943273   6.105   6.111   4.730 -0.0859  0.7746  0.6730
  268MOL    C2043274   6.081   6.058   4.876  0.0659 -0.4610 -0.2374
  268MOL    O2143275   6.148   6.096   4.971 -0.4439  0.4119  0.2912
  268MOL    H2243276   6.183   6.289   4.807  0.0791 -0.7952 -0.1041
  268MOL    H2343277   6.299   6.192   4.707 -1.4274 -2.3266  0.7386
  268MOL    H2443278   6.154   6.023   4.688 -1.7102 -0.3867  1.1544
  268MOL    H2543279   6.012   6.127   4.677 -2.0095  0.1271  3.7511
  268MOL    C2643280   5.968   5.955   4.894 -0.2914 -0.1172  0.2269
  268MOL    C2743281   5.905   5.931   5.038  0.0374  0.5414  0.0579
  268MOL    C2843282   5.782   6.009   5.073  0.5417 -0.4094 -0.1925
  268MOL    O2943283   5.731   6.060   4.973 -0.2798 -0.5608  0.2327
  268MOL    H3043284   5.994   5.853   4.867 -0.2947 -0.5447  1.7782
  268MOL    H3143285   5.881   5.978   4.832 -0.7956  0.6131  1.1777
  268MOL    H3243286   5.974   5.949   5.121  0.2911  0.5363 -0.1536
  268MOL    H3343287   5.877   5.826   5.046  0.6139  0.4943  1.7760
  268MOL    C3443288   5.735   6.033   5.215  0.1355  1.0724 -0.7241
  268MOL    C3543289   5.612   6.135   5.242 -0.3867  0.3287 -0.5806
  268MOL    C3643290   5.475   6.071   5.214 -0.3516 -0.3496  0.1448
  268MOL    O3743291   5.470   5.946   5.197 -0.7504  0.6699 -0.0769
  268MOL    H3843292   5.819   6.059   5.279  0.5353  2.1281 -1.6764
  268MOL    H3943293   5.710   5.936   5.259 -0.8248  2.5064  1.9841
  268MOL    H4043294   5.640   6.214   5.172  0.6445  0.0047 -0.5321
  268MOL    H4143295   5.613   6.177   5.342 -2.3482 -0.0915 -0.3499
  268MOL    C4243296   5.355   6.162   5.216  1.1749  0.4671 -0.8124
  268MOL    C4343297   5.237   6.091   5.285  0.3885 -0.2665 -0.0980
  268MOL    C4443298   5.100   6.141   5.250  0.2215  1.1321 -0.1481
  268MOL    O4543299   5.082   6.255   5.206 -0.5752  0.1822 -0.4383
  268MOL    H4643300   5.345   6.186   5.110 -0.9691 -0.0592 -0.7468
  268MOL    H4743301   5.376   6.253   5.272  1.1719 -1.7366  2.9358
  268MOL    H4843302   5.254   6.089   5.393 -0.4721 -1.0171  0.0229
  268MOL    H4943303   5.234   5.985   5.259  0.2635 -0.8297  2.0872
  268MOL    C5043304   4.985   6.049   5.280  0.4194 -1.0934  0.6497
  268MOL    C5143305   4.881   6.124   5.373  0.1685 -0.1204 -0.3796
  268MOL    C5243306   4.880   6.088   5.519 -0.6684 -0.1167  0.2740
  268MOL    O5343307   4.968   6.025   5.576  0.7224  0.2232 -0.0801
  268MOL    H5443308   5.034   5.970   5.336 -0.1352 -2.1814 -0.3841
  268MOL    H5543309   4.944   5.999   5.192 -1.5501 -1.7028  1.9004
  268MOL    H5643310   4.783   6.114   5.326  0.6264 -0.0765 -1.3608
  268MOL    H5743311   4.909   6.229   5.377 -1.6094  0.2833  1.8180
  268MOL    C5843312   4.749   6.127   5.599 -0.1878 -0.6259 -0.8102
  268MOL    C5943313   4.761   6.081   5.747 -0.3036 -0.4145  0.5988
  268MOL    C6043314   4.820   6.185   5.850  0.5996  0.0331  0.9540
  268MOL    O6143315   4.867   6.291   5.819 -0.1509  0.1054 -0.3952
  268MOL    H6243316   4.666   6.082   5.546 -0.5689  0.9843 -1.6330
  268MOL    H6343317   4.741   6.236   5.593  2.2363 -0.5041 -2.4703
  268MOL    H6443318   4.824   5.992   5.754  1.2967  0.7044  0.6043
  268MOL    H6543319   4.660   6.059   5.782 -1.3376  3.2848  0.1179
  268MOL    C6643320   4.816   6.137   5.997  0.6745 -0.1819  0.5835
  268MOL    C6743321   4.931   6.194   6.079 -0.3665 -0.8094  0.1029
  268MOL    C6843322   5.053   6.111   6.065  0.3806  0.7604 -0.3045
  268MOL    O6943323   5.065   6.028   5.975  0.2118 -0.1762  0.1471
  268MOL    H7043324   4.827   6.029   5.987 -0.5159 -0.3442  0.8880
  268MOL    H7143325   4.716   6.161   6.033  0.9559  1.0526  0.5603
  268MOL    H7243326   4.895   6.180   6.181 -1.7634 -1.3556 -0.4512
  268MOL    H7343327   4.957   6.299   6.062 -0.1360 -1.0290 -0.9755
  268MOL    C7443328   5.171   6.136   6.162 -0.1824  0.1744  0.7649
  268MOL    C7543329   5.278   6.032   6.153 -0.2246  0.3939  0.2991
  268MOL    C7643330   5.409   6.098   6.178 -0.5896 -0.1607 -0.5319
  268MOL    O7743331   5.485   6.142   6.091  0.0742  0.1552 -0.4070
  268MOL    H7843332   5.136   6.121   6.264  0.8512 -4.3030  0.5281
  268MOL    H7943333   5.205   6.239   6.148  0.8810 -0.2773  0.0315
  268MOL    H8043334   5.268   5.973   6.062 -0.4937  0.5816  0.2087
  268MOL    H8143335   5.253   5.954   6.226 -1.0967 -0.0504 -0.4661
  268MOL    C8243336   5.450   6.109   6.323  0.1503 -0.0057  0.2279
  268MOL    C8343337   5.541   6.229   6.351  0.2801  0.3892 -0.1170
  268MOL    C8443338   5.465   6.361   6.368  0.7841 -0.1218 -0.2227
  268MOL    O8543339   5.342   6.365   6.357  0.2439  0.2523  0.4771
  268MOL    H8643340   5.503   6.015   6.339 -2.1873 -1.2096  1.2236
  268MOL    H8743341   5.368   6.107   6.395  0.4313  0.1299  0.5527
  268MOL    H8843342   5.620   6.235   6.276 -0.3479  1.8050 -0.6666
  268MOL    H8943343   5.586   6.198   6.446  1.5373  1.8707 -0.2144
  268MOL    C9043344   5.543   6.473   6.429 -0.1250 -0.6781 -0.0023
  268MOL    C9143345   5.468   6.613   6.407  0.4303 -0.1590  0.1973
  268MOL    C9243346   5.556   6.729   6.395 -0.1825  0.2196 -0.1033
  268MOL    O9343347   5.677   6.715   6.382  0.4328 -0.4341  0.3066
  268MOL    H9443348   5.639   6.473   6.378 -0.0864 -1.3081  0.0694
  268MOL    H9543349   5.568   6.467   6.535 -0.6633  2.4101  0.3697
  268MOL    H9643350   5.403   6.631   6.492  1.9213 -2.8667  1.9755
  268MOL    H9743351   5.398   6.602   6.323  0.6403  1.6762 -0.2357
  268MOL    C9843352   5.492   6.863   6.381  0.8075  0.5512 -0.2136
  268MOL    C9943353   5.535   6.956   6.496  0.2617 -0.5126 -0.1301
  268MOL   C10043354   5.599   7.088   6.457  0.2053 -0.5519 -0.0304
  268MOL   O10143355   5.618   7.114   6.339  0.7074 -0.5880  0.1730
  268MOL   H10243356   5.384   6.857   6.366  0.8879 -0.8941 -0.2775
  268MOL   H10343357   5.528   6.902   6.285  2.2348  0.2988  0.2181
  268MOL   H10443358   5.611   6.910   6.559  0.7266 -2.4073 -2.0134
  268MOL   H10543359   5.451   6.974   6.562 -0.7151 -1.3686 -1.1138
  268MOL   C10643360   5.637   7.190   6.573 -1.0479  0.3028 -0.7709
  268MOL   C10743361   5.708   7.321   6.507 -0.4184 -0.1713 -0.6673
  268MOL   C10843362   5.800   7.386   6.605 -0.0666 -0.3671 -1.2364
  268MOL   O10943363   5.820   7.344   6.724  0.2873 -0.1071  0.2131
  268MOL   H11043364   5.712   7.142   6.636  0.0984  0.7054 -1.8228
  268MOL   H11143365   5.545   7.220   6.623  0.1280 -0.0047  1.6702
  268MOL   H11243366   5.633   7.400   6.498  1.7481  1.8656 -1.3150
  268MOL   H11343367   5.742   7.303   6.405 -1.4417  3.3475 -1.6862
  268MOL   C11443368   5.885   7.510   6.561 -1.0234  0.0410 -0.0551
  268MOL   C11543369   5.894   7.625   6.669 -0.0187  0.0684  0.2399
  268MOL   C11643370   5.780   7.730   6.645 -0.1391  0.5106 -0.4589
  268MOL   O11743371   5.671   7.698   6.613 -0.2818  0.3073  0.0941
  268MOL   H11843372   5.852   7.558   6.469 -2.9492 -0.7481  0.1940
  268MOL   H11943373   5.983   7.472   6.535 -1.4796 -1.2995  0.1266
  268MOL   H12043374   5.995   7.665   6.656 -0.1125  0.1555 -0.2474
  268MOL   H12143375   5.875   7.579   6.766 -0.8571  0.9663  0.5106
  268MOL   C12243376   5.819   0.015   6.663 -0.4277 -0.2186  0.4799
  268MOL   C12343377   5.697   0.091   6.719 -0.2689 -0.0038 -0.3746
  268MOL   C12443378   5.623   0.176   6.612  0.6003 -0.1624 -0.4138
  268MOL   O12543379   5.654   0.169   6.492  0.1543 -0.7694 -0.3842
  268MOL   H12643380   5.856   0.051   6.567 -1.4158 -3.1065 -1.0459
  268MOL   H12743381   5.897   0.026   6.738  1.2475  0.4401 -1.3073
  268MOL   H12843382   5.730   0.157   6.799  1.5345  0.6132 -1.5953
  268MOL   H12943383   5.614   0.027   6.750 -0.8245  0.0580 -1.6771
  268MOL   C13043384   5.528   0.285   6.664  0.1397  1.3970 -0.0355
  268MOL   C13143385   5.392   0.268   6.591 -0.3367 -0.8383  0.0277
  268MOL   C13243386   5.362   0.382   6.506  0.2771 -0.3998 -0.6338
  268MOL   O13343387   5.444   0.423   6.427  0.0261  0.2322 -0.1211
  268MOL   H13443388   5.565   0.384   6.638  1.6606  1.1082  1.0458
  268MOL   H13543389   5.528   0.267   6.771 -1.1697 -4.7284 -0.8424
  268MOL   H13643390   5.318   0.256   6.670  1.2071 -0.8550  1.5224
  268MOL   H13743391   5.379   0.183   6.524  2.1093 -2.0303  0.9984
  268MOL   C13843392   5.232   0.459   6.536  0.6851 -0.2263 -0.8764
  268MOL   C13943393   5.220   0.591   6.462  0.4307 -0.2379  0.2668
  268MOL   C14043394   5.149   0.583   6.325 -0.3675  0.2344  0.0748
  268MOL   O14143395   5.052   0.507   6.309 -0.0947  0.0241 -0.7740
  268MOL   H14243396   5.230   0.482   6.643 -1.8927 -0.3059 -0.9003
  268MOL   H14343397   5.153   0.388   6.514  0.1384  0.0327  0.1836
  268MOL   H14443398   5.315   0.643   6.453  0.9029 -1.1602 -0.1168
  268MOL   H14543399   5.153   0.652   6.523  0.6633  0.0851  0.1992
  268MOL   C14643400   5.217   0.662   6.215  0.0964 -0.3090  0.4751
  268MOL   C14743401   5.193   0.585   6.081 -0.0618 -0.3901 -0.1586
  268MOL   C14843402   5.074   0.626   5.997 -0.3396 -0.6205  0.6089
  268MOL   O14943403   5.032   0.742   5.991 -0.1232  0.2519 -0.2346
  268MOL   H15043404   5.316   0.700   6.240 -0.5017  1.8415 -0.2943
  268MOL   H15143405   5.163   0.756   6.211  2.5580  1.1138 -0.2722
  268MOL   H15243406   5.186   0.478   6.101 -2.2097 -0.8252 -2.9730
  268MOL   H15343407   5.280   0.597   6.016 -1.5798 -1.4133 -2.4580
  268MOL   C15443408   5.009   0.516   5.915 -0.8670 -0.0714  0.3680
  268MOL   C15543409   5.086   0.498   5.784 -0.2069 -0.9437 -0.8850
  268MOL   C15643410   5.212   0.412   5.780  0.4297 -0.0829 -0.0588
  268MOL   O15743411   5.213   0.305   5.843  0.6439 -0.0794 -0.5973
  268MOL   H15843412   4.903   0.534   5.899 -0.9374  0.2474  1.1515
  268MOL   H15943413   5.015   0.419   5.965  0.8466 -0.4735 -0.5623
  268MOL   H16043414   5.100   0.592   5.732 -1.3618 -0.2196  0.0842
  268MOL   H16143415   5.017   0.448   5.716 -0.5150 -3.2273  1.0198
  268MOL   H16243416   5.302   0.443   5.727 -0.5341  2.9002 -0.0143
  269MOL     C143417   3.886   2.003   4.342  0.6328 -0.0550 -0.4320
  269MOL     C243418   3.970   2.055   4.464 -0.1244 -0.0798 -0.4216
  269MOL     C343419   4.112   2.102   4.443 -1.1192 -0.4683  0.5287
  269MOL     O443420   4.172   2.068   4.335  0.5561 -0.0196 -1.2185
  269MOL     H543421   3.924   1.903   4.322 -2.6455 -1.4974  0.2458
  269MOL     H643422   3.780   2.005   4.369  0.6210  0.8887 -0.5375
  269MOL     H743423   3.964   1.980   4.543 -0.0768  1.6620  1.2575
  269MOL     H843424   3.917   2.136   4.513  0.1238  1.0563 -1.9862
  269MOL     H943425   3.892   2.066   4.254 -0.4326 -0.8554 -1.0905
  269MOL    C1043426   4.182   2.184   4.545 -0.1549 -0.8074  0.4770
  269MOL    C1143427   4.278   2.101   4.634  0.5062  0.0674 -0.6532
  269MOL    C1243428   4.222   2.057   4.767 -0.8113  0.2056 -0.0420
  269MOL    O1343429   4.108   2.091   4.804 -0.3427 -0.0408 -0.1825
  269MOL    H1443430   4.107   2.240   4.601 -1.0299  1.4951 -2.8629
  269MOL    H1543431   4.247   2.257   4.497 -0.1591  0.0410  1.7207
  269MOL    H1643432   4.362   2.166   4.657  0.7779 -1.2471  2.2843
  269MOL    H1743433   4.305   2.016   4.572 -1.3121  1.1194 -3.0004
  269MOL    C1843434   4.317   1.981   4.857 -0.3408 -0.5895  0.0994
  269MOL    C1943435   4.286   2.001   5.009  0.9150 -0.7641  0.7691
  269MOL    C2043436   4.211   1.899   5.084 -0.1250  0.5124  0.4586
  269MOL    O2143437   4.164   1.798   5.034  0.0697 -0.2966 -0.3721
  269MOL    H2243438   4.411   2.024   4.823 -1.5183  2.2306  0.2632
  269MOL    H2343439   4.313   1.875   4.830  0.2847 -0.8205  0.8992
  269MOL    H2443440   4.233   2.094   5.029  3.6485  0.6337  1.6852
  269MOL    H2543441   4.384   2.017   5.053  0.5786  0.6973  1.0081
  269MOL    C2643442   4.177   1.945   5.227  0.7204  0.1439  0.3993
  269MOL    C2743443   4.044   2.012   5.244  0.9713  0.8795 -0.0224
  269MOL    C2843444   3.948   1.926   5.324  0.0834 -0.0090 -0.1585
  269MOL    O2943445   3.940   1.925   5.445 -0.3925 -0.2248  0.0646
  269MOL    H3043446   4.248   2.024   5.252  0.8952 -0.3684  1.5311
  269MOL    H3143447   4.209   1.865   5.294 -1.2264 -0.4331  0.6654
  269MOL    H3243448   4.005   2.055   5.152  2.5325  1.8331 -0.2726
  269MOL    H3343449   4.069   2.099   5.306  1.0700  0.0905  1.0537
  269MOL    C3443450   3.869   1.842   5.234 -0.1081 -0.0743 -0.0562
  269MOL    C3543451   3.802   1.723   5.294  0.1936 -0.6227 -0.1233
  269MOL    C3643452   3.644   1.725   5.295 -0.4195 -0.8837  0.4928
  269MOL    O3743453   3.571   1.822   5.314 -0.5066  0.2255  0.2939
  269MOL    H3843454   3.933   1.805   5.154 -0.9574 -0.4467 -0.5633
  269MOL    H3943455   3.785   1.901   5.197  0.6411  0.2058 -1.3517
  269MOL    H4043456   3.849   1.701   5.390  4.3533  0.9905 -1.6738
  269MOL    H4143457   3.816   1.631   5.238 -4.3865  0.2820 -3.0123
  269MOL    C4243458   3.584   1.585   5.288 -0.0034  0.0849 -0.2239
  269MOL    C4343459   3.460   1.563   5.375 -0.0856  0.5449  0.3507
  269MOL    C4443460   3.368   1.454   5.323  0.4716  0.4892  0.1665
  269MOL    O4543461   3.389   1.391   5.217 -0.6747  0.2740  0.0191
  269MOL    H4643462   3.660   1.511   5.311 -0.8080 -0.9848 -0.9771
  269MOL    H4743463   3.550   1.587   5.185 -0.1313  1.6315 -0.1773
  269MOL    H4843464   3.402   1.655   5.379 -0.7597  0.0772  1.6683
  269MOL    H4943465   3.487   1.538   5.478  1.3686  0.9632  0.0773
  269MOL    C5043466   3.243   1.428   5.406 -0.6581  0.4967 -0.5919
  269MOL    C5143467   3.149   1.336   5.331 -0.1659 -0.1799  0.0353
  269MOL    C5243468   3.158   1.190   5.372 -0.0182 -0.5145  1.0649
  269MOL    O5343469   3.260   1.146   5.429  0.4465  0.2687 -0.1115
  269MOL    H5443470   3.194   1.526   5.405 -2.2121 -0.2754 -0.9164
  269MOL    H5543471   3.277   1.405   5.506 -0.0762  1.5765 -0.5285
  269MOL    H5643472   3.145   1.345   5.223 -1.1201 -1.5329 -0.0545
  269MOL    H5743473   3.050   1.365   5.366  0.2106 -1.3829  2.2109
  269MOL    C5843474   3.042   1.105   5.317 -0.4687 -0.1744 -0.3617
  269MOL    C5943475   3.024   0.972   5.385  0.1870  0.0762  0.6397
  269MOL    C6043476   2.983   0.859   5.289  0.3263 -0.4168 -0.2207
  269MOL    O6143477   2.937   0.887   5.179 -0.2553  0.0186  0.3595
  269MOL    H6243478   3.070   1.086   5.214 -0.0249  1.2338 -0.5115
  269MOL    H6343479   2.953   1.166   5.305 -2.3546 -2.8091 -0.0951
  269MOL    H6443480   2.934   0.980   5.446  1.3320  1.8502  2.1675
  269MOL    H6543481   3.098   0.938   5.458  0.0180  0.4937  1.0129
  269MOL    C6643482   3.004   0.713   5.330  0.1299 -0.4519 -0.1972
  269MOL    C6743483   3.002   0.614   5.206 -0.1053 -0.1409  0.4494
  269MOL    C6843484   3.118   0.630   5.108  0.9727  1.3134 -0.1085
  269MOL    O6943485   3.206   0.711   5.123  0.6686  0.1400 -0.2198
  269MOL    H7043486   2.925   0.700   5.405 -0.7955  1.3709 -0.8304
  269MOL    H7143487   3.103   0.709   5.374  0.9965  2.2122 -1.8133
  269MOL    H7243488   2.914   0.623   5.142  1.1943 -1.1661 -1.5545
  269MOL    H7343489   3.001   0.507   5.227  2.6213 -0.4599 -0.8386
  269MOL    C7443490   3.131   0.518   4.996 -0.5344  0.2599  0.7912
  269MOL    C7543491   3.222   0.407   5.050 -0.6439  0.9560  0.0649
  269MOL    C7643492   3.141   0.285   5.063  0.4286  0.5524 -0.5159
  269MOL    O7743493   3.021   0.294   5.084  0.0434 -0.3916  0.6995
  269MOL    H7843494   3.174   0.575   4.913  1.4732  0.8730  2.2114
  269MOL    H7943495   3.032   0.486   4.964  0.2179 -3.4051  1.8512
  269MOL    H8043496   3.274   0.440   5.139  0.5877  1.6142 -0.8772
  269MOL    H8143497   3.290   0.379   4.970 -0.2126  0.2965  0.6566
  269MOL    C8243498   3.204   0.149   5.089  0.0642  0.2995 -0.6324
  269MOL    C8343499   3.098   0.044   5.140 -0.9401 -0.2938  0.4522
  269MOL    C8443500   3.136   7.758   5.093  0.4511 -0.5973  0.2619
  269MOL    O8543501   3.228   7.743   5.013 -0.2657 -0.0639  0.5918
  269MOL    H8643502   3.280   0.157   5.167 -0.0116  0.3393 -0.5613
  269MOL    H8743503   3.246   0.120   4.993 -0.2325 -0.9699 -0.3902
  269MOL    H8843504   2.999   0.060   5.097 -1.3463 -0.3523  1.3676
  269MOL    H8943505   3.092   0.037   5.248  2.1267  0.0583  0.7091
  269MOL    C9043506   3.060   7.643   5.141  0.0674 -0.0382  0.1177
  269MOL    C9143507   3.086   7.575   5.279  0.0826 -0.0449  0.2392
  269MOL    C9243508   2.963   7.555   5.367  0.1947  0.4970 -0.7746
  269MOL    O9343509   2.845   7.587   5.336 -0.0502 -0.2177 -0.0066
  269MOL    H9443510   3.048   7.567   5.064 -4.7062 -0.4652  1.1116
  269MOL    H9543511   2.963   7.694   5.138  0.2828  0.4258  0.8327
  269MOL    H9643512   3.150   7.635   5.343 -0.0371 -2.5108  2.7838
  269MOL    H9743513   3.135   7.479   5.261 -0.2133 -0.1964  0.2342
  269MOL    C9843514   2.984   7.470   5.489  0.3616 -0.2650  0.2469
  269MOL    C9943515   2.852   7.417   5.551  0.4677 -0.1425  0.4400
  269MOL   C10043516   2.881   7.325   5.673 -0.1423  0.4160 -0.2080
  269MOL   O10143517   2.997   7.309   5.712 -0.0948 -0.2236  0.6155
  269MOL   H10243518   3.039   7.530   5.561 -0.5198 -1.7368  2.1930
  269MOL   H10343519   3.047   7.390   5.449  1.3505  0.8582 -0.4931
  269MOL   H10443520   2.812   7.350   5.474 -0.3688 -2.1451  2.5660
  269MOL   H10543521   2.773   7.491   5.564  0.1951 -0.0737 -1.4580
  269MOL   C10643522   2.755   7.261   5.731 -0.0852 -0.0030 -0.0123
  269MOL   C10743523   2.783   7.172   5.857 -0.2946  0.2105  0.6921
  269MOL   C10843524   2.803   7.270   5.971 -0.3124 -0.2356 -0.9939
  269MOL   O10943525   2.741   7.370   5.987 -0.0391  0.0459 -0.1596
  269MOL   H11043526   2.729   7.189   5.653  0.0480 -1.4924  1.3016
  269MOL   H11143527   2.669   7.328   5.744 -1.1635 -1.4523  0.4813
  269MOL   H11243528   2.868   7.108   5.835 -0.6593 -0.5427  1.4728
  269MOL   H11343529   2.703   7.110   5.897 -0.1624 -0.9769 -0.8177
  269MOL   C11443530   2.902   7.226   6.075 -0.0849  0.6349  0.3773
  269MOL   C11543531   2.920   7.316   6.197 -0.2523  0.0646  0.2392
  269MOL   C11643532   3.043   7.404   6.196  0.5954 -0.4732 -0.2645
  269MOL   O11743533   3.152   7.354   6.213 -0.1680  0.1149  0.2921
  269MOL   H11843534   3.000   7.216   6.029 -1.0781  0.3479 -1.7310
  269MOL   H11943535   2.860   7.129   6.103 -1.8985  1.2057 -0.2773
  269MOL   H12043536   2.952   7.248   6.276  3.3369  2.2864  0.8203
  269MOL   H12143537   2.828   7.370   6.223  0.8099  0.9910  2.2255
  269MOL   C12243538   3.041   7.544   6.128  1.3652  0.5111  0.2383
  269MOL   C12343539   3.154   7.635   6.179  0.5502  0.0535  0.4629
  269MOL   C12443540   3.156   7.777   6.119 -0.9065  0.7300 -0.1797
  269MOL   O12543541   3.056   7.842   6.098  0.1376 -0.1819 -0.7989
  269MOL   H12643542   2.951   7.604   6.142  0.2663 -0.2187 -3.1877
  269MOL   H12743543   3.048   7.534   6.020  1.2390  1.2516  0.1606
  269MOL   H12843544   3.250   7.585   6.163 -0.0182 -0.1521 -2.6350
  269MOL   H12943545   3.147   7.649   6.287  0.2224 -0.0439  0.4535
  269MOL   C13043546   3.294   7.835   6.112 -0.7011 -0.2364  0.3330
  269MOL   C13143547   3.292   0.131   6.132 -0.4027 -0.7584  0.0517
  269MOL   C13243548   3.244   0.218   6.009  0.1221 -0.2151 -1.1372
  269MOL   O13343549   3.271   0.182   5.897 -0.2412  0.1497 -0.5078
  269MOL   H13443550   3.340   7.807   6.018 -0.3248  1.2518  0.0503
  269MOL   H13543551   3.351   7.791   6.194  1.0514 -0.6131 -1.0642
  269MOL   H13643552   3.396   0.143   6.162 -0.5806  0.8935  0.0924
  269MOL   H13743553   3.233   0.166   6.217 -0.2862 -2.0066  0.6440
  269MOL   C13843554   3.185   0.358   6.041  0.4664 -0.4707 -0.0205
  269MOL   C13943555   3.149   0.434   5.914 -0.0201 -0.3803  0.0158
  269MOL   C14043556   3.215   0.569   5.903  0.4543  0.0856 -0.0380
  269MOL   O14143557   3.302   0.613   5.980  0.0010 -0.3537  0.3756
  269MOL   H14243558   3.267   0.405   6.095  2.0882 -3.0460 -0.1777
  269MOL   H14343559   3.109   0.359   6.120 -0.6589 -1.0004 -1.0714
  269MOL   H14443560   3.042   0.456   5.920  0.3634  1.1891  1.5481
  269MOL   H14543561   3.168   0.375   5.824 -0.6042 -0.4692 -0.0511
  269MOL   C14643562   3.146   0.662   5.799 -0.3178 -0.3287  0.5937
  269MOL   C14743563   3.251   0.731   5.705 -0.5704 -0.0083  0.1443
  269MOL   C14843564   3.319   0.649   5.596 -0.0172 -0.2983  0.1371
  269MOL   O14943565   3.280   0.536   5.568 -0.2419  0.1485  0.5388
  269MOL   H15043566   3.088   0.733   5.857  1.4251  0.9814  0.7826
  269MOL   H15143567   3.074   0.603   5.743 -0.0185  2.3590 -2.8017
  269MOL   H15243568   3.329   0.769   5.771  0.4139 -2.5658  0.5083
  269MOL   H15343569   3.192   0.814   5.664  1.9687  1.8334  0.0778
  269MOL   C15443570   3.437   0.711   5.523  0.0915  0.2541  0.6877
  269MOL   C15543571   3.435   0.667   5.374 -0.2221 -0.2790  0.9960
  269MOL   C15643572   3.565   0.614   5.322  0.3501  1.1599  0.2097
  269MOL   O15743573   3.576   0.501   5.278  0.4941 -0.6555 -0.4887
  269MOL   H15843574   3.530   0.666   5.559  0.9132  1.0895 -0.3572
  269MOL   H15943575   3.434   0.818   5.541 -0.8022  0.1937  0.8817
  269MOL   H16043576   3.409   0.750   5.309  2.8946 -2.1418 -2.8553
  269MOL   H16143577   3.367   0.583   5.358 -0.2349 -0.0832  0.0115
  269MOL   H16243578   3.654   0.676   5.328  0.2606  1.3796 -0.7119
  270MOL     C143579   3.198   4.847   5.663  0.4316 -0.9195 -0.2117
  270MOL     C243580   3.298   4.782   5.569  0.7811 -0.0660  0.0968
  270MOL     C343581   3.440   4.838   5.601 -0.2203  0.3281  0.0312
  270MOL     O443582   3.505   4.806   5.700 -0.1727 -0.0250  0.1106
  270MOL     H543583   3.224   4.837   5.769 -0.0221 -1.1355 -0.1210
  270MOL     H643584   3.205   4.955   5.649 -2.3257 -0.3881  2.0744
  270MOL     H743585   3.270   4.821   5.471  0.9203  4.2079  1.6125
  270MOL     H843586   3.309   4.674   5.569  0.8077 -0.0637  0.3452
  270MOL     H943587   3.093   4.823   5.646 -0.0489  0.6386  0.5105
  270MOL    C1043588   3.499   4.939   5.499 -0.1209 -0.1527  0.1060
  270MOL    C1143589   3.632   4.998   5.553 -0.5624 -0.1621  0.2485
  270MOL    C1243590   3.684   5.107   5.462 -0.5946  0.4286  0.0249
  270MOL    O1343591   3.597   5.190   5.421 -0.7427  0.1630  0.4441
  270MOL    H1443592   3.422   5.017   5.494 -0.0084 -0.0040  0.6628
  270MOL    H1543593   3.515   4.905   5.397  1.6455 -0.4123  0.4551
  270MOL    H1643594   3.704   4.921   5.582 -0.5485 -0.7947 -1.4256
  270MOL    H1743595   3.610   5.055   5.644  0.3896 -0.9083  0.9628
  270MOL    C1843596   3.835   5.120   5.447 -0.3529 -0.5016  0.4421
  270MOL    C1943597   3.878   5.207   5.329  0.6911  0.6401  0.7002
  270MOL    C2043598   3.981   5.135   5.240 -0.5522  0.1463  0.5885
  270MOL    O2143599   3.957   5.128   5.119  0.2497 -0.3086 -0.1542
  270MOL    H2243600   3.874   5.019   5.430 -0.7287 -0.5048 -0.4384
  270MOL    H2343601   3.867   5.159   5.543  2.1720 -1.0982 -0.1299
  270MOL    H2443602   3.941   5.294   5.345  0.5306  1.1226 -1.2489
  270MOL    H2543603   3.797   5.255   5.274 -1.2009 -1.9700  1.0979
  270MOL    C2643604   4.105   5.076   5.301 -0.5224 -0.3526 -0.1956
  270MOL    C2743605   4.220   5.045   5.202  0.2807 -0.7418 -0.6785
  270MOL    C2843606   4.330   4.960   5.259  0.2306  0.0137 -0.7762
  270MOL    O2943607   4.362   4.990   5.373 -0.1453  0.1573  0.2096
  270MOL    H3043608   4.073   4.991   5.361  0.4708  0.0958  0.9935
  270MOL    H3143609   4.156   5.128   5.382  0.2293 -0.0447 -0.8683
  270MOL    H3243610   4.267   5.142   5.181  0.2695 -0.5350  0.2127
  270MOL    H3343611   4.189   4.988   5.115 -0.9308  0.1165 -0.8267
  270MOL    C3443612   4.405   4.864   5.171 -0.2656  0.0063 -0.8464
  270MOL    C3543613   4.554   4.851   5.212 -0.0723 -0.1241 -1.1043
  270MOL    C3643614   4.647   4.949   5.153  0.4664  0.3420  0.0430
  270MOL    O3743615   4.645   4.971   5.028 -0.8981 -0.1131  0.4535
  270MOL    H3843616   4.399   4.901   5.068  1.2893  0.7560 -0.6826
  270MOL    H3943617   4.365   4.764   5.185 -1.5284  0.5212 -0.7367
  270MOL    H4043618   4.586   4.749   5.196  0.6540 -0.2833  1.2259
  270MOL    H4143619   4.558   4.863   5.320  3.9710 -1.4308 -1.0206
  270MOL    C4243620   4.745   5.016   5.251 -0.3337  0.0682  0.4566
  270MOL    C4343621   4.878   5.044   5.184  0.1468  0.1044 -0.2705
  270MOL    C4443622   5.000   5.020   5.271 -0.0136  0.0488 -0.5044
  270MOL    O4543623   5.021   4.912   5.330  0.1935 -0.2014 -0.7289
  270MOL    H4643624   4.758   4.955   5.340 -0.1231  0.6295  0.8078
  270MOL    H4743625   4.690   5.101   5.288 -0.2156 -0.7953  2.6803
  270MOL    H4843626   4.889   5.144   5.142 -2.1902 -0.3827 -2.1777
  270MOL    H4943627   4.888   4.967   5.108  0.0895  0.0535 -0.2269
  270MOL    C5043628   5.099   5.136   5.284  0.3814  0.2482  0.0915
  270MOL    C5143629   5.079   5.218   5.406  0.3643  0.7562  0.0460
  270MOL    C5243630   5.193   5.188   5.506  0.2041 -0.0706  0.1847
  270MOL    O5343631   5.270   5.093   5.502  0.0092 -0.9948 -0.4150
  270MOL    H5443632   5.088   5.175   5.183 -1.4953 -2.3405 -0.7597
  270MOL    H5543633   5.198   5.090   5.280  1.5499  2.7091  0.0697
  270MOL    H5643634   4.981   5.191   5.444  0.6109 -0.6192 -0.2771
  270MOL    H5743635   5.085   5.325   5.384  2.5193  0.7402  0.3841
  270MOL    C5843636   5.205   5.280   5.629 -0.0908 -0.3657  0.9249
  270MOL    C5943637   5.348   5.297   5.672 -0.2829 -0.9605  0.4812
  270MOL    C6043638   5.383   5.183   5.772 -0.1755 -0.5448  0.1922
  270MOL    O6143639   5.318   5.150   5.874  0.0361 -0.2713  0.2526
  270MOL    H6243640   5.155   5.232   5.713 -0.1382  0.1946  1.2209
  270MOL    H6343641   5.148   5.371   5.613  1.1390  0.2081 -0.2691
  270MOL    H6443642   5.362   5.387   5.732  2.8764 -1.6487  0.8732
  270MOL    H6543643   5.405   5.316   5.581 -1.2952  1.3095  0.2840
  270MOL    C6643644   5.511   5.106   5.731 -0.6740  0.4514 -0.7230
  270MOL    C6743645   5.571   5.022   5.848 -0.2089 -0.5286 -0.0968
  270MOL    C6843646   5.715   4.989   5.824 -0.2666 -0.4710 -0.0814
  270MOL    O6943647   5.764   5.007   5.713 -0.2005  0.2269  0.6299
  270MOL    H7043648   5.587   5.171   5.687 -0.9874  0.6292 -0.9974
  270MOL    H7143649   5.487   5.043   5.645 -1.0694 -2.4062  1.4091
  270MOL    H7243650   5.521   4.929   5.871  0.8539 -1.2389 -0.6057
  270MOL    H7343651   5.564   5.089   5.934  0.0829 -0.2377 -0.2945
  270MOL    C7443652   5.804   4.933   5.937 -0.3377 -0.4712 -0.4774
  270MOL    C7543653   5.949   4.926   5.907  0.1769  0.5523 -0.0921
  270MOL    C7643654   6.026   4.818   5.982  0.5327 -0.2193 -0.2949
  270MOL    O7743655   6.009   4.697   5.970  0.3739 -0.0951 -0.0977
  270MOL    H7843656   5.755   4.838   5.958 -1.4372  0.4920  1.4215
  270MOL    H7943657   5.773   5.002   6.015  1.2273  1.9616 -1.9575
  270MOL    H8043658   5.990   5.026   5.922  0.5299  0.1059  1.9976
  270MOL    H8143659   5.960   4.904   5.801 -1.8062  0.6939 -0.3632
  270MOL    C8243660   6.136   4.860   6.077 -0.1703  0.1063 -0.2082
  270MOL    C8343661   6.226   4.741   6.118  0.2100  0.5842  0.0230
  270MOL    C8443662   6.180   4.668   6.244  0.1029  0.0301  0.1375
  270MOL    O8543663   6.081   4.682   6.307 -0.1311 -0.3677  0.1842
  270MOL    H8643664   6.093   4.913   6.163 -0.2609  1.0203 -0.8040
  270MOL    H8743665   6.190   4.941   6.028  2.5550 -1.0812  0.7527
  270MOL    H8843666   6.327   4.780   6.131  0.6354 -0.1958 -0.8469
  270MOL    H8943667   6.239   4.664   6.042  0.3252 -0.7858  1.4280
  270MOL    C9043668   6.276   4.559   6.293 -0.2023 -0.0203 -0.2040
  270MOL    C9143669   6.254   4.426   6.222 -0.4123  0.2936  0.5978
  270MOL    C9243670   6.204   4.316   6.316 -0.1625 -0.6396  0.1294
  270MOL    O9343671   6.241   4.301   6.434 -0.1217  0.6211 -0.3010
  270MOL    H9443672   6.290   4.545   6.400 -2.0253  3.7757  0.5724
  270MOL    H9543673   6.376   4.587   6.260  0.0408 -0.3900  0.2176
  270MOL    H9643674   6.346   4.396   6.173  0.0026  2.5937 -0.1307
  270MOL    H9743675   6.181   4.439   6.143  0.7096 -1.5406 -0.7716
  270MOL    C9843676   6.108   4.224   6.245  1.1820 -0.1466  0.5931
  270MOL    C9943677   6.159   4.083   6.226  0.5649  0.0284  0.2737
  270MOL   C10043678   6.259   4.062   6.105  0.5625 -0.4122 -0.2726
  270MOL   O10143679   6.322   4.161   6.063  0.3872  0.0180  0.0708
  270MOL   H10243680   6.067   4.263   6.152  0.1565 -1.2403  0.5664
  270MOL   H10343681   6.014   4.229   6.301  0.9460  1.2853  0.0929
  270MOL   H10443682   6.076   4.012   6.221 -1.1503  1.6736  3.6568
  270MOL   H10543683   6.209   4.065   6.321  1.9990  3.1116  0.1648
  270MOL   C10643684   6.294   3.919   6.066 -0.9159 -0.3251  0.4552
  270MOL   C10743685   6.341   3.902   5.920 -0.0548 -0.0613 -0.3951
  270MOL   C10843686   6.219   3.898   5.823 -0.1623 -0.2561 -0.7307
  270MOL   O10943687   6.104   3.905   5.868 -0.2483  0.0774 -0.0987
  270MOL   H11043688   6.206   3.858   6.088 -1.0500  0.0307  0.9039
  270MOL   H11143689   6.379   3.892   6.129  1.0088  1.0877 -1.4528
  270MOL   H11243690   6.386   3.803   5.919 -2.5650 -1.2912  2.5448
  270MOL   H11343691   6.416   3.978   5.897 -1.3859  1.2932 -0.3402
  270MOL   C11443692   6.246   3.898   5.670  0.1340 -0.1434  0.4146
  270MOL   C11543693   6.131   3.827   5.594 -0.1581  0.1388 -1.5018
  270MOL   C11643694   6.022   3.926   5.550 -0.4312  0.2346  0.2866
  270MOL   O11743695   6.038   4.051   5.545 -0.4521  0.2677 -0.5264
  270MOL   H11843696   6.340   3.850   5.644 -0.3738 -0.3176 -1.1355
  270MOL   H11943697   6.237   3.996   5.623 -0.1259 -0.8110 -0.9623
  270MOL   H12043698   6.084   3.754   5.661 -0.2223  0.4757 -1.1801
  270MOL   H12143699   6.163   3.772   5.506 -1.5074 -2.2229 -0.5709
  270MOL   C12243700   5.889   3.852   5.523 -0.0986 -0.2378 -0.8570
  270MOL   C12343701   5.756   3.931   5.538 -0.3336  0.7970  0.0792
  270MOL   C12443702   5.643   3.831   5.581  0.6218  0.4601 -0.2486
  270MOL   O12543703   5.633   3.713   5.538 -0.4553 -0.3387 -0.7470
  270MOL   H12643704   5.890   3.772   5.597  2.0311  1.0320  0.5624
  270MOL   H12743705   5.888   3.809   5.423 -0.0047 -2.4087  0.0593
  270MOL   H12843706   5.725   3.973   5.443  1.4603 -0.6737 -1.1893
  270MOL   H12943707   5.763   4.010   5.612 -0.3920  0.3472  0.5676
  270MOL   C13043708   5.552   3.870   5.697  0.0920 -0.3635 -0.9128
  270MOL   C13143709   5.525   3.759   5.803 -0.4923  0.4932  0.4411
  270MOL   C13243710   5.478   3.803   5.943  0.6559  0.0081  0.3983
  270MOL   O13343711   5.487   3.920   5.974 -0.2012  0.3468  0.2500
  270MOL   H13443712   5.458   3.886   5.645  0.6258  0.8718 -1.5135
  270MOL   H13543713   5.584   3.966   5.737 -0.1136 -2.0099  3.3940
  270MOL   H13643714   5.621   3.707   5.809 -1.5021 -1.8510 -2.2913
  270MOL   H13743715   5.457   3.688   5.754 -0.9768  1.7007 -0.6720
  270MOL   C13843716   5.407   3.701   6.026  0.3280 -0.1374  0.4009
  270MOL   C13943717   5.412   3.730   6.177  0.4998 -0.5582  0.6014
  270MOL   C14043718   5.298   3.677   6.250  0.6187 -0.7761 -0.1165
  270MOL   O14143719   5.206   3.753   6.283 -0.0724  0.3394  0.2655
  270MOL   H14243720   5.437   3.599   6.004  2.6770  0.2147  1.7096
  270MOL   H14343721   5.302   3.702   5.997 -0.1580 -1.8128  2.0097
  270MOL   H14443722   5.407   3.838   6.191 -1.9050 -0.8345  2.1421
  270MOL   H14543723   5.499   3.701   6.236 -0.6413 -2.0535  1.5905
  270MOL   C14643724   5.309   3.540   6.299 -0.1120  0.2181 -1.1150
  270MOL   C14743725   5.189   3.489   6.386  0.0243  0.3051 -0.3507
  270MOL   C14843726   5.221   3.492   6.535  0.2804 -0.0577  0.2689
  270MOL   O14943727   5.324   3.534   6.582 -0.1008  0.0194  0.0830
  270MOL   H15043728   5.405   3.525   6.349 -0.2882 -1.1448 -1.1608
  270MOL   H15143729   5.324   3.471   6.216 -0.4403 -0.7808 -0.3515
  270MOL   H15243730   5.166   3.384   6.370 -0.9141  0.4863 -0.1895
  270MOL   H15343731   5.102   3.553   6.371 -0.3264 -0.5022 -1.8995
  270MOL   C15443732   5.108   3.434   6.620 -0.2618 -0.1088  0.9370
  270MOL   C15543733   5.135   3.446   6.776  0.4196 -0.7856  0.2220
  270MOL   C15643734   5.032   3.519   6.852  0.6015  0.6873 -0.8414
  270MOL   O15743735   4.978   3.619   6.793  0.6817  0.4211  0.2040
  270MOL   H15843736   5.092   3.331   6.586  1.8262  0.3420 -1.5748
  270MOL   H15943737   5.016   3.485   6.591 -0.1027 -0.0378  0.5526
  270MOL   H16043738   5.232   3.483   6.808  0.4607 -0.4420 -0.2956
  270MOL   H16143739   5.124   3.343   6.810 -2.1029 -1.5841 -2.7723
  270MOL   H16243740   4.995   3.490   6.950 -1.2820 -1.3286 -2.1250
  271MOL     C143741   7.035   6.577   3.690  0.2635  0.1063 -0.3267
  271MOL     C243742   7.084   6.620   3.830 -0.0134 -0.2176  0.0003
  271MOL     C343743   6.991   6.724   3.892  0.0254  0.4094 -0.2330
  271MOL     O443744   6.875   6.732   3.862  0.4092  0.2567 -0.5591
  271MOL     H543745   6.934   6.538   3.695  0.4265 -0.2575  0.1193
  271MOL     H643746   7.047   6.658   3.617  1.1193  0.5314  0.2662
  271MOL     H743747   7.185   6.657   3.812 -0.1331  0.1562  0.0945
  271MOL     H843748   7.076   6.525   3.882 -0.7599 -0.1002  0.1050
  271MOL     H943749   7.100   6.496   3.658  0.3806  0.2845 -0.5492
  271MOL    C1043750   7.055   6.824   3.990 -0.4883  0.2252 -0.1306
  271MOL    C1143751   7.165   6.913   3.928 -0.0818 -0.5836 -0.0203
  271MOL    C1243752   7.164   7.050   3.999 -1.0235 -0.2407  1.2631
  271MOL    O1343753   7.132   7.064   4.116 -0.5901 -0.2098 -0.1365
  271MOL    H1443754   7.099   6.779   4.079  0.6768 -1.7529 -1.6678
  271MOL    H1543755   6.979   6.898   4.015 -0.1404  0.6204 -0.2309
  271MOL    H1643756   7.135   6.926   3.823 -1.8033 -0.7291  0.4296
  271MOL    H1743757   7.262   6.864   3.929  0.3582  0.2824  0.0862
  271MOL    C1843758   7.223   7.167   3.910 -0.0415  0.3266 -0.1180
  271MOL    C1943759   7.248   7.299   3.980 -0.0890  0.9629  0.3157
  271MOL    C2043760   7.328   7.388   3.894  0.3764  0.2867 -0.1279
  271MOL    O2143761   7.388   7.353   3.792  0.4888 -0.4728 -0.3746
  271MOL    H2243762   7.165   7.179   3.818 -1.1321 -0.2640  0.4821
  271MOL    H2343763   7.315   7.120   3.877 -0.1570 -0.1914  0.2938
  271MOL    H2443764   7.314   7.266   4.061  0.5755 -2.5339 -1.5299
  271MOL    H2543765   7.167   7.354   4.027 -1.7264 -1.7392  0.7326
  271MOL    C2643766   7.333   7.532   3.935  0.1217  0.9874 -0.1956
  271MOL    C2743767   7.286   7.625   3.820  0.4953  0.4079 -0.3763
  271MOL    C2843768   7.350   7.766   3.843  0.7534 -0.3462 -0.2593
  271MOL    O2943769   7.430   7.789   3.932  0.0146  0.2294 -0.3668
  271MOL    H3043770   7.438   7.554   3.955  0.5839 -1.1929 -0.0946
  271MOL    H3143771   7.276   7.552   4.025 -0.6893 -0.6867 -0.3160
  271MOL    H3243772   7.181   7.655   3.829  0.5745  1.3363 -2.2707
  271MOL    H3343773   7.311   7.588   3.721  0.3136  2.2104 -1.1008
  271MOL    C3443774   7.329   0.013   3.732 -0.0983  0.0797 -0.4101
  271MOL    C3543775   7.291   0.157   3.784 -0.3886 -0.3362  0.1568
  271MOL    C3643776   7.138   0.175   3.783 -0.5685  0.3014 -0.0029
  271MOL    O3743777   7.059   0.084   3.781  0.7412 -0.3422 -0.3407
  271MOL    H3843778   7.247   7.830   3.674  1.0616 -0.4908 -1.6737
  271MOL    H3943779   7.415   0.016   3.666 -1.0792 -1.7586 -1.8320
  271MOL    H4043780   7.333   0.237   3.723 -0.7095 -0.7644 -0.6327
  271MOL    H4143781   7.330   0.173   3.885  0.7092 -0.1837 -0.2775
  271MOL    C4243782   7.085   0.318   3.793 -0.0444 -0.8613 -0.0190
  271MOL    C4343783   6.934   0.328   3.772 -0.3211 -0.2283  0.3730
  271MOL    C4443784   6.889   0.474   3.758  0.2383  0.3485  0.2454
  271MOL    O4543785   6.971   0.564   3.744  0.2935 -0.6781 -0.3033
  271MOL    H4643786   7.134   0.371   3.710 -0.0138 -0.6411  0.1366
  271MOL    H4743787   7.117   0.358   3.889 -0.3987  2.9381 -1.3925
  271MOL    H4843788   6.876   0.275   3.847  2.8874 -2.0312  1.6569
  271MOL    H4943789   6.916   0.278   3.677  0.4813 -1.4321  0.8489
  271MOL    C5043790   6.733   0.503   3.766 -0.5374 -1.3571 -0.1197
  271MOL    C5143791   6.697   0.658   3.770 -0.4100  0.1640  0.3992
  271MOL    C5243792   6.550   0.677   3.807  0.1062  0.0543  0.2520
  271MOL    O5343793   6.484   0.586   3.860 -0.2652  0.2817 -0.4350
  271MOL    H5443794   6.698   0.478   3.866  0.3302  0.8724  0.7623
  271MOL    H5543795   6.674   0.445   3.695  0.2935 -1.2388 -0.9213
  271MOL    H5643796   6.698   0.686   3.665 -0.1393 -3.4976 -0.6355
  271MOL    H5743797   6.763   0.717   3.833 -1.3189 -0.4653  1.9790
  271MOL    C5843798   6.497   0.820   3.786  0.4412 -0.7727  0.4740
  271MOL    C5943799   6.359   0.856   3.850 -0.2206  0.8125  0.6744
  271MOL    C6043800   6.314   1.000   3.820  0.0295 -0.1302 -0.2458
  271MOL    O6143801   6.397   1.082   3.785 -0.0237  0.2358  0.2196
  271MOL    H6243802   6.499   0.837   3.679 -0.8857  0.6746  0.6569
  271MOL    H6343803   6.575   0.890   3.817  0.7882 -0.5884 -0.8053
  271MOL    H6443804   6.376   0.840   3.956  2.1262  0.1849  0.2376
  271MOL    H6543805   6.287   0.782   3.815  0.2722  0.2970  0.7430
  271MOL    C6643806   6.169   1.034   3.830  0.4732 -0.2890  0.5575
  271MOL    C6743807   6.140   1.186   3.827  0.7302 -1.0750  0.0866
  271MOL    C6843808   6.044   1.248   3.934 -0.0133  0.8803 -0.0768
  271MOL    O6943809   6.004   1.181   4.026  0.2208  0.1390 -0.0552
  271MOL    H7043810   6.140   0.987   3.923  2.2733 -1.3279  0.6233
  271MOL    H7143811   6.130   0.988   3.739 -1.3550  2.0590  0.1132
  271MOL    H7243812   6.107   1.203   3.724 -2.3849 -3.1618  0.6562
  271MOL    H7343813   6.232   1.244   3.838 -0.5022  1.2529 -1.2787
  271MOL    C7443814   6.016   1.398   3.918 -0.0904 -0.3583 -0.2224
  271MOL    C7543815   5.904   1.452   4.010 -0.5151 -0.4059  0.7699
  271MOL    C7643816   5.792   1.528   3.940  0.5408  0.7335  0.2384
  271MOL    O7743817   5.816   1.597   3.841  0.9822  0.1632  0.2026
  271MOL    H7843818   5.995   1.418   3.813  3.0682 -1.5761 -1.1583
  271MOL    H7943819   6.105   1.460   3.933 -1.3037  1.7401 -1.3877
  271MOL    H8043820   5.953   1.527   4.073  1.9798  0.7153 -2.3887
  271MOL    H8143821   5.872   1.376   4.082  1.1004  1.2866  3.3704
  271MOL    C8243822   5.654   1.528   4.009 -0.2390  0.2040 -0.2708
  271MOL    C8343823   5.553   1.643   3.956  0.1050  0.9085  0.2404
  271MOL    C8443824   5.411   1.589   3.944 -0.4688  0.1448  1.3594
  271MOL    O8543825   5.377   1.473   3.950  0.1578 -0.1922 -0.1267
  271MOL    H8643826   5.665   1.530   4.117  0.7455 -1.1013 -0.3299
  271MOL    H8743827   5.606   1.430   4.000  0.4570 -0.1178 -0.5599
  271MOL    H8843828   5.585   1.665   3.854 -0.9751 -1.6084 -0.6604
  271MOL    H8943829   5.568   1.734   4.016 -0.0042  1.6034 -0.7669
  271MOL    C9043830   5.309   1.693   3.893  0.7620  0.7157 -0.1629
  271MOL    C9143831   5.157   1.648   3.903  0.9296 -1.0224 -0.2475
  271MOL    C9243832   5.096   1.614   3.761  0.8066  0.6455 -0.2887
  271MOL    O9343833   5.162   1.618   3.658 -0.2434  0.7744  0.2014
  271MOL    H9443834   5.341   1.744   3.802  1.8419  1.3631  0.5697
  271MOL    H9543835   5.310   1.766   3.974  0.2414 -0.2752  0.7442
  271MOL    H9643836   5.110   1.727   3.962  4.4909 -0.6426  2.2874
  271MOL    H9743837   5.146   1.562   3.970 -1.8804 -0.6169 -0.1464
  271MOL    C9843838   4.963   1.556   3.765 -0.1538  0.2526  0.5106
  271MOL    C9943839   4.857   1.656   3.718  0.9625  1.0929 -0.0123
  271MOL   C10043840   4.727   1.681   3.795  0.1676 -0.0314  0.4119
  271MOL   O10143841   4.692   1.612   3.891 -0.0548  0.7710  0.1497
  271MOL   H10243842   4.944   1.514   3.864  1.9875 -0.7108  0.5353
  271MOL   H10343843   4.959   1.471   3.698  0.9535 -0.7335  1.6640
  271MOL   H10443844   4.833   1.630   3.615 -0.3203 -2.6597  1.1457
  271MOL   H10543845   4.899   1.756   3.705  0.3032  1.1141 -2.1963
  271MOL   C10643846   4.667   1.809   3.743  0.0045 -0.1391  0.0317
  271MOL   C10743847   4.542   1.851   3.820 -0.1798 -0.2680  0.0050
  271MOL   C10843848   4.561   1.979   3.892  0.0086  0.0625  0.2620
  271MOL   O10943849   4.567   2.091   3.842  0.2388  0.0332  0.9216
  271MOL   H11043850   4.641   1.798   3.638 -1.1312 -0.5591  0.3564
  271MOL   H11143851   4.747   1.883   3.752 -1.0885  1.1526 -0.7180
  271MOL   H11243852   4.502   1.776   3.887  0.6641  0.0161  0.8406
  271MOL   H11343853   4.463   1.874   3.749  0.3410  1.7770  0.0325
  271MOL   C11443854   4.574   1.967   4.040  0.1279  0.0659 -0.4722
  271MOL   C11543855   4.549   2.094   4.124  0.2969 -0.3788 -0.3521
  271MOL   C11643856   4.593   2.079   4.271  0.4836  0.0393 -0.3498
  271MOL   O11743857   4.667   1.981   4.303  0.0803  0.0779  0.4249
  271MOL   H11843858   4.675   1.928   4.053 -0.9462 -2.6705 -0.0299
  271MOL   H11943859   4.502   1.891   4.071 -0.7907  0.4388 -1.6376
  271MOL   H12043860   4.440   2.097   4.119  0.2815  2.0453  0.9640
  271MOL   H12143861   4.595   2.181   4.078  0.3733 -1.0789 -1.6273
  271MOL   C12243862   4.542   2.186   4.371 -0.7908  0.8334  0.2192
  271MOL   C12343863   4.558   2.325   4.324  0.4751 -0.2819  0.3214
  271MOL   C12443864   4.524   2.431   4.420  0.2356 -0.7755 -0.0198
  271MOL   O12543865   4.513   2.401   4.538  1.0905  0.2411 -0.3012
  271MOL   H12643866   4.603   2.172   4.460  0.2029  1.2952 -0.3874
  271MOL   H12743867   4.444   2.154   4.407  0.2240 -1.4210  1.1180
  271MOL   H12843868   4.498   2.339   4.234  0.5068  0.0927  0.3603
  271MOL   H12943869   4.657   2.346   4.284 -0.2760  0.5030 -1.1879
  271MOL   C13043870   4.516   2.570   4.367  0.3504  0.5890  0.0425
  271MOL   C13143871   4.530   2.679   4.471 -0.3036 -0.0435 -0.1292
  271MOL   C13243872   4.598   2.800   4.424 -0.0952 -0.5461 -0.1773
  271MOL   O13343873   4.698   2.791   4.343  0.0970  0.0654  0.4203
  271MOL   H13443874   4.423   2.579   4.311  0.1145  0.1360  0.3546
  271MOL   H13543875   4.597   2.580   4.294  1.0719 -0.2227  0.7213
  271MOL   H13643876   4.600   2.641   4.546  0.6586 -2.1673 -2.0543
  271MOL   H13743877   4.438   2.702   4.524 -1.6608 -0.8613 -2.0934
  271MOL   C13843878   4.549   2.938   4.470  0.4024  0.1724 -0.0525
  271MOL   C13943879   4.659   3.048   4.434 -0.2985  0.2649  0.4281
  271MOL   C14043880   4.624   3.190   4.477  0.4154  0.3953 -0.8524
  271MOL   O14143881   4.546   3.214   4.572  0.6322  0.3982 -0.0335
  271MOL   H14243882   4.535   2.932   4.578 -2.8304  0.4552 -0.3951
  271MOL   H14343883   4.456   2.963   4.418 -0.5458 -0.6444  1.2227
  271MOL   H14443884   4.658   3.058   4.325  0.0219 -0.1398  0.3843
  271MOL   H14543885   4.760   3.031   4.472 -0.1122  0.8133  0.1778
  271MOL   C14643886   4.686   3.302   4.389  0.1630  1.1385  0.1475
  271MOL   C14743887   4.661   3.448   4.443  0.4738  0.2800 -0.5984
  271MOL   C14843888   4.768   3.481   4.549 -0.0245 -0.5859  0.5800
  271MOL   O14943889   4.882   3.451   4.523 -0.3393 -0.0141 -0.4398
  271MOL   H15043890   4.658   3.298   4.284  1.9008 -2.9438 -0.2513
  271MOL   H15143891   4.789   3.270   4.399 -0.3853 -1.5208 -2.1334
  271MOL   H15243892   4.557   3.467   4.470  0.9021  1.0024  0.6018
  271MOL   H15343893   4.681   3.514   4.359  1.4748 -0.4322 -0.9290
  271MOL   C15443894   4.727   3.562   4.677  0.9015 -0.1044  0.0093
  271MOL   C15543895   4.730   3.712   4.646  0.4767  0.3956 -0.1027
  271MOL   C15643896   4.830   3.783   4.742 -0.2857  0.0603 -0.1011
  271MOL   O15743897   4.900   3.724   4.825  0.0390 -0.3370  0.2075
  271MOL   H15843898   4.792   3.534   4.759  2.9862  4.0768 -0.0728
  271MOL   H15943899   4.621   3.549   4.700  0.9831 -1.4467 -0.3662
  271MOL   H16043900   4.628   3.748   4.663  1.1835  3.8915 -2.6878
  271MOL   H16143901   4.745   3.728   4.539  1.9545 -0.3738 -0.0203
  271MOL   H16243902   4.837   3.889   4.717 -1.5236  0.5500  1.5524
  272MOL     C143903   2.635   4.557   1.441  0.1066  0.0224  0.6444
  272MOL     C243904   2.605   4.585   1.589  0.1213  0.4246  0.0194
  272MOL     C343905   2.698   4.685   1.654  0.2820  0.5307  0.9409
  272MOL     O443906   2.791   4.731   1.594 -0.0673  0.2228 -0.4747
  272MOL     H543907   2.683   4.640   1.389 -2.7544  0.5811 -1.2567
  272MOL     H643908   2.703   4.475   1.421  3.2852  2.8466 -0.5937
  272MOL     H743909   2.602   4.491   1.644 -0.2093 -0.2437 -1.1437
  272MOL     H843910   2.505   4.626   1.597  0.7081  1.8327  0.4256
  272MOL     H943911   2.538   4.518   1.407  1.5030 -3.2456  0.2681
  272MOL    C1043912   2.659   4.736   1.791 -0.3068 -0.1459  0.4486
  272MOL    C1143913   2.742   4.859   1.833 -0.1027  0.4696  0.5489
  272MOL    C1243914   2.742   4.864   1.988 -0.2046 -0.5207 -0.0094
  272MOL    O1343915   2.647   4.820   2.054  0.4696  0.4486  0.0409
  272MOL    H1443916   2.688   4.664   1.868  0.3004  1.1806  1.4806
  272MOL    H1543917   2.552   4.753   1.792 -0.5007 -1.3037  0.9434
  272MOL    H1643918   2.697   4.947   1.789  1.1518  1.1447  0.5990
  272MOL    H1743919   2.843   4.855   1.793 -0.1878 -2.2446  0.5042
  272MOL    C1843920   2.865   4.922   2.061 -0.3196  0.9226  0.4220
  272MOL    C1943921   2.896   4.855   2.193  0.2548  0.2396  0.3477
  272MOL    C2043922   2.994   4.740   2.180 -0.0631 -0.2521  0.0667
  272MOL    O2143923   3.017   4.686   2.072 -0.3272 -0.4908  0.7394
  272MOL    H2243924   2.847   5.028   2.081 -1.1244  0.8028  0.3378
  272MOL    H2343925   2.951   4.906   1.996  1.2988  0.6083  2.6177
  272MOL    H2443926   2.807   4.807   2.233 -1.6763  2.2073 -1.4464
  272MOL    H2543927   2.924   4.928   2.269  2.2416  0.5305 -0.6519
  272MOL    C2643928   3.047   4.680   2.310  0.1825  0.1317 -0.2549
  272MOL    C2743929   3.146   4.564   2.288  0.2539 -0.8493 -0.3621
  272MOL    C2843930   3.211   4.521   2.415 -0.8902 -0.0613 -0.4413
  272MOL    O2943931   3.212   4.598   2.512 -0.1663 -0.6619  0.0997
  272MOL    H3043932   2.972   4.632   2.373  1.2756  0.8068  1.6018
  272MOL    H3143933   3.095   4.758   2.369  0.5788 -0.9238  0.8314
  272MOL    H3243934   3.219   4.595   2.213  0.1980  0.6543  0.1916
  272MOL    H3343935   3.100   4.475   2.247 -1.7760 -0.2120  0.4888
  272MOL    C3443936   3.259   4.381   2.416 -0.3301 -0.3842 -0.2498
  272MOL    C3543937   3.383   4.351   2.498  0.2002  0.2651 -0.4764
  272MOL    C3643938   3.484   4.274   2.416  0.0371 -0.8556  0.2991
  272MOL    O3743939   3.476   4.250   2.292 -0.0034  0.0525  0.2307
  272MOL    H3843940   3.272   4.346   2.313  0.7886 -0.9899  0.0850
  272MOL    H3943941   3.168   4.333   2.452 -1.4539  1.0517 -1.1507
  272MOL    H4043942   3.349   4.288   2.580  0.8042  0.6451  0.0639
  272MOL    H4143943   3.425   4.443   2.537 -1.1188  0.5960  0.1872
  272MOL    C4243944   3.595   4.213   2.504  0.0723  0.1657 -0.7322
  272MOL    C4343945   3.746   4.208   2.445 -0.0726 -0.8336 -0.2604
  272MOL    C4443946   3.802   4.349   2.444 -0.1556 -0.6776  0.1648
  272MOL    O4543947   3.733   4.444   2.487  0.1122 -0.1124 -0.0261
  272MOL    H4643948   3.558   4.113   2.526 -0.9554  0.8191  0.6121
  272MOL    H4743949   3.580   4.271   2.595  0.5398 -0.2010 -0.4181
  272MOL    H4843950   3.754   4.164   2.345  1.1751  1.3720 -1.1599
  272MOL    H4943951   3.793   4.132   2.507 -1.4926 -1.8652 -0.4080
  272MOL    C5043952   3.947   4.382   2.401  0.5110  0.2063 -0.2809
  272MOL    C5143953   3.962   4.512   2.318  0.1470 -0.5234 -0.0874
  272MOL    C5243954   4.097   4.528   2.258  0.0982 -0.0707  0.1596
  272MOL    O5343955   4.184   4.440   2.262 -0.1468 -0.2910  0.2961
  272MOL    H5443956   3.984   4.294   2.349 -0.2873 -0.1741 -0.2097
  272MOL    H5543957   4.008   4.398   2.490  0.7712  0.2663 -0.4691
  272MOL    H5643958   3.945   4.597   2.384 -1.1188 -0.8146 -0.0208
  272MOL    H5743959   3.888   4.507   2.238 -0.7763 -0.9268  0.7881
  272MOL    C5843960   4.125   4.661   2.190  0.0600  0.2365  0.6208
  272MOL    C5943961   4.233   4.652   2.082 -0.3429  0.3587 -0.2692
  272MOL    C6043962   4.223   4.746   1.963 -0.8532 -0.1161  0.0610
  272MOL    O6143963   4.304   4.841   1.960  0.3318 -0.2265 -0.2758
  272MOL    H6243964   4.156   4.732   2.267 -3.2647  1.3559  1.0097
  272MOL    H6343965   4.027   4.694   2.155 -1.5561 -3.5570  1.4158
  272MOL    H6443966   4.223   4.554   2.037 -1.1942  0.6871 -0.8170
  272MOL    H6543967   4.324   4.651   2.141  0.2316 -0.4097 -1.1588
  272MOL    C6643968   4.131   4.710   1.843 -0.0836 -0.3266  0.5448
  272MOL    C6743969   4.174   4.789   1.719  0.4907  0.2761 -0.1180
  272MOL    C6843970   4.294   4.730   1.645 -0.2153 -0.2615  0.9183
  272MOL    O6943971   4.296   4.609   1.633 -0.6105 -0.0879  0.1602
  272MOL    H7043972   4.028   4.726   1.874 -0.1175  0.4178  0.0494
  272MOL    H7143973   4.144   4.602   1.830  0.8110 -0.1576 -0.0102
  272MOL    H7243974   4.192   4.893   1.745  0.1074  0.6191 -1.2037
  272MOL    H7343975   4.095   4.799   1.644  0.3849 -1.8040 -0.3068
  272MOL    C7443976   4.404   4.811   1.580 -0.5900  0.0139  0.4645
  272MOL    C7543977   4.511   4.734   1.506 -0.2888  0.3166 -0.6685
  272MOL    C7643978   4.617   4.819   1.439 -0.3719 -0.7987  0.1917
  272MOL    O7743979   4.648   4.796   1.321  0.3481  0.0442  0.0923
  272MOL    H7843980   4.454   4.863   1.662 -1.4029  1.3508  0.1203
  272MOL    H7943981   4.360   4.883   1.511 -1.6240 -0.9649  0.0800
  272MOL    H8043982   4.455   4.675   1.433  0.2029  1.6489 -2.1367
  272MOL    H8143983   4.564   4.662   1.568  0.1309 -0.0809 -1.4799
  272MOL    C8243984   4.689   4.933   1.514 -0.6855  0.0815 -0.1059
  272MOL    C8343985   4.818   4.989   1.450  0.6488  0.3085  0.0061
  272MOL    C8443986   4.935   5.016   1.550  0.2405 -0.0508  0.3024
  272MOL    O8543987   4.973   5.127   1.576 -0.2921  0.0373 -0.0079
  272MOL    H8643988   4.696   4.910   1.620 -1.2277  1.1801  0.1699
  272MOL    H8743989   4.616   5.014   1.516 -0.0741  0.6738 -1.1488
  272MOL    H8843990   4.795   5.081   1.396  1.3944 -0.9730 -2.6287
  272MOL    H8943991   4.860   4.931   1.368 -0.2509  1.1612 -1.0704
  272MOL    C9043992   4.995   4.895   1.620  0.8572  0.5974  0.5769
  272MOL    C9143993   5.108   4.927   1.720  1.3609  0.0493 -0.2732
  272MOL    C9243994   5.045   4.944   1.853  1.8515  0.0031  0.0194
  272MOL    O9343995   5.011   4.842   1.915 -0.0491 -0.1412  0.1537
  272MOL    H9443996   5.022   4.830   1.537 -2.0837  1.7010 -1.3013
  272MOL    H9543997   4.913   4.842   1.667  1.5765 -1.2886 -0.2449
  272MOL    H9643998   5.159   5.014   1.679  1.5525  0.9203  1.7871
  272MOL    H9743999   5.175   4.842   1.729  0.5815 -0.7051 -1.3913
  272MOL    C9844000   5.026   5.086   1.913  0.6943  0.0161 -0.6199
  272MOL    C9944001   4.922   5.085   2.030 -1.1273 -0.0856 -0.4834
  272MOL   C10044002   4.777   5.078   1.979 -0.3695 -0.5122 -0.0410
  272MOL   O10144003   4.694   5.013   2.039  0.4056  0.2267  0.4333
  272MOL   H10244004   4.997   5.163   1.842 -2.1405 -0.9105 -0.5168
  272MOL   H10344005   5.120   5.111   1.963 -0.2137 -0.7144  1.4740
  272MOL   H10444006   4.937   5.182   2.077 -2.1162 -0.8045  1.3813
  272MOL   H10544007   4.940   5.009   2.105  0.6387 -0.4898 -1.2850
  272MOL   C10644008   4.734   5.177   1.874  0.9015  0.5031 -0.3532
  272MOL   C10744009   4.618   5.128   1.784 -0.2075  0.3096 -0.5870
  272MOL   C10844010   4.480   5.165   1.840  0.7788 -0.1587 -0.3978
  272MOL   O10944011   4.471   5.228   1.945 -0.6766 -0.2196  0.1634
  272MOL   H11044012   4.814   5.200   1.804  2.8213 -2.7070  0.6718
  272MOL   H11144013   4.705   5.271   1.920  1.2617  1.4209 -1.9650
  272MOL   H11244014   4.638   5.021   1.788  1.6843  0.7168  1.6360
  272MOL   H11344015   4.628   5.162   1.681  0.7762 -1.6053 -1.1330
  272MOL   C11444016   4.359   5.146   1.754  0.1343  0.5578  0.0295
  272MOL   C11544017   4.311   5.277   1.702  0.1276  0.0106  0.7778
  272MOL   C11644018   4.168   5.312   1.736 -0.2345 -0.9874  0.5220
  272MOL   O11744019   4.084   5.233   1.775  0.3449  0.2117  0.3355
  272MOL   H11844020   4.280   5.082   1.792  0.4588 -0.1948 -0.5556
  272MOL   H11944021   4.388   5.072   1.680  0.7934  0.0204  0.8113
  272MOL   H12044022   4.329   5.277   1.595  3.0275 -1.2565  1.2034
  272MOL   H12144023   4.369   5.357   1.748 -1.0892  0.6407  1.2357
  272MOL   C12244024   4.115   5.449   1.703 -0.2405 -0.0722  0.0619
  272MOL   C12344025   3.996   5.496   1.796 -0.4066  0.5908 -0.0454
  272MOL   C12444026   3.983   5.647   1.826 -0.2724  0.4745  0.1190
  272MOL   O12544027   4.069   5.724   1.780  0.1654  0.0437  0.2362
  272MOL   H12644028   4.085   5.437   1.599  2.5195 -1.5457 -0.6034
  272MOL   H12744029   4.191   5.527   1.707 -0.9948  0.6095  1.0935
  272MOL   H12844030   4.020   5.454   1.894 -1.0482 -0.2182 -0.2275
  272MOL   H12944031   3.897   5.469   1.758 -0.6481 -1.0106  1.6483
  272MOL   C13044032   3.871   5.685   1.914 -0.7748 -0.0680  0.6564
  272MOL   C13144033   3.786   5.791   1.831 -0.1771  0.3336 -0.2365
  272MOL   C13244034   3.645   5.781   1.861  0.3910  0.4803  0.0264
  272MOL   O13344035   3.586   5.668   1.865 -0.2397 -0.8171  0.3391
  272MOL   H13444036   3.919   5.722   2.005  2.2861 -0.4216 -0.7505
  272MOL   H13544037   3.804   5.604   1.944  1.7290 -2.1160  0.9386
  272MOL   H13644038   3.799   5.762   1.727  0.0692 -0.9556  0.1350
  272MOL   H13744039   3.830   5.890   1.840 -0.2937  0.3356  0.3876
  272MOL   C13844040   3.580   5.910   1.904  0.0059 -0.0477  0.4963
  272MOL   C13944041   3.425   5.905   1.889  0.7055 -0.4252  0.2601
  272MOL   C14044042   3.353   5.856   2.020  0.5364 -0.0820 -0.0733
  272MOL   O14144043   3.414   5.807   2.113  0.5363  0.0709  0.4705
  272MOL   H14244044   3.623   5.975   1.827  0.2401  0.4045  1.0093
  272MOL   H14344045   3.611   5.945   2.002 -0.1730  1.5722 -0.0057
  272MOL   H14444046   3.394   5.850   1.800 -1.8916  0.1730  0.7486
  272MOL   H14544047   3.385   6.005   1.875 -0.5486 -1.0565 -0.7855
  272MOL   C14644048   3.199   5.857   2.020  0.0697 -0.2399  0.6927
  272MOL   C14744049   3.129   5.863   2.154 -0.7736 -0.0566  0.0016
  272MOL   C14844050   2.988   5.910   2.150 -0.5787 -0.4633  0.5737
  272MOL   O14944051   2.935   5.956   2.046  0.2043  0.0995 -0.1256
  272MOL   H15044052   3.187   5.753   1.989  0.4981  0.4231 -1.8174
  272MOL   H15144053   3.152   5.914   1.940 -2.0274 -2.7880  0.0227
  272MOL   H15244054   3.178   5.928   2.227  1.5550 -1.6844 -0.0474
  272MOL   H15344055   3.167   5.772   2.201 -0.5936  0.0339  0.0345
  272MOL   C15444056   2.919   5.914   2.285  0.6828 -0.0070 -0.4344
  272MOL   C15544057   2.777   5.978   2.277 -0.2752 -0.3234 -0.8789
  272MOL   C15644058   2.672   5.873   2.252  0.0263  0.1880  0.0231
  272MOL   O15744059   2.651   5.796   2.339 -0.2335 -0.9356 -0.2863
  272MOL   H15844060   2.977   5.961   2.364 -0.3511 -1.1020  1.0013
  272MOL   H15944061   2.903   5.810   2.314  0.5548  0.1749  0.1588
  272MOL   H16044062   2.770   6.047   2.193  1.5802  2.0581  0.8399
  272MOL   H16144063   2.755   6.034   2.368  2.9372  2.6935 -1.8681
  272MOL   H16244064   2.633   5.884   2.151  1.1661  2.2259 -0.2188
  273MOL     C144065   6.698   3.644   2.576 -0.4150 -0.3480  0.4748
  273MOL     C244066   6.736   3.519   2.634  0.5351  0.5108  0.6778
  273MOL     C344067   6.814   3.522   2.770  0.3186 -0.1519  0.8131
  273MOL     O444068   6.897   3.613   2.793  0.4842  0.0392 -0.1105
  273MOL     H544069   6.762   3.727   2.606  0.6760 -1.1005  0.2591
  273MOL     H644070   6.693   3.626   2.469  1.4220 -2.4162  0.6975
  273MOL     H744071   6.801   3.466   2.564 -1.8781 -0.2698 -1.0193
  273MOL     H844072   6.649   3.454   2.637  0.4227  0.6004 -0.3113
  273MOL     H944073   6.604   3.672   2.623  0.0485  0.6084  0.8581
  273MOL    C1044074   6.780   3.421   2.868 -0.4837  0.3362  0.2418
  273MOL    C1144075   6.659   3.461   2.956  0.2343 -0.6377 -0.1868
  273MOL    C1244076   6.544   3.366   2.948 -0.1136  0.4565 -0.4846
  273MOL    O1344077   6.515   3.323   2.837  0.0142  0.7146 -0.0948
  273MOL    H1444078   6.873   3.405   2.922 -0.7813  0.3576  0.7659
  273MOL    H1544079   6.760   3.330   2.812 -1.7130 -0.5447  2.0733
  273MOL    H1644080   6.616   3.554   2.919 -1.5400 -1.9277 -1.4649
  273MOL    H1744081   6.697   3.477   3.057  2.1794  0.4702 -1.0587
  273MOL    C1844082   6.469   3.313   3.071 -0.1127  0.0260 -0.0821
  273MOL    C1944083   6.331   3.247   3.046 -0.3681 -0.0494  0.8100
  273MOL    C2044084   6.334   3.118   2.959  0.1357  0.2665 -0.2351
  273MOL    O2144085   6.434   3.061   2.919 -0.0707  0.3406  0.5287
  273MOL    H2244086   6.467   3.385   3.153  0.4402  1.4986 -1.3473
  273MOL    H2344087   6.532   3.238   3.120 -2.2969 -1.7245  0.1429
  273MOL    H2444088   6.275   3.322   2.990 -0.2924  0.6568  1.6612
  273MOL    H2544089   6.283   3.222   3.140  0.5774 -3.3761  0.4765
  273MOL    C2644090   6.199   3.057   2.933 -0.3595 -0.6869 -0.0822
  273MOL    C2744091   6.152   2.971   3.048 -0.4554  0.5336  0.4084
  273MOL    C2844092   6.037   2.890   3.000 -0.1960 -0.2006  0.2748
  273MOL    O2944093   5.990   2.914   2.886  0.0808 -0.7677 -0.4683
  273MOL    H3044094   6.212   3.006   2.838  1.3772 -0.5428  0.0558
  273MOL    H3144095   6.129   3.141   2.922 -0.9034 -0.8874  1.5808
  273MOL    H3244096   6.114   3.027   3.134  2.1422  0.3006  1.7831
  273MOL    H3344097   6.231   2.903   3.080  3.0538  3.0564 -2.4060
  273MOL    C3444098   5.956   2.814   3.101  0.3148 -0.3703 -0.2590
  273MOL    C3544099   5.902   2.680   3.043  0.0970 -0.2290 -0.0542
  273MOL    C3644100   5.768   2.644   3.100 -0.6806  0.9059  0.2887
  273MOL    O3744101   5.735   2.668   3.215  0.0376  0.0825 -0.0677
  273MOL    H3844102   5.877   2.883   3.130  0.3481 -0.4297 -0.0300
  273MOL    H3944103   6.016   2.789   3.188 -0.6758 -2.0594 -0.0425
  273MOL    H4044104   5.968   2.598   3.070 -0.3692 -0.2622  1.0037
  273MOL    H4144105   5.905   2.674   2.934  0.4038  0.5799 -0.0935
  273MOL    C4244106   5.677   2.554   3.012 -0.1122  0.4186 -0.1041
  273MOL    C4344107   5.603   2.630   2.896 -0.3166 -0.0721  0.0424
  273MOL    C4444108   5.449   2.603   2.905 -0.3244 -0.0112 -0.3220
  273MOL    O4544109   5.385   2.631   3.006 -0.0763 -0.0100  0.2539
  273MOL    H4644110   5.618   2.496   3.083 -0.1978  1.4852  0.6943
  273MOL    H4744111   5.738   2.479   2.962  0.4776 -0.3239  1.6687
  273MOL    H4844112   5.646   2.603   2.800  1.2101  2.0352  0.1034
  273MOL    H4944113   5.613   2.738   2.906 -1.0436  0.2160 -2.0565
  273MOL    C5044114   5.380   2.522   2.794 -0.3420 -0.2322 -0.3597
  273MOL    C5144115   5.284   2.410   2.843  0.3527  0.0555  0.0613
  273MOL    C5244116   5.247   2.320   2.728 -0.1878 -0.7947  0.1888
  273MOL    O5344117   5.317   2.224   2.695  0.6654 -0.2732  0.2607
  273MOL    H5444118   5.461   2.467   2.747  0.4793  1.5507 -1.0868
  273MOL    H5544119   5.334   2.579   2.713  1.0742 -0.1174 -1.0917
  273MOL    H5644120   5.199   2.460   2.888 -0.7592 -2.0979  0.4077
  273MOL    H5744121   5.334   2.337   2.906 -0.7266 -0.0325  0.8295
  273MOL    C5844122   5.116   2.362   2.649  0.2904 -0.1476 -0.0747
  273MOL    C5944123   5.128   2.335   2.493 -0.5374  0.2517 -0.8114
  273MOL    C6044124   5.063   2.446   2.413  0.5719 -0.5256  0.2053
  273MOL    O6144125   4.959   2.497   2.455 -0.4011  0.3059 -0.3617
  273MOL    H6244126   5.086   2.461   2.684 -0.6423 -0.7343  0.8123
  273MOL    H6344127   5.037   2.294   2.678  1.3495 -1.1495  0.5298
  273MOL    H6444128   5.091   2.237   2.463  1.0458 -0.6961  0.2512
  273MOL    H6544129   5.234   2.331   2.469 -1.1222  0.3468 -3.5318
  273MOL    C6644130   5.143   2.490   2.288  0.4686  0.1719 -0.4201
  273MOL    C6744131   5.055   2.573   2.194  0.4277 -0.0992 -0.7740
  273MOL    C6844132   5.114   2.720   2.185 -0.4811 -0.1136  0.2399
  273MOL    O6944133   5.072   2.810   2.257  0.3164 -0.1871  0.3002
  273MOL    H7044134   5.174   2.402   2.231  0.7577  0.7745 -1.2072
  273MOL    H7144135   5.228   2.551   2.317  2.2344 -3.3470  2.1018
  273MOL    H7244136   4.951   2.571   2.229 -0.4301 -2.3111 -3.2453
  273MOL    H7344137   5.041   2.529   2.095 -2.1944  0.9201 -0.9138
  273MOL    C7444138   5.211   2.766   2.071 -0.2407  0.8813  0.4914
  273MOL    C7544139   5.354   2.761   2.119 -0.0733 -0.1243 -1.1017
  273MOL    C7644140   5.455   2.712   2.018 -0.0654 -0.8095  0.4426
  273MOL    O7744141   5.430   2.671   1.904  0.2348 -0.2191 -0.3304
  273MOL    H7844142   5.183   2.862   2.027 -1.2074  0.4399  0.1121
  273MOL    H7944143   5.192   2.697   1.989  1.1878  0.7888  0.2281
  273MOL    H8044144   5.365   2.694   2.204  2.6052  2.0188  0.3237
  273MOL    H8144145   5.373   2.860   2.161  2.4212 -1.2875  0.6214
  273MOL    C8244146   5.599   2.719   2.067  0.5620  0.0955  0.8622
  273MOL    C8344147   5.713   2.659   1.978  0.2237 -0.2858 -0.1082
  273MOL    C8444148   5.731   2.507   1.998  0.9218  0.3169  0.6469
  273MOL    O8544149   5.668   2.434   2.082 -0.0669 -0.1732  0.4874
  273MOL    H8644150   5.595   2.672   2.166 -1.4000  1.5606  1.4916
  273MOL    H8744151   5.617   2.823   2.091 -0.8535  0.9138 -1.4664
  273MOL    H8844152   5.808   2.703   2.009 -0.6375  1.1385  0.5887
  273MOL    H8944153   5.704   2.693   1.875 -1.2073  2.2230  0.7894
  273MOL    C9044154   5.832   2.449   1.907 -0.2169 -0.1548  0.1183
  273MOL    C9144155   5.865   2.299   1.941  0.3368  0.4301  0.1267
  273MOL    C9244156   5.752   2.199   1.898 -0.1947  0.1454  0.3963
  273MOL    O9344157   5.675   2.213   1.807  0.4504 -0.4551  0.7083
  273MOL    H9444158   5.927   2.502   1.898  0.1344 -0.6232  1.0136
  273MOL    H9544159   5.781   2.444   1.811  0.2444 -1.1282 -0.0780
  273MOL    H9644160   5.903   2.282   2.042 -1.1512 -2.8652  0.2218
  273MOL    H9744161   5.950   2.262   1.884  0.4412  1.7440 -0.5814
  273MOL    C9844162   5.731   2.082   1.985 -0.2641 -0.8142 -0.1309
  273MOL    C9944163   5.762   1.950   1.903 -0.4305  0.2070 -0.3188
  273MOL   C10044164   5.630   1.895   1.856 -0.0805 -0.1197  0.3044
  273MOL   O10144165   5.546   1.845   1.936 -0.2313  0.0733 -0.3730
  273MOL   H10244166   5.630   2.079   2.026 -0.6379  0.5636 -0.9239
  273MOL   H10344167   5.797   2.103   2.069 -0.4939  0.0904 -0.1706
  273MOL   H10444168   5.807   1.867   1.959 -1.4428 -0.2538 -0.1738
  273MOL   H10544169   5.826   1.971   1.818 -0.0400 -0.7908 -0.2882
  273MOL   C10644170   5.589   1.913   1.709  0.2171 -0.7146 -0.6433
  273MOL   C10744171   5.456   1.842   1.672  0.4625  0.2918  0.1630
  273MOL   C10844172   5.397   1.890   1.541  0.2224 -0.0053 -0.8003
  273MOL   O10944173   5.464   1.931   1.446 -0.2810 -0.2078  0.1225
  273MOL   H11044174   5.670   1.879   1.645  1.0664 -0.1136  0.1017
  273MOL   H11144175   5.565   2.018   1.691 -1.2198 -1.2661 -2.0128
  273MOL   H11244176   5.385   1.863   1.752 -1.3110  0.7339 -1.4978
  273MOL   H11344177   5.465   1.734   1.658  1.2058  0.1833  1.4209
  273MOL   C11444178   5.247   1.857   1.523  0.5963  0.9906  0.2624
  273MOL   C11544179   5.181   1.951   1.421  0.2140 -0.4773  0.2785
  273MOL   C11644180   5.144   1.889   1.287 -0.7949 -0.4545 -0.1497
  273MOL   O11744181   5.206   1.798   1.234 -0.2777 -0.4214 -0.0357
  273MOL   H11844182   5.193   1.885   1.614 -2.2048  1.3093 -1.4461
  273MOL   H11944183   5.226   1.751   1.512  0.4968  1.1368 -0.9642
  273MOL   H12044184   5.232   2.047   1.409 -0.8349  0.3125  1.9562
  273MOL   H12144185   5.080   1.971   1.456 -0.0077  0.1298 -0.6847
  273MOL   C12244186   5.014   1.923   1.219 -0.2436 -0.1507  0.0493
  273MOL   C12344187   5.029   2.009   1.093 -0.2394 -0.5785 -0.7446
  273MOL   C12444188   4.894   2.030   1.017  0.0959  0.4797  0.3293
  273MOL   O12544189   4.791   2.055   1.078  0.4724  0.2380 -0.1378
  273MOL   H12644190   4.939   1.963   1.287  0.3007 -1.4903  1.4671
  273MOL   H12744191   4.963   1.836   1.175  3.9746 -2.3114 -0.8485
  273MOL   H12844192   5.114   1.987   1.027  0.7554  1.7269 -0.2865
  273MOL   H12944193   5.052   2.107   1.135 -1.0555 -0.1403 -1.3085
  273MOL   C13044194   4.896   2.013   0.866  0.2481  0.6303 -0.7265
  273MOL   C13144195   4.767   1.942   0.803  0.5965  0.1924 -0.2092
  273MOL   C13244196   4.698   2.026   0.698  0.5688  0.0395 -0.1366
  273MOL   O13344197   4.752   2.079   0.603  0.1527  0.3621  0.4939
  273MOL   H13444198   4.981   1.946   0.853  0.5236  1.1828 -1.8558
  273MOL   H13544199   4.914   2.106   0.811 -0.1741  2.1114  1.5822
  273MOL   H13644200   4.688   1.932   0.878  0.9917 -0.2341  0.1523
  273MOL   H13744201   4.787   1.844   0.760  0.2840 -1.1008  2.4679
  273MOL   C13844202   4.544   2.043   0.714  0.1634  0.1150  0.5666
  273MOL   C13944203   4.493   2.139   0.824  0.1683  0.0652  0.6033
  273MOL   C14044204   4.360   2.118   0.882  0.3969 -0.0350  0.2905
  273MOL   O14144205   4.342   2.028   0.962  0.0820  0.1768 -0.0436
  273MOL   H14244206   4.500   1.944   0.728  0.7111  0.0459  1.8425
  273MOL   H14344207   4.516   2.063   0.610  1.2373  1.2055  0.4795
  273MOL   H14444208   4.499   2.242   0.788  0.1507 -0.3527 -0.6263
  273MOL   H14544209   4.570   2.128   0.900  4.2550  0.4923 -3.2335
  273MOL   C14644210   4.251   2.211   0.837  0.1522 -0.2240  0.4959
  273MOL   C14744211   4.111   2.190   0.908 -0.2999 -0.2659 -0.3277
  273MOL   C14844212   4.008   2.125   0.814  0.4252  0.1139  0.6301
  273MOL   O14944213   3.922   2.190   0.751 -0.1986 -0.5059 -0.7845
  273MOL   H15044214   4.250   2.207   0.728  2.5602 -1.2701  0.4734
  273MOL   H15144215   4.300   2.305   0.860  2.1919 -1.0059 -0.4770
  273MOL   H15244216   4.069   2.290   0.913  0.1460 -0.1032  0.2647
  273MOL   H15344217   4.117   2.148   1.008  1.6143 -0.4722 -0.5158
  273MOL   C15444218   4.024   1.973   0.795 -0.1015 -0.0704  0.3224
  273MOL   C15544219   4.003   1.921   0.652  0.2863 -0.7558  0.0915
  273MOL   C15644220   4.128   1.856   0.597  0.1313 -0.0746 -0.0254
  273MOL   O15744221   4.241   1.900   0.625  0.0528 -0.1964 -0.0850
  273MOL   H15844222   3.960   1.914   0.861  0.1436 -1.1028 -0.3437
  273MOL   H15944223   4.124   1.947   0.828  0.1160  1.9249  1.2954
  273MOL   H16044224   3.968   2.003   0.589 -1.1011 -0.8845  0.6730
  273MOL   H16144225   3.921   1.850   0.643  0.3090 -0.4574 -2.8846
  273MOL   H16244226   4.114   1.767   0.536  0.0442 -0.8117  1.0629
  274MOL     C144227   2.189   4.416   3.279 -0.3632 -0.7691 -0.0109
  274MOL     C244228   2.156   4.508   3.399 -0.0211  0.1179 -0.1289
  274MOL     C344229   2.226   4.645   3.394  0.2993 -0.1904  1.0591
  274MOL     O444230   2.280   4.689   3.291  0.0821 -0.5306  0.6486
  274MOL     H544231   2.107   4.415   3.207 -0.1317  0.9886 -0.3241
  274MOL     H644232   2.281   4.453   3.233 -1.2071  0.6612 -0.5997
  274MOL     H744233   2.179   4.455   3.492 -0.0920 -0.0512 -0.2060
  274MOL     H844234   2.047   4.517   3.397  0.0225  0.7305  0.1727
  274MOL     H944235   2.203   4.312   3.309 -2.1924 -0.9086  0.4510
  274MOL    C1044236   2.227   4.727   3.523 -0.2124 -0.1865 -0.3213
  274MOL    C1144237   2.278   4.873   3.502  0.4005  0.2811 -0.0308
  274MOL    C1244238   2.428   4.899   3.509 -0.0821 -0.6220 -0.1087
  274MOL    O1344239   2.476   4.948   3.614  0.1334  0.1218  0.5887
  274MOL    H1444240   2.297   4.671   3.585  1.0816  1.4634 -0.2822
  274MOL    H1544241   2.129   4.735   3.571 -0.7268  1.1276 -1.5656
  274MOL    H1644242   2.237   4.936   3.582 -0.5041 -2.1204  1.4531
  274MOL    H1744243   2.239   4.920   3.412  0.0408  0.3529  0.1604
  274MOL    C1844244   2.510   4.858   3.389 -0.4349  0.6419  0.3750
  274MOL    C1944245   2.664   4.892   3.387 -0.3303 -0.1078  0.3982
  274MOL    C2044246   2.704   5.038   3.372  0.8033  0.0100  0.0336
  274MOL    O2144247   2.647   5.100   3.280  0.2977  0.5971 -0.4418
  274MOL    H2244248   2.457   4.904   3.306  0.8698  1.9979  0.2744
  274MOL    H2344249   2.495   4.751   3.380 -0.9385  0.7543 -0.1035
  274MOL    H2444250   2.698   4.841   3.297 -2.3558  0.2065 -0.5713
  274MOL    H2544251   2.712   4.851   3.476  2.0906  2.5422  0.3790
  274MOL    C2644252   2.806   5.107   3.457 -0.2015  0.4574  0.8765
  274MOL    C2744253   2.748   5.228   3.534 -0.0176 -0.5212 -0.3569
  274MOL    C2844254   2.854   5.285   3.630  0.1135 -0.4645  0.0137
  274MOL    O2944255   2.973   5.250   3.617 -0.1611 -0.8113 -0.0246
  274MOL    H3044256   2.893   5.125   3.395 -0.6849  1.1344  0.3772
  274MOL    H3144257   2.842   5.032   3.526  0.3085  0.5644  0.7243
  274MOL    H3244258   2.656   5.195   3.583 -0.1335 -0.3473 -0.4567
  274MOL    H3344259   2.729   5.305   3.460 -0.6487 -0.2956  0.0322
  274MOL    C3444260   2.810   5.355   3.758  0.3778 -0.3497 -0.2741
  274MOL    C3544261   2.915   5.380   3.871  0.3751 -0.4667 -0.6009
  274MOL    C3644262   2.884   5.494   3.965  0.1929 -0.4317  0.8083
  274MOL    O3744263   2.813   5.591   3.943 -0.5042  0.3485  0.1382
  274MOL    H3844264   2.743   5.284   3.807 -0.2857 -0.1687 -0.8984
  274MOL    H3944265   2.747   5.434   3.716 -1.5968 -0.9413  1.4877
  274MOL    H4044266   3.005   5.410   3.817 -0.8575 -0.1873 -2.5205
  274MOL    H4144267   2.936   5.295   3.936  0.4717 -0.5641 -0.7595
  274MOL    C4244268   2.957   5.476   4.095 -0.1365 -0.1566  0.1052
  274MOL    C4344269   2.915   5.568   4.209  0.1374  0.2189 -0.4602
  274MOL    C4444270   2.785   5.528   4.273  0.5845  0.1281  0.0565
  274MOL    O4544271   2.721   5.431   4.234 -0.3665  0.6643 -0.8079
  274MOL    H4644272   3.063   5.493   4.079 -0.0292  1.5313  2.4041
  274MOL    H4744273   2.929   5.377   4.131 -4.6716  1.8370  2.5236
  274MOL    H4844274   2.898   5.669   4.173  0.1320  0.0544 -0.9264
  274MOL    H4944275   2.990   5.567   4.288 -0.5121 -0.0684  0.1483
  274MOL    C5044276   2.740   5.625   4.377 -0.8929 -0.1427 -1.0639
  274MOL    C5144277   2.592   5.632   4.403 -0.4838 -0.0182 -0.6001
  274MOL    C5244278   2.531   5.544   4.518  0.5441 -0.4746  0.2367
  274MOL    O5344279   2.550   5.575   4.633 -0.0296  0.5380 -0.7457
  274MOL    H5444280   2.766   5.728   4.356 -0.8108  0.0982  0.1393
  274MOL    H5544281   2.799   5.598   4.465 -0.9416  0.5259 -0.8275
  274MOL    H5644282   2.525   5.622   4.317 -0.4357 -2.6915 -0.3546
  274MOL    H5744283   2.566   5.735   4.429 -1.4525 -0.5712  0.6990
  274MOL    C5844284   2.453   5.419   4.474 -0.0517 -0.3268  0.0481
  274MOL    C5944285   2.482   5.298   4.565 -0.4252  0.0151  1.2699
  274MOL    C6044286   2.362   5.245   4.643 -0.1103  0.5503 -0.3246
  274MOL    O6144287   2.250   5.295   4.640 -0.1537 -0.0153  0.1704
  274MOL    H6244288   2.484   5.403   4.371  1.3342  2.8855 -0.1069
  274MOL    H6344289   2.350   5.451   4.487  0.0818  0.1461 -0.0493
  274MOL    H6444290   2.552   5.329   4.643 -2.0348  1.9947  1.9687
  274MOL    H6544291   2.535   5.222   4.508  0.7742  0.6068  1.5609
  274MOL    C6644292   2.399   5.128   4.742 -0.0571 -0.5847 -0.0106
  274MOL    C6744293   2.280   5.034   4.761  0.0971 -0.0718 -0.7291
  274MOL    C6844294   2.316   4.885   4.784 -0.5647 -0.0765  0.2486
  274MOL    O6944295   2.436   4.848   4.773  0.0758  0.4619 -0.1988
  274MOL    H7044296   2.446   5.160   4.836 -0.2464  0.2981 -0.2107
  274MOL    H7144297   2.487   5.080   4.700  0.4847 -0.2100  0.6831
  274MOL    H7244298   2.232   5.026   4.663  1.7870 -0.1710 -1.5571
  274MOL    H7344299   2.209   5.071   4.834 -0.9507 -1.7083 -0.9017
  274MOL    C7444300   2.200   4.792   4.815  0.1761  0.3591 -0.1493
  274MOL    C7544301   2.239   4.641   4.844 -0.3239  0.3073  0.2424
  274MOL    C7644302   2.324   4.623   4.969  0.1205  0.5489  0.3101
  274MOL    O7744303   2.306   4.687   5.073 -0.0120  0.0703 -0.0554
  274MOL    H7844304   2.130   4.786   4.731 -1.3307  0.7552  1.0675
  274MOL    H7944305   2.147   4.834   4.900  1.1062  0.5756  0.3235
  274MOL    H8044306   2.284   4.592   4.758 -0.0223  1.6701 -0.3949
  274MOL    H8144307   2.146   4.589   4.867 -0.6827  0.2590 -1.2651
  274MOL    C8244308   2.429   4.517   4.957 -0.0524 -0.4084  0.0193
  274MOL    C8344309   2.529   4.547   5.064  0.1927 -0.3208  0.6195
  274MOL    C8444310   2.499   4.484   5.196  0.1131 -0.7054 -0.4699
  274MOL    O8544311   2.430   4.383   5.214 -0.1678  0.5041  0.8532
  274MOL    H8644312   2.472   4.507   4.857  0.7077 -1.5661  0.4574
  274MOL    H8744313   2.390   4.417   4.976 -2.9746  0.7891  0.6677
  274MOL    H8844314   2.544   4.654   5.074  0.9069 -0.3005 -0.5808
  274MOL    H8944315   2.626   4.509   5.031  0.0377 -0.8524  0.7746
  274MOL    C9044316   2.535   4.569   5.320 -0.4707 -0.5950  0.0538
  274MOL    C9144317   2.404   4.592   5.398  0.2671  0.8108 -0.5304
  274MOL    C9244318   2.414   4.681   5.524  0.0988  0.1407 -0.1901
  274MOL    O9344319   2.514   4.740   5.567 -0.2638  0.0406  0.0202
  274MOL    H9444320   2.583   4.662   5.289 -1.6735  0.6122  1.7489
  274MOL    H9544321   2.602   4.504   5.376 -0.7103 -1.1643 -0.3150
  274MOL    H9644322   2.354   4.503   5.435  1.3749 -0.5188 -2.1940
  274MOL    H9744323   2.343   4.644   5.324 -0.5852  1.3413  0.5282
  274MOL    C9844324   2.282   4.684   5.594 -0.1594  0.1552 -0.5877
  274MOL    C9944325   2.280   4.756   5.726 -0.3608 -1.0388  0.0198
  274MOL   C10044326   2.233   4.899   5.720 -0.7958 -0.1216  0.8914
  274MOL   O10144327   2.167   4.945   5.631 -0.0147 -0.3932 -0.5743
  274MOL   H10244328   2.257   4.581   5.622  0.5850  0.1401  0.0417
  274MOL   H10344329   2.204   4.735   5.537  0.5004  3.2500  1.1488
  274MOL   H10444330   2.380   4.753   5.770 -1.5609  1.8842  3.2011
  274MOL   H10544331   2.217   4.695   5.791  0.8362 -3.4851 -1.0753
  274MOL   C10644332   2.275   4.992   5.836  0.0579  0.3936 -0.1223
  274MOL   C10744333   2.152   5.066   5.889  0.5203  0.6870  0.3600
  274MOL   C10844334   2.167   5.102   6.036  0.7848 -0.0182  0.2612
  274MOL   O10944335   2.256   5.049   6.104 -0.4329 -0.2601 -0.0149
  274MOL   H11044336   2.350   5.065   5.806  0.7418 -0.1133  0.3559
  274MOL   H11144337   2.320   4.924   5.908  1.9754 -0.6641 -2.2714
  274MOL   H11244338   2.077   4.988   5.881  0.9922  0.3425 -0.7858
  274MOL   H11344339   2.129   5.153   5.828  1.1990  0.5125 -0.1444
  274MOL   C11444340   2.061   5.197   6.098 -0.0051 -0.2502  0.5534
  274MOL   C11544341   2.058   5.186   6.251  0.3987  0.0685  0.5550
  274MOL   C11644342   1.926   5.133   6.304 -0.6954  0.0036 -0.6673
  274MOL   O11744343   1.862   5.195   6.387  0.7906 -0.2912 -0.1064
  274MOL   H11844344   1.963   5.158   6.072 -0.4031 -0.9528  2.9808
  274MOL   H11944345   2.071   5.304   6.080  0.4907 -0.3541  0.2055
  274MOL   H12044346   2.054   5.289   6.286  2.4108  0.1796  0.5010
  274MOL   H12144347   2.144   5.139   6.298  1.4911  0.3850 -1.0819
  274MOL   C12244348   1.901   4.988   6.258 -0.2765  0.1989 -0.1412
  274MOL   C12344349   1.790   4.919   6.345  0.0727 -0.2297  0.4827
  274MOL   C12444350   1.797   4.771   6.356  0.4522  0.3786 -0.3284
  274MOL   O12544351   1.878   4.712   6.291 -0.0392  0.2852  0.1823
  274MOL   H12644352   1.996   4.934   6.258 -1.8827 -2.6898  0.4631
  274MOL   H12744353   1.868   4.982   6.154 -0.3717  0.4432 -0.1239
  274MOL   H12844354   1.699   4.945   6.291  0.0079  0.7884  1.0582
  274MOL   H12944355   1.797   4.969   6.442  1.6294  2.2311 -0.8359
  274MOL   C13044356   1.692   4.706   6.445  0.4159  0.3666  0.1133
  274MOL   C13144357   1.704   4.554   6.435 -0.3469  0.2916 -0.4654
  274MOL   C13244358   1.634   4.485   6.554 -0.5676  0.2845  0.6127
  274MOL   O13344359   1.542   4.540   6.615  0.1496  0.0337  0.3042
  274MOL   H13444360   1.591   4.734   6.418  1.8004  3.9375 -1.6452
  274MOL   H13544361   1.707   4.746   6.546  2.1660  2.1452 -0.8003
  274MOL   H13644362   1.811   4.534   6.435 -0.2846  0.5812  0.2902
  274MOL   H13744363   1.663   4.508   6.345 -0.6454 -0.2591 -0.0502
  274MOL   C13844364   1.677   4.340   6.590 -0.2188  0.1424 -0.2865
  274MOL   C13944365   1.614   4.291   6.720 -0.4656  0.6243  0.1595
  274MOL   C14044366   1.693   4.330   6.840  0.9943  0.2818  0.3368
  274MOL   O14144367   1.816   4.329   6.852  0.1797  0.5801 -0.1982
  274MOL   H14244368   1.784   4.324   6.602  0.4254  3.5065 -0.9192
  274MOL   H14344369   1.641   4.279   6.507 -1.9589 -1.5862  1.6860
  274MOL   H14444370   1.613   4.183   6.723  0.6593  0.5636 -0.9921
  274MOL   H14544371   1.509   4.322   6.724 -0.9094 -0.4642 -2.1727
  274MOL   C14644372   1.606   4.377   6.961  0.0055 -0.1185 -0.3672
  274MOL   C14744373   1.668   4.454   7.077 -0.2522 -0.4347 -0.5319
  274MOL   C14844374   1.730   4.586   7.031  0.7328  0.4166 -0.9657
  274MOL   O14944375   1.666   4.672   6.978  0.3705  0.5145 -0.3022
  274MOL   H15044376   1.567   4.281   6.994  0.3501 -0.0812  0.1669
  274MOL   H15144377   1.524   4.432   6.916  0.7536  0.8384 -0.5878
  274MOL   H15244378   1.745   4.394   7.126  0.6296 -0.2000 -1.6105
  274MOL   H15344379   1.587   4.478   7.146 -2.4429 -0.9116 -2.8696
  274MOL   C15444380   1.882   4.596   7.042  0.2645  0.1978  0.0083
  274MOL   C15544381   1.929   4.712   7.133  0.4206 -0.9149 -0.3664
  274MOL   C15644382   2.078   4.728   7.127  0.0892 -0.4169 -0.6090
  274MOL   O15744383   2.141   4.687   7.025  0.0311  0.0275 -0.9780
  274MOL   H15844384   1.900   4.627   6.939 -3.3890 -1.6605 -1.2891
  274MOL   H15944385   1.942   4.506   7.054 -0.0378 -0.2162 -1.4026
  274MOL   H16044386   1.899   4.682   7.233  1.5623 -1.6306 -0.2228
  274MOL   H16144387   1.879   4.807   7.110  3.0872  0.6527  0.0210
  274MOL   H16244388   2.118   4.801   7.198  0.0532 -1.1194  0.1374
  275MOL     C144389   0.568   2.082   5.871 -0.1859  0.0291  0.1419
  275MOL     C244390   0.688   2.039   5.787 -0.6303 -0.6313  0.4587
  275MOL     C344391   0.765   2.157   5.720  0.8788 -0.3407  0.3607
  275MOL     O444392   0.721   2.272   5.725 -0.4215  0.8810 -0.2864
  275MOL     H544393   0.598   2.137   5.961 -2.4082 -0.3644  1.1606
  275MOL     H644394   0.519   2.154   5.806 -1.3400 -0.8727 -0.0047
  275MOL     H744395   0.662   1.968   5.708  1.1596 -1.5865  0.6984
  275MOL     H844396   0.765   1.989   5.845 -1.3407  0.0292  1.9955
  275MOL     H944397   0.499   2.003   5.903 -1.6509  1.8014  1.5114
  275MOL    C1044398   0.890   2.121   5.646  0.0499 -0.2530 -1.1401
  275MOL    C1144399   0.949   2.234   5.566  0.3552  0.4141 -0.1104
  275MOL    C1244400   0.893   2.253   5.419  0.1869  0.4118  0.6175
  275MOL    O1344401   0.826   2.160   5.362  0.2411 -0.2369  0.0770
  275MOL    H1444402   0.865   2.035   5.584 -1.2928  0.9623 -2.3210
  275MOL    H1544403   0.963   2.085   5.718 -1.6917 -0.1829  0.6960
  275MOL    H1644404   1.052   2.204   5.550 -0.0369 -1.5865  0.9333
  275MOL    H1744405   0.947   2.329   5.620 -1.1393  0.1781  0.2651
  275MOL    C1844406   0.928   2.386   5.347  0.2290 -0.4622 -0.1240
  275MOL    C1944407   1.000   2.377   5.206  1.4082  0.1735 -0.1674
  275MOL    C2044408   1.156   2.363   5.209 -0.3363  0.1045 -0.5909
  275MOL    O2144409   1.218   2.352   5.315  0.5141 -0.1530  0.1564
  275MOL    H2244410   0.975   2.454   5.419  3.4131  0.3374 -2.8408
  275MOL    H2344411   0.832   2.431   5.323 -0.1618 -1.7396 -0.9882
  275MOL    H2444412   0.966   2.468   5.157 -0.0149  0.6576  1.6543
  275MOL    H2544413   0.949   2.298   5.150  1.0062 -0.5381  1.1785
  275MOL    C2644414   1.224   2.364   5.072  0.0437 -0.4480 -0.3036
  275MOL    C2744415   1.354   2.450   5.064 -0.1362  0.2674 -0.0257
  275MOL    C2844416   1.365   2.499   4.922  0.5194 -0.3002 -0.4373
  275MOL    O2944417   1.415   2.426   4.835 -0.0483  0.4136 -0.3064
  275MOL    H3044418   1.145   2.396   5.004 -0.8054 -0.7679  0.5307
  275MOL    H3144419   1.240   2.262   5.037  0.0503  0.4542 -3.0232
  275MOL    H3244420   1.426   2.372   5.087  0.5031  0.0559 -2.6664
  275MOL    H3344421   1.355   2.541   5.124 -0.8057  0.1137  0.2311
  275MOL    C3444422   1.323   2.643   4.892  0.1261 -0.0089 -0.5809
  275MOL    C3544423   1.438   2.713   4.811  0.4044 -0.1999 -0.3831
  275MOL    C3644424   1.514   2.805   4.906  0.5723  0.1213  0.2546
  275MOL    O3744425   1.482   2.828   5.025 -0.3424 -0.0756  0.8925
  275MOL    H3844426   1.293   2.698   4.982 -1.5762 -2.3125  0.2922
  275MOL    H3944427   1.235   2.622   4.831 -0.5496 -2.5840  1.2296
  275MOL    H4044428   1.401   2.775   4.729  0.1376  0.0790 -0.0595
  275MOL    H4144429   1.500   2.637   4.766  3.0688  1.8270 -0.2645
  275MOL    C4244430   1.635   2.879   4.837  0.4889 -0.1471 -0.0041
  275MOL    C4344431   1.667   3.006   4.910 -0.3711  0.3105  0.7907
  275MOL    C4444432   1.757   3.101   4.830 -0.4737 -0.2136 -0.2271
  275MOL    O4544433   1.797   3.075   4.712  0.6838 -0.7732 -0.2252
  275MOL    H4644434   1.597   2.905   4.738 -1.0799  1.8756  1.0792
  275MOL    H4744435   1.719   2.811   4.821  0.3792 -0.2746 -0.0329
  275MOL    H4844436   1.714   2.975   5.004 -1.4011 -1.1502  0.8388
  275MOL    H4944437   1.579   3.062   4.945 -0.2498  0.2190  1.2515
  275MOL    C5044438   1.802   3.226   4.896  0.2868  0.6992 -0.3069
  275MOL    C5144439   1.868   3.333   4.797 -0.3255 -0.3875  0.0581
  275MOL    C5244440   1.982   3.415   4.858  0.8840 -0.4438 -0.0946
  275MOL    O5344441   2.070   3.355   4.927 -0.2589  0.1581 -0.2315
  275MOL    H5444442   1.866   3.211   4.983 -3.1754 -1.8625  1.9797
  275MOL    H5544443   1.715   3.276   4.939  0.0159  0.1129 -0.1585
  275MOL    H5644444   1.791   3.400   4.759  1.7449  2.3065  0.5545
  275MOL    H5744445   1.911   3.278   4.713 -3.0810 -0.6635 -1.2545
  275MOL    C5844446   1.990   3.564   4.825  0.5100 -0.8312  0.1505
  275MOL    C5944447   2.107   3.640   4.884  0.7599 -0.2919 -0.1820
  275MOL    C6044448   2.241   3.614   4.819  0.0746  0.3998 -0.6214
  275MOL    O6144449   2.264   3.546   4.719  0.0343  0.1769  0.5225
  275MOL    H6244450   1.901   3.613   4.865 -0.0062 -1.2741 -0.4359
  275MOL    H6344451   1.978   3.564   4.717  0.7033 -0.5335  0.1286
  275MOL    H6444452   2.117   3.615   4.989  2.6800  0.1283 -0.2429
  275MOL    H6544453   2.079   3.745   4.882 -2.0704 -0.9653  1.3458
  275MOL    C6644454   2.362   3.662   4.893 -0.4747 -0.2413  0.1588
  275MOL    C6744455   2.440   3.552   4.970  0.3932  0.4269  0.2860
  275MOL    C6844456   2.414   3.544   5.119 -0.1605 -0.0676 -0.1804
  275MOL    O6944457   2.313   3.580   5.173  0.2275  0.6329 -0.6966
  275MOL    H7044458   2.336   3.742   4.961 -2.5614 -1.0081  0.2960
  275MOL    H7144459   2.428   3.701   4.815 -1.9311 -0.8118 -1.3887
  275MOL    H7244460   2.545   3.573   4.949  0.7324 -0.9081  0.5925
  275MOL    H7344461   2.411   3.456   4.926 -2.4924  1.6423 -0.5784
  275MOL    C7444462   2.534   3.508   5.209  0.8176  0.1377  0.1632
  275MOL    C7544463   2.493   3.517   5.364  0.2616  0.4521 -0.0996
  275MOL    C7644464   2.613   3.548   5.453 -0.2475 -0.2999  0.4150
  275MOL    O7744465   2.725   3.502   5.438 -0.0769 -0.5107  0.2029
  275MOL    H7844466   2.621   3.570   5.186  0.2228  0.4821 -1.1915
  275MOL    H7944467   2.563   3.406   5.185 -2.2713 -0.5740 -0.6643
  275MOL    H8044468   2.448   3.422   5.395 -1.5602  1.1404 -0.5413
  275MOL    H8144469   2.422   3.600   5.370  1.9055  1.9647 -1.3614
  275MOL    C8244470   2.579   3.628   5.578  0.0113 -0.7867  0.4391
  275MOL    C8344471   2.489   3.546   5.667  0.0176 -0.0760 -0.4131
  275MOL    C8444472   2.355   3.621   5.686 -0.4206  0.5297 -0.4872
  275MOL    O8544473   2.313   3.715   5.610  0.2892  0.3463 -0.3840
  275MOL    H8644474   2.548   3.725   5.540  0.7360 -1.2528 -1.4436
  275MOL    H8744475   2.680   3.644   5.615 -0.2393  0.0089  0.7749
  275MOL    H8844476   2.535   3.523   5.762  0.7500 -0.2598 -0.8108
  275MOL    H8944477   2.464   3.448   5.627  0.4025 -0.3669  0.0607
  275MOL    C9044478   2.279   3.587   5.813  0.0543 -0.1184  0.1000
  275MOL    C9144479   2.133   3.550   5.765  0.8431 -0.1140  0.3295
  275MOL    C9244480   2.125   3.403   5.703 -0.3042  0.0795  0.0448
  275MOL    O9344481   2.222   3.329   5.694 -0.1947 -0.2279 -0.1665
  275MOL    H9444482   2.292   3.665   5.888  1.2970  0.2234 -0.4561
  275MOL    H9544483   2.325   3.496   5.852  0.6615  1.4383  3.1691
  275MOL    H9644484   2.108   3.611   5.678  0.2600 -2.0442 -0.9108
  275MOL    H9744485   2.052   3.565   5.837 -1.5613 -0.4698 -2.2225
  275MOL    C9844486   1.982   3.359   5.655 -0.1569  0.2602 -0.0089
  275MOL    C9944487   1.959   3.270   5.531  0.2461 -0.0344 -0.2856
  275MOL   C10044488   1.844   3.169   5.565  0.0129  0.5412  0.3388
  275MOL   O10144489   1.745   3.209   5.627  0.0621  0.2473 -0.2555
  275MOL   H10244490   1.934   3.456   5.647 -0.7404  0.0295  0.5974
  275MOL   H10344491   1.931   3.320   5.744 -0.0669 -0.4945 -0.2813
  275MOL   H10444492   2.042   3.208   5.496 -1.8418 -2.4096 -1.1305
  275MOL   H10544493   1.950   3.340   5.447 -2.6483  1.2108  1.0263
  275MOL   C10644494   1.866   3.021   5.527  0.1264 -0.2554 -0.6024
  275MOL   C10744495   1.835   2.924   5.638 -0.5705  0.4334  0.4631
  275MOL   C10844496   1.944   2.909   5.744  0.9903 -0.2677  0.2637
  275MOL   O10944497   2.046   2.975   5.739 -0.3648 -0.0246 -0.0813
  275MOL   H11044498   1.969   2.998   5.501  0.3090 -0.8135  0.5560
  275MOL   H11144499   1.791   3.004   5.451  0.3039 -1.5244 -0.4935
  275MOL   H11244500   1.811   2.824   5.604  0.3197  0.0460  0.9648
  275MOL   H11344501   1.756   2.972   5.697 -0.5786  1.5531 -0.4459
  275MOL   C11444502   1.913   2.816   5.858  0.1230  0.1288  0.1994
  275MOL   C11544503   2.032   2.801   5.964  0.3361 -0.3323  0.4623
  275MOL   C11644504   2.100   2.669   5.953 -0.0533  0.6562 -0.4127
  275MOL   O11744505   2.092   2.606   5.849 -0.3570 -0.5222 -0.4635
  275MOL   H11844506   1.879   2.720   5.817  2.2590 -0.3162 -0.6184
  275MOL   H11944507   1.821   2.849   5.907  0.2592  1.0366 -0.1497
  275MOL   H12044508   1.996   2.823   6.065 -1.1908  1.1480 -0.3825
  275MOL   H12144509   2.108   2.878   5.951 -0.0396  0.1003  0.8008
  275MOL   C12244510   2.155   2.598   6.083  0.0201 -0.3279  0.4474
  275MOL   C12344511   2.310   2.578   6.068  0.6127  0.1923 -0.3002
  275MOL   C12444512   2.328   2.429   6.035  0.3981  0.3267 -0.9327
  275MOL   O12544513   2.348   2.356   6.133 -0.1608  0.3422  0.1016
  275MOL   H12644514   2.105   2.502   6.098 -1.8085  0.3700 -1.1117
  275MOL   H12744515   2.131   2.661   6.168  0.8352 -0.0529  0.4825
  275MOL   H12844516   2.361   2.604   6.161 -0.8102 -2.8693  1.4120
  275MOL   H12944517   2.362   2.637   5.993  1.0062 -0.6173 -0.6662
  275MOL   C13044518   2.325   2.380   5.896  0.3345 -0.4641 -0.3974
  275MOL   C13144519   2.332   2.231   5.889  0.0947 -0.0648  0.1853
  275MOL   C13244520   2.284   2.167   5.756 -0.5046  0.1966 -0.3424
  275MOL   O13344521   2.288   2.223   5.650  0.3641 -0.0460 -0.8327
  275MOL   H13444522   2.407   2.432   5.846 -1.3301  2.6734 -0.0362
  275MOL   H13544523   2.227   2.412   5.861 -0.6263 -0.8547  1.8839
  275MOL   H13644524   2.276   2.186   5.971  1.4731  2.6626  2.7016
  275MOL   H13744525   2.436   2.201   5.907 -0.1208 -0.8898  0.1016
  275MOL   C13844526   2.240   2.023   5.770 -0.0152  0.9698  0.3609
  275MOL   C13944527   2.361   1.940   5.723 -0.7362 -0.1694  0.1890
  275MOL   C14044528   2.399   1.842   5.840 -0.1844  0.1393  0.5229
  275MOL   O14144529   2.422   1.882   5.953 -0.5207  0.2715 -0.0612
  275MOL   H14244530   2.152   1.995   5.711  1.4610  1.0993 -1.9976
  275MOL   H14344531   2.209   2.008   5.873 -1.5217 -1.5656 -0.4096
  275MOL   H14444532   2.454   1.996   5.710  0.1786 -1.5173  0.8102
  275MOL   H14544533   2.336   1.889   5.630  3.6344 -1.9474 -0.1377
  275MOL   C14644534   2.392   1.700   5.792  0.4668  0.2141 -0.1301
  275MOL   C14744535   2.399   1.595   5.910 -0.1048 -0.0153 -0.1242
  275MOL   C14844536   2.495   1.476   5.899 -0.3395 -0.1740  0.4066
  275MOL   O14944537   2.599   1.497   5.838  0.0295 -0.5512 -0.1661
  275MOL   H15044538   2.460   1.691   5.708  0.3939 -0.8606 -0.0830
  275MOL   H15144539   2.292   1.692   5.750 -0.1238 -0.4055  1.3398
  275MOL   H15244540   2.296   1.558   5.910 -0.0901 -0.1534  2.0308
  275MOL   H15344541   2.400   1.644   6.008  3.9390 -0.6529  0.2316
  275MOL   C15444542   2.483   1.346   5.977  0.4467  0.3932  0.6349
  275MOL   C15544543   2.621   1.292   6.029 -0.0086 -0.4311 -0.0683
  275MOL   C15644544   2.637   1.296   6.183  0.2207  0.3115  1.0033
  275MOL   O15744545   2.701   1.389   6.235  0.1194  0.8765  0.0015
  275MOL   H15844546   2.445   1.268   5.911  1.6052  1.5262 -1.4305
  275MOL   H15944547   2.405   1.361   6.052  1.0584  1.9819  0.9684
  275MOL   H16044548   2.711   1.338   5.988 -0.7521 -1.2284 -2.6963
  275MOL   H16144549   2.635   1.186   6.009  1.5151  0.0012 -1.3939
  275MOL   H16244550   2.590   1.213   6.234  0.7053 -0.1860  0.6485
  276MOL     C144551   2.375   2.849   1.512 -0.0367 -0.3762  0.5935
  276MOL     C244552   2.453   2.814   1.387 -0.2398 -0.0631 -0.2882
  276MOL     C344553   2.360   2.765   1.270  0.2816 -0.4162  0.7886
  276MOL     O444554   2.248   2.734   1.301 -0.3927 -0.2122 -0.7971
  276MOL     H544555   2.445   2.862   1.594  0.5261 -1.6012  0.3167
  276MOL     H644556   2.333   2.949   1.503  0.8986 -0.0168  0.1664
  276MOL     H744557   2.528   2.738   1.408  0.3026  0.9920  1.7125
  276MOL     H844558   2.516   2.897   1.353 -1.5524  0.6379 -1.0495
  276MOL     H944559   2.300   2.775   1.538  0.2108 -1.1892 -0.9243
  276MOL    C1044560   2.409   2.766   1.125  0.8612  0.0627 -0.2999
  276MOL    C1144561   2.301   2.728   1.023 -0.0771 -0.0198 -0.3374
  276MOL    C1244562   2.359   2.680   0.890  0.5461 -0.7403  0.0511
  276MOL    O1344563   2.474   2.710   0.849 -0.2502  0.5907 -0.5466
  276MOL    H1444564   2.498   2.704   1.132 -0.1769 -1.6292 -1.6092
  276MOL    H1544565   2.436   2.871   1.122  2.1444 -0.2732 -0.8382
  276MOL    H1644566   2.249   2.823   1.005  1.8487  0.7019 -2.3936
  276MOL    H1744567   2.234   2.653   1.064 -0.9492 -0.0387 -1.7312
  276MOL    C1844568   2.258   2.608   0.797  0.0475  0.6321  0.5494
  276MOL    C1944569   2.321   2.522   0.682  0.3138 -0.3251  0.5697
  276MOL    C2044570   2.223   2.476   0.575 -0.0547 -0.0964  0.0751
  276MOL    O2144571   2.109   2.527   0.567 -0.0720  0.1705 -0.1958
  276MOL    H2244572   2.193   2.687   0.758  0.2886  0.8309  0.5501
  276MOL    H2344573   2.186   2.546   0.850 -2.0888  1.5312 -1.2392
  276MOL    H2444574   2.371   2.432   0.717  0.7293 -0.0200  0.7756
  276MOL    H2544575   2.391   2.586   0.627 -0.1532 -1.8645 -1.8467
  276MOL    C2644576   2.259   2.355   0.483 -0.3482 -0.6457  0.3648
  276MOL    C2744577   2.143   2.310   0.392  0.3114 -0.1899  0.0621
  276MOL    C2844578   2.196   2.242   0.265  0.4337  0.5343  0.1451
  276MOL    O2944579   2.317   2.231   0.242  0.4956 -0.1537 -0.3125
  276MOL    H3044580   2.277   2.276   0.557  0.9495 -1.3995 -0.7443
  276MOL    H3144581   2.339   2.387   0.418 -1.1176  0.0410 -0.2577
  276MOL    H3244582   2.082   2.398   0.369 -1.1504 -1.1903 -0.0011
  276MOL    H3344583   2.074   2.248   0.450  1.3262  1.1131  2.7523
  276MOL    C3444584   2.088   2.199   0.169  0.1660 -0.4704  0.1004
  276MOL    C3544585   2.085   2.049   0.138 -0.0075  0.4196  0.0566
  276MOL    C3644586   2.020   2.019   0.003 -0.2929 -0.5234 -0.8504
  276MOL    O3744587   2.081   2.006   7.759  0.2361  0.0213  0.0883
  276MOL    H3844588   2.097   2.254   0.075 -0.3998  0.3160  0.4985
  276MOL    H3944589   1.988   2.224   0.205 -0.5690 -1.3337 -1.3035
  276MOL    H4044590   2.023   1.998   0.212  0.9679  0.0508  0.6296
  276MOL    H4144591   2.184   2.010   0.116  0.5364  1.9388 -0.2432
  276MOL    C4244592   1.871   2.023   0.007  0.3756 -0.4886  0.5039
  276MOL    C4344593   1.812   2.070   7.731  0.1996 -0.4836 -0.4816
  276MOL    C4444594   1.812   2.224   7.725 -0.1469 -0.5668 -0.2986
  276MOL    O4544595   1.808   2.291   7.825  0.0876 -0.0545  0.0992
  276MOL    H4644596   1.830   2.081   0.090 -1.3639 -1.4115  0.3169
  276MOL    H4744597   1.842   1.921   0.030  0.2364 -0.6846 -0.5174
  276MOL    H4844598   1.711   2.032   7.718 -0.6871  2.2079 -1.7083
  276MOL    H4944599   1.856   2.037   7.637  0.3142  1.3595 -1.0969
  276MOL    C5044600   1.818   2.285   7.582  0.8634  0.3399 -0.4021
  276MOL    C5144601   1.797   2.442   7.571 -0.0420  0.3010 -0.1288
  276MOL    C5244602   1.716   2.486   7.449  0.1919 -0.4484  0.2939
  276MOL    O5344603   1.664   2.398   7.383  0.9907 -0.7850 -0.4528
  276MOL    H5444604   1.734   2.237   7.532  0.5876  0.7323 -0.3154
  276MOL    H5544605   1.913   2.259   7.536  1.5004  2.4171 -0.2977
  276MOL    H5644606   1.900   2.478   7.569  1.1891 -2.9558  1.2966
  276MOL    H5744607   1.760   2.491   7.661 -0.3870  0.2116 -0.2237
  276MOL    C5844608   1.732   2.628   7.405  0.1367  0.3454  0.1563
  276MOL    C5944609   1.865   2.648   7.334  0.4349 -0.0771  0.2136
  276MOL    C6044610   1.982   2.729   7.399 -0.5320 -0.0043  0.4956
  276MOL    O6144611   1.983   2.759   7.518 -0.2429  0.0472  0.4466
  276MOL    H6244612   1.725   2.684   7.499 -1.2940 -0.8247  0.7597
  276MOL    H6344613   1.646   2.660   7.346  0.2758  2.0010  0.8352
  276MOL    H6444614   1.841   2.709   7.247 -0.1925 -1.7882 -0.8513
  276MOL    H6544615   1.896   2.548   7.302  0.5373  0.2107 -0.5971
  276MOL    C6644616   2.111   2.748   7.316  0.6979  0.1068 -0.0679
  276MOL    C6744617   2.183   2.879   7.349  0.2158 -0.1189 -0.1619
  276MOL    C6844618   2.103   2.995   7.286  0.0801  0.1181 -0.0216
  276MOL    O6944619   2.133   3.037   7.175 -0.6447  0.2408 -0.2024
  276MOL    H7044620   2.087   2.749   7.210 -0.4860 -1.5535  0.1722
  276MOL    H7144621   2.173   2.660   7.334 -0.0409 -0.1441  1.3309
  276MOL    H7244622   2.278   2.889   7.297 -0.1193 -2.8158 -1.3731
  276MOL    H7344623   2.191   2.900   7.456  0.3104  3.2221 -0.7561
  276MOL    C7444624   1.989   3.049   7.380 -0.4911  0.4749  0.4782
  276MOL    C7544625   1.987   3.205   7.360  0.0936  0.4748 -0.0026
  276MOL    C7644626   2.108   3.276   7.426 -0.1893 -0.5494 -0.2850
  276MOL    O7744627   2.184   3.214   7.497 -0.1096  0.3513  0.1436
  276MOL    H7844628   2.015   3.015   7.480 -2.2217 -0.2654  0.6828
  276MOL    H7944629   1.889   3.010   7.361 -0.6613  0.1301  2.0138
  276MOL    H8044630   1.905   3.232   7.427 -0.2925  0.3215 -0.4122
  276MOL    H8144631   1.976   3.251   7.262 -1.1808  0.9831  0.3658
  276MOL    C8244632   2.131   3.424   7.378  0.8738  0.9367 -0.2747
  276MOL    C8344633   2.203   3.526   7.472 -0.0718  0.1160 -0.5213
  276MOL    C8444634   2.138   3.667   7.462 -0.4189 -0.1350 -0.1265
  276MOL    O8544635   2.038   3.690   7.392 -0.3421  0.1287  0.1655
  276MOL    H8644636   2.027   3.458   7.372  0.6528  0.9354  2.7476
  276MOL    H8744637   2.170   3.431   7.276 -0.7941  0.6777 -0.9511
  276MOL    H8844638   2.307   3.531   7.438  0.1016  1.0469  0.1152
  276MOL    H8944639   2.211   3.486   7.573  0.5760 -0.2580 -0.7176
  276MOL    C9044640   2.203   3.775   7.552  0.8870 -0.2370 -0.4521
  276MOL    C9144641   2.104   3.887   7.586  0.2777  0.0765  0.2826
  276MOL    C9244642   2.145   3.969   7.709 -0.3365 -0.7743  0.5382
  276MOL    O9344643   2.143   3.921   7.820 -0.1791 -0.0102  0.2354
  276MOL    H9444644   2.291   3.814   7.501  0.4198  1.6005  0.0998
  276MOL    H9544645   2.231   3.722   7.643  1.0886 -0.0572 -0.4095
  276MOL    H9644646   2.001   3.855   7.602  1.0439 -1.6881  1.8414
  276MOL    H9744647   2.109   3.949   7.496  1.4825  0.8076  0.8472
  276MOL    C9844648   2.188   4.114   7.681 -0.2962  0.2085 -0.6515
  276MOL    C9944649   2.219   4.193   7.808 -0.0471  0.2598  0.3685
  276MOL   C10044650   2.091   4.256   0.006  0.3562  0.3795 -0.2162
  276MOL   O10144651   2.077   4.376   7.854  0.0980  0.9286  0.0414
  276MOL   H10244652   2.111   4.165   7.623 -0.7428  0.2534 -0.0182
  276MOL   H10344653   2.282   4.098   7.627 -0.5125  1.1753 -1.3358
  276MOL   H10444654   2.298   4.261   7.776  0.5230 -1.4501 -1.9990
  276MOL   H10544655   2.269   4.135   0.027  1.0601  2.7222  1.5578
  276MOL   C10644656   1.971   4.166   0.049 -0.2392 -0.0833 -0.1255
  276MOL   C10744657   1.844   4.244   0.082 -0.0627  0.1208 -0.5581
  276MOL   C10844658   1.713   4.192   0.023 -0.0520 -0.0304 -0.1777
  276MOL   O10944659   1.628   4.264   7.832  0.0221  0.0471 -0.4485
  276MOL   H11044660   2.001   4.105   0.135  1.3023  0.8661  0.0196
  276MOL   H11144661   1.959   4.100   7.822  3.7645 -2.4946  1.0090
  276MOL   H11244662   1.865   4.342   0.042  1.8979  0.5346  1.3770
  276MOL   H11344663   1.831   4.260   0.189  1.2193  0.1770 -0.4106
  276MOL   C11444664   1.673   4.050   0.049 -0.1130 -0.0947 -0.1239
  276MOL   C11544665   1.573   3.995   7.803  0.2976  0.1314 -0.6592
  276MOL   C11644666   1.636   3.926   7.689 -0.0110  0.0635 -0.8607
  276MOL   O11744667   1.748   3.950   7.661 -0.1250 -0.0176 -0.1067
  276MOL   H11844668   1.623   4.039   0.145 -2.3863  1.3882 -1.1035
  276MOL   H11944669   1.760   3.984   0.047 -0.1614 -0.1493 -0.4952
  276MOL   H12044670   1.499   4.070   7.773 -0.2708 -0.9988 -2.1026
  276MOL   H12144671   1.503   3.920   7.839  1.3272 -0.3884  0.2760
  276MOL   C12244672   1.549   3.841   7.606  0.0737  0.2376 -0.9073
  276MOL   C12344673   1.606   3.813   7.470 -0.4954  0.3438  0.1958
  276MOL   C12444674   1.539   3.715   7.381  0.1420 -0.2614  0.9390
  276MOL   O12544675   1.440   3.654   7.419  0.1702 -0.7017 -0.3721
  276MOL   H12644676   1.447   3.879   7.595  0.0056  0.6501  0.9039
  276MOL   H12744677   1.543   3.745   7.657 -0.7696  0.5062 -0.4862
  276MOL   H12844678   1.709   3.778   7.477  0.6007  3.0733 -1.4748
  276MOL   H12944679   1.610   3.898   7.402  0.0932 -0.8967 -1.3385
  276MOL   C13044680   1.606   3.686   7.249  0.4104 -0.5178  0.1026
  276MOL   C13144681   1.572   3.543   7.193 -0.6463 -0.2410 -0.2546
  276MOL   C13244682   1.658   3.424   7.244 -0.6163 -0.0851  0.2514
  276MOL   O13344683   1.762   3.433   7.311  0.4775  0.8770 -0.0648
  276MOL   H13444684   1.713   3.698   7.263  0.4684  0.7601 -1.2610
  276MOL   H13544685   1.559   3.765   7.190 -1.4828 -1.2114  0.6442
  276MOL   H13644686   1.599   3.539   7.088 -0.3703  0.3864 -0.2095
  276MOL   H13744687   1.469   3.508   7.195  0.1938 -2.9034 -0.3359
  276MOL   C13844688   1.605   3.291   7.190  0.9514  0.2391  0.2174
  276MOL   C13944689   1.592   3.177   7.292  0.3873  0.1307  0.3157
  276MOL   C14044690   1.562   3.041   7.226  0.2712  0.3520  0.4895
  276MOL   O14144691   1.558   3.030   7.103  0.7210 -0.5859  0.4409
  276MOL   H14244692   1.646   3.272   7.090 -2.0068  0.8560 -1.1547
  276MOL   H14344693   1.500   3.310   7.170  1.6760  2.9099 -1.2434
  276MOL   H14444694   1.517   3.193   7.369 -0.4071  1.7721 -0.7606
  276MOL   H14544695   1.685   3.167   7.347  0.1051  0.1718  0.8074
  276MOL   C14644696   1.540   2.915   7.317 -0.2586  0.7009 -0.5971
  276MOL   C14744697   1.408   2.930   7.382 -0.2103  0.4868  0.2162
  276MOL   C14844698   1.384   2.819   7.489  0.7260 -0.2976 -0.3053
  276MOL   O14944699   1.462   2.725   7.506 -0.7590 -0.1214  0.2014
  276MOL   H15044700   1.622   2.903   7.388  1.1823 -0.7953 -2.4661
  276MOL   H15144701   1.550   2.833   7.246  1.2900  0.2669  0.1009
  276MOL   H15244702   1.329   2.923   7.307  1.6643 -1.1849 -1.6455
  276MOL   H15344703   1.407   3.024   7.437 -1.8093  2.0096 -2.2605
  276MOL   C15444704   1.245   2.811   7.553 -0.3630  0.5601 -0.3407
  276MOL   C15544705   1.218   2.933   7.634  0.2619 -0.1185 -0.9353
  276MOL   C15644706   1.180   2.901   7.777 -0.6960 -0.6467  0.1690
  276MOL   O15744707   1.090   2.824   7.800 -0.3651  0.0949  0.3942
  276MOL   H15844708   1.253   2.728   7.623 -0.6707 -1.0693 -2.1906
  276MOL   H15944709   1.165   2.789   7.482  0.2057  0.8019 -1.0561
  276MOL   H16044710   1.133   2.989   7.594 -0.6585 -2.1051 -1.8479
  276MOL   H16144711   1.302   3.002   7.637  0.6026 -0.5949  0.5572
  276MOL   H16244712   1.249   2.940   7.852 -1.2350  0.5886  0.0342
  277MOL     C144713   7.790   1.687   1.479 -0.3057  0.2853 -0.2693
  277MOL     C244714   7.856   1.662   1.344  0.0881  0.3177  0.0371
  277MOL     C344715   0.148   1.678   1.333  0.6697  0.8805 -0.6894
  277MOL     O444716   0.197   1.763   1.405  0.1956  0.7724  0.2709
  277MOL     H544717   7.816   1.601   1.541  1.5584  0.9517 -0.0948
  277MOL     H644718   7.823   1.786   1.510  1.3756 -0.3645  0.0836
  277MOL     H744719   7.821   1.740   1.275  1.1708  2.5563  1.9779
  277MOL     H844720   7.832   1.566   1.299 -2.1220  0.8274  0.0265
  277MOL     H944721   7.685   1.706   1.458 -0.0384 -0.1516 -2.0988
  277MOL    C1044722   0.218   1.609   1.221  0.0383 -0.0568 -0.1810
  277MOL    C1144723   0.171   1.672   1.085 -0.5633 -1.1595  0.2376
  277MOL    C1244724   0.061   1.597   1.017  0.2891 -0.4836  0.2300
  277MOL    O1344725   0.089   1.484   0.976  0.1847 -0.2858 -0.1075
  277MOL    H1444726   0.204   1.502   1.233 -2.4804  0.2223 -0.3673
  277MOL    H1544727   0.324   1.622   1.240 -0.0579 -0.5722  0.7379
  277MOL    H1644728   0.252   1.676   1.012  0.0886 -0.3632  0.9920
  277MOL    H1744729   0.131   1.773   1.098  1.2450 -0.6228  2.0339
  277MOL    C1844730   7.782   1.666   1.003  0.0948  0.5166 -0.3624
  277MOL    C1944731   7.751   1.673   0.856 -0.1045  0.0125  0.0485
  277MOL    C2044732   7.624   1.749   0.856  0.0434  0.1904 -1.5868
  277MOL    O2144733   7.625   1.872   0.846 -0.1920 -1.0877 -0.1110
  277MOL    H2244734   7.782   1.765   1.049 -0.4090  0.0816  0.6122
  277MOL    H2344735   7.712   1.607   1.063  0.1858 -0.3770 -1.1259
  277MOL    H2444736   7.727   1.574   0.818 -0.8225  0.5392 -0.9206
  277MOL    H2544737   7.827   1.713   0.789  0.2867 -2.3965 -1.0160
  277MOL    C2644738   7.486   1.680   0.866  0.0923 -0.0384 -0.5281
  277MOL    C2744739   7.388   1.750   0.964  0.2709  0.1779 -0.4154
  277MOL    C2844740   7.413   1.710   1.108  0.2120  0.3245  0.0109
  277MOL    O2944741   7.479   1.607   1.144 -0.0557  0.4357 -0.3119
  277MOL    H3044742   7.490   1.575   0.894  0.8048  0.3525  0.8643
  277MOL    H3144743   7.440   1.680   0.767  0.2887 -0.8567 -0.6193
  277MOL    H3244744   7.288   1.721   0.934 -0.0993  2.1803 -1.1923
  277MOL    H3344745   7.402   1.858   0.956  1.1132  0.0415 -0.8777
  277MOL    C3444746   7.366   1.813   1.210 -0.4936 -0.2611 -0.4799
  277MOL    C3544747   7.362   1.757   1.351 -0.4493 -0.3217 -0.7110
  277MOL    C3644748   7.388   1.854   1.463 -0.1909 -0.7224  0.4893
  277MOL    O3744749   7.408   1.975   1.440  0.4040  0.4214 -0.0869
  277MOL    H3844750   7.261   1.842   1.196 -0.1486  1.5998  0.5646
  277MOL    H3944751   7.423   1.906   1.203  2.0995 -1.8305 -0.8916
  277MOL    H4044752   7.443   1.685   1.354 -2.1253 -2.2257  0.0228
  277MOL    H4144753   7.262   1.714   1.362 -1.5061  1.3929 -3.2875
  277MOL    C4244754   7.388   1.799   1.604 -0.3940  0.5132  0.7454
  277MOL    C4344755   7.386   1.909   1.708 -0.0707 -0.8417  0.4585
  277MOL    C4444756   7.524   1.916   1.790  0.3625  0.1483  0.0806
  277MOL    O4544757   7.636   1.886   1.744 -0.0853 -0.3246 -0.0374
  277MOL    H4644758   7.470   1.727   1.613  0.1989  0.7920 -1.9436
  277MOL    H4744759   7.292   1.747   1.612 -1.6612  2.5090 -0.9652
  277MOL    H4844760   7.308   1.885   1.779 -0.9793 -0.1934 -0.3140
  277MOL    H4944761   7.362   2.009   1.671  0.4661 -0.3687  1.3552
  277MOL    C5044762   7.525   1.989   1.926  0.3250  0.2492 -0.6608
  277MOL    C5144763   7.641   1.954   2.017 -0.1160 -0.0770  0.0780
  277MOL    C5244764   7.656   2.064   2.122  0.4475  1.0645  0.0871
  277MOL    O5344765   7.721   2.163   2.093  0.1916 -0.3701 -0.0625
  277MOL    H5444766   7.434   1.964   1.979  0.9115 -0.7990 -0.1353
  277MOL    H5544767   7.497   2.095   1.918 -0.8214  0.1282  1.4406
  277MOL    H5644768   7.735   1.957   1.962 -1.1947 -0.6897 -1.8352
  277MOL    H5744769   7.622   1.853   2.055 -0.0964  0.6803  2.1491
  277MOL    C5844770   7.572   2.058   2.250 -0.7861 -0.3281  0.2951
  277MOL    C5944771   7.590   2.180   2.345  0.2459 -0.2648 -0.0428
  277MOL    C6044772   7.517   2.160   2.478  0.2522 -0.2061  0.1371
  277MOL    O6144773   7.464   2.055   2.513 -0.0213 -0.0154  0.2603
  277MOL    H6244774   7.600   1.964   2.300  1.5260 -1.0645 -2.2648
  277MOL    H6344775   7.470   2.032   2.223 -0.2691 -1.5181 -0.5877
  277MOL    H6444776   7.550   2.271   2.300 -0.0826 -0.4690 -0.1655
  277MOL    H6544777   7.695   2.175   2.376  0.0350 -0.6912  0.5997
  277MOL    C6644778   7.489   2.284   2.567 -0.2816  0.4683 -0.4935
  277MOL    C6744779   7.341   2.330   2.547 -0.3099 -0.1344 -0.3682
  277MOL    C6844780   7.298   2.452   2.632  1.1007  0.3123  0.4340
  277MOL    O6944781   7.379   2.503   2.709  0.6217 -0.0350 -0.3742
  277MOL    H7044782   7.555   2.359   2.524  0.5562  0.9268  1.5205
  277MOL    H7144783   7.524   2.270   2.669 -0.7142  0.1222 -0.3907
  277MOL    H7244784   7.287   2.241   2.576 -0.7048  0.3312  0.3468
  277MOL    H7344785   7.320   2.358   2.444 -2.3708 -1.8417 -0.4454
  277MOL    C7444786   7.160   2.503   2.612 -0.3997  0.0935  0.8081
  277MOL    C7544787   7.152   2.645   2.546 -0.2312 -0.0348 -0.0015
  277MOL    C7644788   7.105   2.641   2.401 -0.8089  0.3306 -0.0548
  277MOL    O7744789   7.044   2.545   2.359  0.6250 -0.7845 -0.3490
  277MOL    H7844790   7.104   2.499   2.706  2.5003  1.6462  2.6544
  277MOL    H7944791   7.122   2.422   2.549 -0.9836  0.8626  0.1456
  277MOL    H8044792   7.251   2.690   2.541 -0.6473  0.8421 -0.3879
  277MOL    H8144793   7.079   2.709   2.595  0.1419 -1.0302  1.9016
  277MOL    C8244794   7.157   2.759   2.311  0.5674  0.4379 -0.4843
  277MOL    C8344795   7.140   2.752   2.163  0.1634  0.1320  0.0820
  277MOL    C8444796   7.102   2.886   2.107  0.2671  0.5119 -0.4341
  277MOL    O8544797   7.044   2.971   2.166  0.1447 -0.0060 -0.3630
  277MOL    H8644798   7.262   2.784   2.325  0.4747  1.1793 -1.0765
  277MOL    H8744799   7.111   2.847   2.355  1.6407  0.1373  1.2613
  277MOL    H8844800   7.048   2.694   2.154  0.7141 -0.8242  0.5868
  277MOL    H8944801   7.210   2.689   2.108  0.1150 -0.5153  0.7637
  277MOL    C9044802   7.126   2.893   1.953 -0.6010 -0.1683 -0.3368
  277MOL    C9144803   7.172   3.035   1.910 -0.5587  0.1089  0.0766
  277MOL    C9244804   7.157   3.063   1.760  0.3354  0.4959  0.2925
  277MOL    O9344805   7.131   2.970   1.685  0.2717  0.1185  0.5603
  277MOL    H9444806   7.034   2.865   1.901 -1.6471  0.9132  0.9175
  277MOL    H9544807   7.199   2.816   1.929 -1.8523 -1.8323  1.0990
  277MOL    H9644808   7.277   3.054   1.934  0.0745 -2.7266 -0.2809
  277MOL    H9744809   7.113   3.115   1.955  0.1579 -0.9283  2.9798
  277MOL    C9844810   7.181   3.205   1.700  0.2113  0.2929 -0.0328
  277MOL    C9944811   7.101   3.231   1.564  0.0618 -0.2018 -0.3490
  277MOL   C10044812   7.157   3.159   1.448  0.1421 -0.0246 -0.0210
  277MOL   O10144813   7.278   3.132   1.434  0.5554  0.3679 -0.1973
  277MOL   H10244814   7.287   3.218   1.676  0.2529  1.0895  0.5839
  277MOL   H10344815   7.154   3.276   1.778  0.3831  1.2631 -0.8384
  277MOL   H10444816   7.084   3.338   1.556 -0.4271 -0.4788 -4.1090
  277MOL   H10544817   7.000   3.195   1.584  0.2918  0.1280  1.4819
  277MOL   C10644818   7.059   3.114   1.345  1.3192  0.3438  0.5018
  277MOL   C10744819   6.989   3.230   1.277 -0.1962  0.1298 -0.1356
  277MOL   C10844820   6.854   3.180   1.243 -0.7639 -0.2586  0.3345
  277MOL   O10944821   6.808   3.076   1.287 -0.3747 -0.2024  0.4901
  277MOL   H11044822   6.997   3.050   1.407 -1.7366 -2.0276 -4.7128
  277MOL   H11144823   7.100   3.042   1.274  1.1277  0.4437  0.2903
  277MOL   H11244824   7.034   3.254   1.180 -0.7146  0.5641 -0.2732
  277MOL   H11344825   6.978   3.320   1.338 -0.1982 -1.4385  2.2455
  277MOL   C11444826   6.763   3.282   1.167  0.3245 -0.0101  0.0629
  277MOL   C11544827   6.637   3.307   1.247  0.6789  0.2571 -0.0848
  277MOL   C11644828   6.548   3.420   1.201  0.3856 -0.4482 -0.0048
  277MOL   O11744829   6.597   3.502   1.128 -0.2085 -0.2729 -0.5440
  277MOL   H11844830   6.744   3.248   1.066 -0.7680 -0.0967  0.2929
  277MOL   H11944831   6.814   3.378   1.158 -0.1386  0.4911  2.2796
  277MOL   H12044832   6.665   3.310   1.352  2.2998  0.8332 -0.5060
  277MOL   H12144833   6.579   3.215   1.235 -0.9868  1.5367 -2.1477
  277MOL   C12244834   6.406   3.428   1.247 -0.5138 -0.0024 -0.2841
  277MOL   C12344835   6.309   3.537   1.187 -0.2439 -0.4948 -0.2868
  277MOL   C12444836   6.301   3.659   1.280 -0.1765  0.7579 -0.2418
  277MOL   O12544837   6.246   3.650   1.388  0.1988 -0.0421 -0.0614
  277MOL   H12644838   6.404   3.437   1.355  1.3273  2.0960 -0.3829
  277MOL   H12744839   6.373   3.329   1.216  2.2639 -0.3261 -2.4599
  277MOL   H12844840   6.205   3.503   1.189 -0.6222  0.6811  0.4375
  277MOL   H12944841   6.332   3.572   1.087 -0.4753  0.2566 -0.0777
  277MOL   C13044842   6.377   3.787   1.231  0.4562  0.6126 -1.0046
  277MOL   C13144843   6.324   3.905   1.312 -0.3983  0.2669 -0.4000
  277MOL   C13244844   6.426   3.969   1.403 -0.1511 -0.2434 -0.9486
  277MOL   O13344845   6.531   4.013   1.357  0.2674  0.1214 -0.7002
  277MOL   H13444846   6.356   3.804   1.125  0.3994  2.0952 -0.7645
  277MOL   H13544847   6.485   3.772   1.241 -0.0194 -1.4808  1.7878
  277MOL   H13644848   6.233   3.890   1.370 -1.0248  2.5121 -0.7767
  277MOL   H13744849   6.303   3.987   1.244  1.5074 -0.4820 -1.9302
  277MOL   C13844850   6.383   3.988   1.545 -0.5261  0.9144 -0.0711
  277MOL   C13944851   6.510   4.035   1.629  0.4478 -0.0020  0.4797
  277MOL   C14044852   6.475   4.121   1.752  0.9154  0.8976  0.0638
  277MOL   O14144853   6.383   4.205   1.752  0.0626  0.1918 -0.0737
  277MOL   H14244854   6.350   3.892   1.584  1.0413  0.3980  0.0148
  277MOL   H14344855   6.301   4.058   1.561 -1.4978 -0.2322  0.0462
  277MOL   H14444856   6.579   4.091   1.566 -0.2413  1.4028  0.9448
  277MOL   H14544857   6.560   3.942   1.657 -3.4091 -2.9354 -1.9120
  277MOL   C14644858   6.569   4.097   1.875 -0.6662 -0.3386  0.2988
  277MOL   C14744859   6.638   4.226   1.928 -0.3516 -0.4147 -0.1592
  277MOL   C14844860   6.791   4.222   1.930  0.0930  0.5053 -0.8654
  277MOL   O14944861   6.856   4.138   1.995 -0.2437 -0.1063  0.5589
  277MOL   H15044862   6.645   4.023   1.851  2.1089  0.9744  4.5799
  277MOL   H15144863   6.502   4.062   1.953 -0.7143  0.6327  0.6989
  277MOL   H15244864   6.624   4.221   2.036 -2.3412  0.0253 -0.3798
  277MOL   H15344865   6.595   4.319   1.892  1.8587  0.6664 -0.0735
  277MOL   C15444866   6.870   4.341   1.874  0.5678 -0.5713 -0.4543
  277MOL   C15544867   6.835   4.378   1.735 -0.5985  0.3595  0.7276
  277MOL   C15644868   6.943   4.464   1.672 -0.1056 -0.7473  0.4544
  277MOL   O15744869   7.059   4.422   1.674 -0.3096  0.2186 -0.2835
  277MOL   H15844870   6.977   4.328   1.888  0.7526  2.4959  1.6970
  277MOL   H15944871   6.847   4.428   1.935  0.9490 -0.0576 -1.0344
  277MOL   H16044872   6.750   4.447   1.733 -1.6394 -0.9259  0.1670
  277MOL   H16144873   6.806   4.287   1.682 -2.5814  0.5544  1.4231
  277MOL   H16244874   6.908   4.557   1.628  0.2076 -1.8818 -2.2442
  278MOL     C144875   3.593   4.687   6.253  0.0455 -0.1302 -0.0899
  278MOL     C244876   3.472   4.594   6.240  0.5667 -0.0857  0.3475
  278MOL     C344877   3.452   4.494   6.358  0.1782 -0.4558 -0.4300
  278MOL     O444878   3.496   4.522   6.468  0.3591  0.5576  0.1142
  278MOL     H544879   3.680   4.635   6.213 -0.0147 -0.5241  0.2819
  278MOL     H644880   3.582   4.782   6.200 -1.7567  0.2130  0.8649
  278MOL     H744881   3.481   4.553   6.139 -2.8249  2.5052 -1.0857
  278MOL     H844882   3.384   4.658   6.235 -0.1494 -1.1291 -0.6505
  278MOL     H944883   3.622   4.704   6.357  0.8610  0.1923 -0.3672
  278MOL    C1044884   3.367   4.369   6.324  0.2882  0.0359 -0.3327
  278MOL    C1144885   3.322   4.302   6.458 -0.5214  0.4536  0.0970
  278MOL    C1244886   3.177   4.337   6.502 -0.1767 -0.1200  0.2590
  278MOL    O1344887   3.105   4.413   6.435 -0.0535  0.0441 -0.0452
  278MOL    H1444888   3.433   4.311   6.260  0.2917  2.0711 -2.2322
  278MOL    H1544889   3.282   4.388   6.258  1.2246  0.7987 -1.3235
  278MOL    H1644890   3.392   4.319   6.540 -0.2115  0.4164 -0.1593
  278MOL    H1744891   3.321   4.195   6.440  2.6455  0.4895 -0.5512
  278MOL    C1844892   3.128   4.282   6.635  0.1440  0.3847 -0.2026
  278MOL    C1944893   2.999   4.340   6.694  0.9345  0.1804 -0.0519
  278MOL    C2044894   3.029   4.412   6.823 -0.1543  0.9961 -0.6750
  278MOL    O2144895   3.139   4.463   6.841 -0.0396  0.4656 -0.2498
  278MOL    H2244896   3.202   4.274   6.715 -0.6479 -0.0150  0.4829
  278MOL    H2344897   3.105   4.177   6.619  0.3732  0.1488  0.9516
  278MOL    H2444898   2.918   4.270   6.712 -0.0640  1.7033  1.6534
  278MOL    H2544899   2.966   4.418   6.626  0.2392  0.1359  0.2285
  278MOL    C2644900   2.918   4.447   6.926 -0.0622 -0.9604  0.3302
  278MOL    C2744901   2.967   4.439   7.071 -0.0332  0.4220 -0.1745
  278MOL    C2844902   2.846   4.431   7.158  0.4753  0.2855  0.0754
  278MOL    O2944903   2.738   4.486   7.121 -0.2314  0.3516  0.1013
  278MOL    H3044904   2.853   4.362   6.908 -1.1810 -0.2164  0.8280
  278MOL    H3144905   2.868   4.537   6.889 -1.3496 -1.3056  1.2289
  278MOL    H3244906   3.019   4.532   7.090 -0.4545  0.4947  0.6534
  278MOL    H3344907   3.039   4.363   7.101 -1.1693 -0.0085  1.5760
  278MOL    C3444908   2.857   4.346   7.286 -0.5153 -0.3651  0.0772
  278MOL    C3544909   2.725   4.354   7.371 -0.1429  0.1404 -0.5413
  278MOL    C3644910   2.744   4.400   7.509 -0.4019 -0.0068 -0.2688
  278MOL    O3744911   2.749   4.519   7.541  0.1599  0.8793  0.0859
  278MOL    H3844912   2.936   4.400   7.336  1.3825 -1.0433 -2.1041
  278MOL    H3944913   2.893   4.245   7.263 -1.0768 -0.4132 -0.6162
  278MOL    H4044914   2.655   4.270   7.365 -1.2890  1.1105 -1.0328
  278MOL    H4144915   2.654   4.423   7.326  0.5785  0.1391 -1.7351
  278MOL    C4244916   2.761   4.290   7.607 -0.1285  0.2558  0.7208
  278MOL    C4344917   2.644   4.272   7.698 -0.4681 -0.3548  0.8077
  278MOL    C4444918   2.585   4.130   7.698 -0.1014  0.5608  0.4313
  278MOL    O4544919   2.534   4.079   7.594  0.7335  0.2338 -0.1506
  278MOL    H4644920   2.855   4.307   7.660  0.3737  0.6021 -0.2646
  278MOL    H4744921   2.772   4.198   7.550 -2.1964  0.1671  0.4137
  278MOL    H4844922   2.570   4.349   7.678 -0.3391 -0.5615 -0.4934
  278MOL    H4944923   2.688   4.294   7.796  2.2844 -0.4186 -0.3608
  278MOL    C5044924   2.592   4.051   7.833  0.3937 -0.3442 -0.0362
  278MOL    C5144925   2.477   3.942   7.857 -0.4715 -1.0614  0.0669
  278MOL    C5244926   2.514   3.809   0.055  0.4270 -0.6531  0.0140
  278MOL    O5344927   2.615   3.753   0.016  0.3763  0.8788 -0.0043
  278MOL    H5444928   2.564   4.130   0.043  1.2141  0.3924 -0.5260
  278MOL    H5544929   2.692   4.015   7.857  1.6894  2.8881 -0.3096
  278MOL    H5644930   2.414   3.911   7.774  0.2922  1.1511 -1.3812
  278MOL    H5744931   2.417   3.988   0.077  2.1657  0.1693  1.4280
  278MOL    C5844932   2.417   3.745   0.158  0.6295 -0.1920  0.1808
  278MOL    C5944933   2.438   3.589   0.173 -0.0389  0.2982  0.2339
  278MOL    C6044934   2.351   3.516   0.079  0.4777 -0.5717  0.5505
  278MOL    O6144935   2.242   3.560   0.036  0.5453  0.4162  0.0541
  278MOL    H6244936   2.314   3.772   0.132  0.4906  0.7091  1.6310
  278MOL    H6344937   2.432   3.791   0.255  0.6484  1.3415 -0.5460
  278MOL    H6444938   2.411   3.580   0.278  0.6598  0.2678  0.4096
  278MOL    H6544939   2.539   3.552   0.157  0.9947  1.9926  2.6772
  278MOL    C6644940   2.402   3.382   0.027 -0.2452 -0.1029  0.7604
  278MOL    C6744941   2.295   3.296   7.825  0.3632 -0.0362  0.4009
  278MOL    C6844942   2.262   3.180   0.056 -0.0611 -0.5574 -0.0190
  278MOL    O6944943   2.292   3.174   0.175  0.6512  0.7475  0.0323
  278MOL    H7044944   2.466   3.341   0.105  1.1849  0.3656 -0.1519
  278MOL    H7144945   2.476   3.401   7.808 -0.0183 -1.2260  0.6947
  278MOL    H7244946   2.331   3.258   7.729 -0.6622 -2.0793  0.8172
  278MOL    H7344947   2.205   3.348   7.791  0.7555  1.2713  1.3070
  278MOL    C7444948   2.201   3.053   7.855 -0.1501 -0.5756 -0.2889
  278MOL    C7544949   2.061   3.071   7.809  0.4417  0.1567  0.0163
  278MOL    C7644950   1.963   2.959   7.844  0.1554  0.2065 -0.0330
  278MOL    O7744951   1.989   2.875   0.071  0.3237  0.0453 -0.3585
  278MOL    H7844952   2.208   2.976   0.072 -1.7634 -0.5107 -0.0728
  278MOL    H7944953   2.264   3.011   7.776  1.6251  0.8686  0.3318
  278MOL    H8044954   2.062   3.076   7.700 -3.6198  0.6950 -0.0852
  278MOL    H8144955   2.033   3.171   7.843  0.5237  0.0365  0.4395
  278MOL    C8244956   1.844   2.939   7.761 -0.1108  0.1609 -0.1506
  278MOL    C8344957   1.731   3.030   7.808  0.4143 -0.1665 -0.1399
  278MOL    C8444958   1.674   3.123   7.707  0.0071  0.4542  0.0488
  278MOL    O8544959   1.704   3.097   7.590 -0.1823  0.1184 -0.4230
  278MOL    H8644960   1.816   2.834   7.775 -0.9307  0.5725  1.3916
  278MOL    H8744961   1.881   2.954   7.659  0.6904 -2.3794 -0.2778
  278MOL    H8844962   1.767   3.101   0.024  0.0354  1.8072 -1.7858
  278MOL    H8944963   1.654   2.967   7.853  3.2279 -1.4639  3.0948
  278MOL    C9044964   1.620   3.257   7.749 -0.0040  0.3934 -0.3511
  278MOL    C9144965   1.660   3.377   7.659 -0.1591  0.1510 -0.8861
  278MOL    C9244966   1.809   3.412   7.667 -0.4680 -0.5698 -0.0616
  278MOL    O9344967   1.897   3.329   7.683  0.3749 -0.1981  0.1263
  278MOL    H9444968   1.626   3.278   7.856  1.0402  0.6007 -0.4393
  278MOL    H9544969   1.513   3.240   7.739 -0.0643  1.4725 -1.6687
  278MOL    H9644970   1.611   3.473   7.676  2.8677  1.5463  0.3241
  278MOL    H9744971   1.622   3.355   7.559  0.7914  0.3093 -1.2899
  278MOL    C9844972   1.841   3.560   7.651 -0.4184  1.3608  0.4993
  278MOL    C9944973   1.911   3.620   7.780  0.5208 -1.1403  0.4593
  278MOL   C10044974   1.818   3.669   0.032 -0.2744 -0.3866  0.1000
  278MOL   O10144975   1.696   3.650   0.035  0.0463  0.2604  0.5851
  278MOL   H10244976   1.752   3.611   7.613 -1.3887 -0.4316  0.3257
  278MOL   H10344977   1.912   3.566   7.568 -2.7083  1.1731 -1.5224
  278MOL   H10444978   1.983   3.698   7.755  0.7204 -1.2822  0.5828
  278MOL   H10544979   1.960   3.540   7.836 -3.7368 -2.8486  1.9802
  278MOL   C10644980   1.877   3.753   0.140  0.0620 -0.1628 -0.1729
  278MOL   C10744981   1.768   3.772   0.263 -0.2678 -0.3339  0.1513
  278MOL   C10844982   1.827   3.859   0.374 -0.8935 -0.3556  0.3745
  278MOL   O10944983   1.861   3.970   0.347 -0.0999  0.4441 -0.0404
  278MOL   H11044984   1.905   3.845   0.088  1.2041 -0.0770  0.5797
  278MOL   H11144985   1.967   3.697   0.162  0.4843  0.5368 -0.0804
  278MOL   H11244986   1.735   3.681   0.313 -1.0767 -0.7907 -1.1970
  278MOL   H11344987   1.688   3.832   0.219  1.7377  2.0967 -0.2831
  278MOL   C11444988   1.819   3.815   0.516 -0.0508  0.1381 -0.6285
  278MOL   C11544989   1.896   3.900   0.618  0.5571  0.1071  0.1196
  278MOL   C11644990   1.892   3.844   0.763 -0.1451  0.2244  0.3724
  278MOL   O11744991   1.851   3.916   0.857  0.0733  0.0801  0.2541
  278MOL   H11844992   1.865   3.716   0.522  0.7594  0.4924 -0.8762
  278MOL   H11944993   1.717   3.811   0.554  1.1642 -1.6506  2.5933
  278MOL   H12044994   1.863   4.004   0.622  1.7593  0.4604  1.3042
  278MOL   H12144995   2.001   3.890   0.592  0.9412  1.2484  1.1852
  278MOL   C12244996   1.966   3.710   0.777 -0.1922  0.2237 -0.5157
  278MOL   C12344997   1.883   3.623   0.875 -0.3000 -0.6116  0.0399
  278MOL   C12444998   1.795   3.527   0.795 -0.4282  0.0004  0.3477
  278MOL   O12544999   1.729   3.567   0.698 -0.1131 -0.2550 -0.0328
  278MOL   H12645000   2.061   3.740   0.821 -0.8811  0.2428  1.0088
  278MOL   H12745001   1.981   3.662   0.681  0.2632 -1.8029  0.5458
  278MOL   H12845002   1.824   3.684   0.943  0.9196  1.3542 -0.6462
  278MOL   H12945003   1.946   3.559   0.937 -0.3047 -2.5960 -1.9411
  278MOL   C13045004   1.801   3.385   0.829  0.2369 -0.0298 -0.4171
  278MOL   C13145005   1.737   3.296   0.727 -0.0061 -0.2346  0.4715
  278MOL   C13245006   1.723   3.151   0.774  0.1680  0.0608 -0.0907
  278MOL   O13345007   1.636   3.121   0.860 -0.5078  0.3110  0.6274
  278MOL   H13445008   1.749   3.373   0.924 -0.4612 -0.2879 -0.8305
  278MOL   H13545009   1.904   3.354   0.848  0.3562  1.1354  0.9133
  278MOL   H13645010   1.793   3.298   0.634  0.9637  1.5855  1.0777
  278MOL   H13745011   1.634   3.324   0.703  0.0333 -1.8031 -1.6446
  278MOL   C13845012   1.812   3.042   0.701 -1.2273  0.0360 -0.5348
  278MOL   C13945013   1.746   2.899   0.701 -0.1005 -0.4116 -0.6187
  278MOL   C14045014   1.639   2.871   0.593 -0.8490 -0.2449  0.2745
  278MOL   O14145015   1.570   2.964   0.555 -0.0695  0.4472  0.0980
  278MOL   H14245016   1.899   3.031   0.765 -0.6175 -2.7992 -1.7347
  278MOL   H14345017   1.855   3.071   0.605 -0.8607  0.6121 -0.1919
  278MOL   H14445018   1.706   2.889   0.803  2.2673 -0.7587  0.2969
  278MOL   H14545019   1.830   2.832   0.688 -0.5792 -1.0327 -0.5163
  278MOL   C14645020   1.626   2.725   0.559 -0.3610  0.4659  0.2581
  278MOL   C14745021   1.758   2.669   0.493  0.0032  0.0693 -0.3038
  278MOL   C14845022   1.743   2.651   0.341  0.3566  0.1821 -0.0569
  278MOL   O14945023   1.637   2.630   0.290  0.1573  0.0648  0.1471
  278MOL   H15045024   1.541   2.708   0.494 -0.1962 -0.8837  0.3926
  278MOL   H15145025   1.609   2.674   0.653 -0.3334  2.4599  1.3792
  278MOL   H15245026   1.801   2.574   0.525  1.0710  0.7619  0.3363
  278MOL   H15345027   1.842   2.737   0.511  2.8303 -3.8720  2.0296
  278MOL   C15445028   1.874   2.654   0.261 -0.1607  0.1056 -0.0492
  278MOL   C15545029   1.860   2.579   0.129 -0.0203 -0.1053 -0.0715
  278MOL   C15645030   1.995   2.568   0.061 -0.2821 -0.6251 -0.0188
  278MOL   O15745031   2.084   2.491   0.101 -0.4090  0.2486  0.2007
  278MOL   H15845032   1.963   2.615   0.309  0.6554 -1.5667 -2.8062
  278MOL   H15945033   1.887   2.762   0.252 -1.2821  0.1365 -1.3618
  278MOL   H16045034   1.792   2.622   0.056  1.1721 -0.2193 -1.2703
  278MOL   H16145035   1.812   2.482   0.145 -0.3887  0.1103  0.1093
  278MOL   H16245036   1.996   2.638   7.837 -3.3239 -0.7227 -0.2037
  279MOL     C145037   2.870   6.255   0.528  1.3755 -0.6292 -0.0687
  279MOL     C245038   2.726   6.299   0.511  0.0859  0.4090 -0.0560
  279MOL     C345039   2.718   6.440   0.439 -0.0599  0.3038 -0.0319
  279MOL     O445040   2.809   6.524   0.454  0.0157  0.1792 -0.4738
  279MOL     H545041   2.864   6.164   0.587  1.8265 -0.8907 -0.4238
  279MOL     H645042   2.928   6.240   0.437  0.2992 -0.2520 -0.8222
  279MOL     H745043   2.673   6.306   0.606  2.0264 -2.2770  1.2889
  279MOL     H845044   2.670   6.226   0.452 -0.2801  0.5690  0.0965
  279MOL     H945045   2.926   6.323   0.593 -1.2591  0.4386  1.1585
  279MOL    C1045046   2.592   6.470   0.352  0.2187 -0.2171 -0.1864
  279MOL    C1145047   2.567   6.619   0.333 -0.0315  0.1165 -0.0462
  279MOL    C1245048   2.444   6.643   0.249  0.4180  0.1636 -0.0569
  279MOL    O1345049   2.398   6.545   0.184  0.0546  0.3871 -0.2486
  279MOL    H1445050   2.516   6.417   0.409 -0.4489 -0.7937 -1.6012
  279MOL    H1545051   2.582   6.411   0.261 -0.6618 -0.2866 -0.0518
  279MOL    H1645052   2.647   6.661   0.274  0.0003  0.6380  0.3663
  279MOL    H1745053   2.564   6.680   0.423  2.5417 -0.4587  0.4570
  279MOL    C1845054   2.380   6.784   0.230 -0.2630 -0.0793 -0.3627
  279MOL    C1945055   2.329   6.801   0.086  0.1676 -0.0151  0.3752
  279MOL    C2045056   2.434   6.850   7.849  0.7144 -0.0280 -0.2359
  279MOL    O2145057   2.529   6.916   0.030  0.1370  0.5719  0.2933
  279MOL    H2245058   2.451   6.862   0.257 -0.2950 -0.5365  1.1092
  279MOL    H2345059   2.290   6.788   0.292  1.9448 -2.0347  3.1686
  279MOL    H2445060   2.245   6.870   0.084 -0.1562 -0.4252 -0.4192
  279MOL    H2545061   2.296   6.704   0.048 -1.6112  0.0413  1.6841
  279MOL    C2645062   2.409   6.820   7.703 -0.0092 -0.2659  0.1018
  279MOL    C2745063   2.487   6.913   7.596  0.4241 -0.0240 -0.0134
  279MOL    C2845064   2.588   6.847   7.507  0.6903 -0.8545 -0.2062
  279MOL    O2945065   2.641   6.740   7.542  0.0559 -0.0403 -0.2862
  279MOL    H3045066   2.303   6.826   7.677  0.6005  0.3057 -2.3480
  279MOL    H3145067   2.437   6.715   7.691 -0.4234 -0.3726  0.0515
  279MOL    H3245068   2.559   6.975   7.649  4.0456 -2.9388 -1.3091
  279MOL    H3345069   2.426   6.992   7.551  2.7625  2.2726  0.7372
  279MOL    C3445070   2.633   6.919   7.377  0.4281  0.2902  0.5382
  279MOL    C3545071   2.709   6.826   7.283 -0.7420  0.8266 -0.3413
  279MOL    C3645072   2.864   6.861   7.293  0.2842  0.3110  0.0184
  279MOL    O3745073   2.894   6.970   7.336 -0.2526 -0.2086  0.0874
  279MOL    H3845074   2.671   7.016   7.409  0.5311  0.6994 -0.7902
  279MOL    H3945075   2.541   6.935   7.321 -0.5086 -0.7575  1.7330
  279MOL    H4045076   2.697   6.846   7.176 -0.9072  1.3165 -0.2319
  279MOL    H4145077   2.701   6.719   7.301  1.2089  1.0285  1.8428
  279MOL    C4245078   2.968   6.761   7.249 -0.0783 -0.2019 -0.3829
  279MOL    C4345079   3.104   6.829   7.228  0.4130 -0.4210 -0.4496
  279MOL    C4445080   3.148   6.822   7.077  0.5837 -0.5259 -0.5145
  279MOL    O4545081   3.231   6.739   7.044  0.2362 -0.4905  0.4202
  279MOL    H4645082   2.934   6.703   7.163  0.9221 -1.9151  0.3406
  279MOL    H4745083   2.978   6.699   7.338  0.6358  0.8634  0.2832
  279MOL    H4845084   3.187   6.774   7.272  1.1972 -0.0614 -1.4588
  279MOL    H4945085   3.111   6.932   7.263  1.7433 -1.2445  1.7881
  279MOL    C5045086   3.098   6.930   6.983  0.1970 -0.1563  0.6765
  279MOL    C5145087   3.162   6.921   6.842  0.2438  0.1700  0.4450
  279MOL    C5245088   3.286   7.002   6.821  0.1653 -0.0778  0.0388
  279MOL    O5345089   3.286   7.114   6.871  0.0798  0.4451  0.0148
  279MOL    H5445090   3.123   7.019   7.040  1.6041 -0.1078  0.0097
  279MOL    H5545091   2.990   6.924   6.978  0.0553  1.8270  1.0651
  279MOL    H5645092   3.092   6.965   6.771  1.7696 -1.0607 -1.8905
  279MOL    H5745093   3.185   6.819   6.810 -0.5149 -1.0626  3.5830
  279MOL    C5845094   3.396   6.942   6.722 -0.1493 -0.6274 -0.5234
  279MOL    C5945095   3.523   7.031   6.731 -0.3361 -0.1286  0.3128
  279MOL    C6045096   3.518   7.164   6.653 -0.9517  0.4614 -0.3596
  279MOL    O6145097   3.464   7.180   6.548  0.1618 -0.5050 -0.1958
  279MOL    H6245098   3.353   6.959   6.623  0.6389 -1.8437 -1.0974
  279MOL    H6345099   3.412   6.836   6.744 -0.5396 -0.4381  0.7016
  279MOL    H6445100   3.613   6.981   6.698 -1.0412 -1.2790  0.1045
  279MOL    H6545101   3.547   7.056   6.835  0.7714 -1.9007  0.5034
  279MOL    C6645102   3.597   7.274   6.723  0.5140  0.1601 -0.2873
  279MOL    C6745103   3.500   7.383   6.778 -0.3099  0.3178  0.0220
  279MOL    C6845104   3.502   7.399   6.933  0.5780 -0.3247 -0.1367
  279MOL    O6945105   3.521   7.303   7.003  0.4617  0.7014  0.0239
  279MOL    H7045106   3.654   7.315   6.641  0.7325 -1.3850 -0.9211
  279MOL    H7145107   3.673   7.242   6.794 -0.0082  0.4084  0.3914
  279MOL    H7245108   3.399   7.368   6.741 -0.1873 -0.9134  0.1803
  279MOL    H7345109   3.530   7.477   6.731  0.7299 -0.0684 -0.1172
  279MOL    C7445110   3.461   7.526   7.000 -0.0634  0.1940  0.5706
  279MOL    C7545111   3.357   7.513   7.107 -0.0624 -0.5630  0.0634
  279MOL    C7645112   3.210   7.500   7.057 -0.3910 -0.8538  0.5871
  279MOL    O7745113   3.186   7.486   6.940 -0.2005  0.1219  0.2093
  279MOL    H7845114   3.416   7.595   6.928  0.3523  2.3991  2.3768
  279MOL    H7945115   3.549   7.576   7.039 -0.2911  2.0269 -1.1910
  279MOL    H8045116   3.350   7.612   7.153 -0.6563 -0.4215 -0.3191
  279MOL    H8145117   3.382   7.445   7.189  1.3738 -0.5182 -0.3271
  279MOL    C8245118   3.111   7.490   7.166 -0.5898  0.1866 -1.1467
  279MOL    C8345119   2.986   7.425   7.116  0.0260  0.1539 -0.1673
  279MOL    C8445120   2.988   7.275   7.103  1.0041 -0.0216 -0.0336
  279MOL    O8545121   3.053   7.205   7.183  0.4497 -0.4587  0.2286
  279MOL    H8645122   3.097   7.591   7.204 -1.1089 -0.3357  0.0771
  279MOL    H8745123   3.152   7.426   7.245 -0.6020  0.2007 -1.1290
  279MOL    H8845124   2.952   7.468   7.022 -1.2744  1.6138  0.9353
  279MOL    H8945125   2.911   7.467   7.183  0.2498  0.6912 -0.2482
  279MOL    C9045126   2.904   7.206   7.001  0.6223 -0.2045  0.3672
  279MOL    C9145127   2.782   7.140   7.055  0.6335  0.5211 -0.1472
  279MOL    C9245128   2.695   7.058   6.954  0.1823 -0.1186  0.2842
  279MOL    O9345129   2.739   6.953   6.914 -0.4313  0.2730  0.1662
  279MOL    H9445130   2.966   7.125   6.961 -0.4405 -0.7258 -0.2584
  279MOL    H9545131   2.878   7.274   6.920  0.4990  1.4049  1.7298
  279MOL    H9645132   2.722   7.214   7.109  1.3247  0.3142  0.9266
  279MOL    H9745133   2.810   7.075   7.137 -0.0490 -0.2375 -0.5121
  279MOL    C9845134   2.557   7.105   6.902 -0.3948 -0.2076 -0.3872
  279MOL    C9945135   2.438   7.011   6.923  0.1426  0.4497 -0.2551
  279MOL   C10045136   2.416   6.924   6.798  0.0854 -0.5492 -0.5802
  279MOL   O10145137   2.409   6.803   6.806 -0.0997  0.0439  0.1490
  279MOL   H10245138   2.560   7.149   6.803  0.4087 -1.9051 -1.1248
  279MOL   H10345139   2.545   7.193   6.965  1.6996  0.1568 -0.4863
  279MOL   H10445140   2.347   7.064   6.951 -0.4811 -1.1292  0.8102
  279MOL   H10545141   2.465   6.950   7.009 -2.5238  0.7420  0.8480
  279MOL   C10645142   2.375   6.988   6.669  0.0705 -0.1904 -0.8239
  279MOL   C10745143   2.242   7.072   6.672  0.1588  0.2673  0.4928
  279MOL   C10845144   2.264   7.222   6.666  0.1484  0.1469  0.6166
  279MOL   O10945145   2.335   7.276   6.752  0.0215  0.1807 -0.0566
  279MOL   H11045146   2.364   6.914   6.591 -0.5541 -0.8306 -0.1366
  279MOL   H11145147   2.461   7.051   6.647  2.1665 -1.9517  1.9990
  279MOL   H11245148   2.184   7.064   6.764  0.8668  1.5324  1.0663
  279MOL   H11345149   2.171   7.042   6.595  0.4660  0.9365 -0.0582
  279MOL   C11445150   2.195   7.309   6.567  1.0392 -0.4740  0.1919
  279MOL   C11545151   2.173   7.450   6.617  0.5583  0.7833  0.6018
  279MOL   C11645152   2.168   7.537   6.495  0.5373 -0.1852  0.2285
  279MOL   O11745153   2.131   7.501   6.379 -0.9306  0.3606 -0.2331
  279MOL   H11845154   2.106   7.251   6.541  0.5826 -0.3059  1.3385
  279MOL   H11945155   2.245   7.303   6.470  0.7983 -0.3473  0.0610
  279MOL   H12045156   2.247   7.493   6.684  2.7939 -1.2707 -0.4857
  279MOL   H12145157   2.082   7.454   6.676  0.9928 -3.1555  1.6399
  279MOL   C12245158   2.184   7.685   6.528  0.2412 -0.7278  0.2263
  279MOL   C12345159   2.229   7.775   6.405  0.2078  0.0877 -0.1770
  279MOL   C12445160   2.380   7.777   6.388 -0.2034  0.7557  0.1235
  279MOL   O12545161   2.432   7.709   6.297  0.6392  0.1596 -0.7563
  279MOL   H12645162   2.237   7.698   6.623 -1.7262  1.0702  1.1091
  279MOL   H12745163   2.086   7.721   6.558  0.7657  1.3368 -0.5045
  279MOL   H12845164   2.208   0.020   6.432 -1.4000 -0.5391  1.0933
  279MOL   H12945165   2.175   7.754   6.313  3.2756 -1.0015 -1.8237
  279MOL   C13045166   2.451   0.008   6.489 -0.2136 -0.5035 -0.2737
  279MOL   C13145167   2.600   7.829   6.493  0.0717  0.1272 -0.1160
  279MOL   C13245168   2.685   0.090   6.461 -0.2063  0.2452  0.6375
  279MOL   O13345169   2.683   0.193   6.527  0.1107 -0.1502  0.2660
  279MOL   H13445170   2.401   7.855   6.586  1.1630  1.9352  0.7732
  279MOL   H13545171   2.437   0.115   6.479 -0.7345 -0.5132  0.2558
  279MOL   H13645172   2.621   7.744   6.429  1.1090  0.2611  0.0323
  279MOL   H13745173   2.630   7.811   6.596  0.5333  0.2292 -0.2305
  279MOL   C13845174   2.781   0.076   6.344  0.2499  0.0549  0.1371
  279MOL   C13945175   2.893   0.184   6.344 -0.2297 -0.5585  0.7021
  279MOL   C14045176   3.013   0.155   6.438  0.9498  0.6086  0.3548
  279MOL   O14145177   3.051   0.039   6.449  0.4373 -0.3419  0.1461
  279MOL   H14245178   2.711   0.086   6.261  0.7131  1.0954 -0.1347
  279MOL   H14345179   2.836   7.841   6.343  0.5783  0.2476 -0.1290
  279MOL   H14445180   2.844   0.280   6.360 -0.5810 -0.1016 -2.7645
  279MOL   H14545181   2.940   0.178   6.246 -0.3351  2.7594  0.4021
  279MOL   C14645182   3.085   0.269   6.499 -0.0505 -0.8005  0.4877
  279MOL   C14745183   3.200   0.230   6.596 -0.8501 -0.2213 -0.1291
  279MOL   C14845184   3.317   0.184   6.521  0.9558 -0.3245 -0.0210
  279MOL   O14945185   3.364   0.239   6.421 -0.0931 -0.3762  0.0040
  279MOL   H15045186   3.013   0.322   6.560  1.4586  1.7056  0.1902
  279MOL   H15145187   3.117   0.336   6.419 -2.9278  1.1757  0.8989
  279MOL   H15245188   3.169   0.147   6.660  2.2263 -1.1763  0.1827
  279MOL   H15345189   3.240   0.317   6.648  1.1238 -2.8116  2.8833
  279MOL   C15445190   3.377   0.057   6.574  0.1616  0.1954  0.5637
  279MOL   C15545191   3.529   0.050   6.550  0.2864 -0.0213  0.2208
  279MOL   C15645192   3.596   7.775   6.570 -0.5117  0.0355 -0.1361
  279MOL   O15745193   3.550   7.686   6.645 -0.4283  0.4891  0.3713
  279MOL   H15845194   3.326   7.826   6.537  0.4310  0.8462 -1.4529
  279MOL   H15945195   3.361   0.042   6.681  2.6181 -1.2770  0.7647
  279MOL   H16045196   3.569   0.120   6.623 -2.0678  2.0970 -0.4475
  279MOL   H16145197   3.548   0.084   6.448 -1.5163  0.0087 -0.1218
  279MOL   H16245198   3.699   7.760   6.539 -0.5060 -0.5603  0.1514
  280MOL     C145199   1.265   4.456   4.217  0.4461 -0.5379 -0.0882
  280MOL     C245200   1.299   4.488   4.364 -0.6474  0.0343 -0.1773
  280MOL     C345201   1.420   4.576   4.381  0.4591  1.1567  0.4602
  280MOL     O445202   1.469   4.639   4.288  0.1599 -0.0018  0.1668
  280MOL     H545203   1.264   4.546   4.156  1.5047 -0.7236 -0.4023
  280MOL     H645204   1.338   4.391   4.169  1.2986 -0.1873  0.7004
  280MOL     H745205   1.309   4.396   4.422 -0.7518  0.1773  0.0702
  280MOL     H845206   1.231   4.560   4.410 -0.1464  1.5709 -1.7611
  280MOL     H945207   1.169   4.405   4.208  1.0153 -1.9210  1.2167
  280MOL    C1045208   1.486   4.565   4.521 -0.0832 -0.2753 -0.1219
  280MOL    C1145209   1.635   4.599   4.510 -0.3631 -0.3126  0.0179
  280MOL    C1245210   1.688   4.740   4.544 -0.7181  0.1876 -0.1740
  280MOL    O1345211   1.605   4.824   4.574 -0.3614 -0.0335  0.1309
  280MOL    H1445212   1.486   4.464   4.560  1.6104 -0.0894  0.3890
  280MOL    H1545213   1.438   4.635   4.589  1.1634 -1.9034  2.4988
  280MOL    H1645214   1.674   4.579   4.411 -0.3922 -0.0920 -0.0362
  280MOL    H1745215   1.689   4.533   4.578  1.9582  2.1441  0.6385
  280MOL    C1845216   1.842   4.762   4.545 -0.3331  0.2371  0.1790
  280MOL    C1945217   1.890   4.898   4.604 -0.1722  0.1668  0.3344
  280MOL    C2045218   1.902   5.000   4.487 -0.0066 -0.8023 -0.0745
  280MOL    O2145219   1.815   5.006   4.401 -0.3640  0.3328 -0.0963
  280MOL    H2245220   1.865   4.752   4.439 -1.1470 -1.6273  0.1532
  280MOL    H2345221   1.899   4.680   4.588  0.1207 -1.0138 -2.7374
  280MOL    H2445222   1.985   4.903   4.658  1.0730  2.5874 -1.9691
  280MOL    H2545223   1.810   4.932   4.669  0.2057  0.7861  0.4832
  280MOL    C2645224   2.020   5.095   4.487  0.8292  0.0251  0.0245
  280MOL    C2745225   1.992   5.227   4.410 -0.4326  0.0653 -0.1806
  280MOL    C2845226   2.115   5.272   4.328 -0.4264  0.7653  0.2454
  280MOL    O2945227   2.204   5.188   4.291  0.2810  0.3486  0.6240
  280MOL    H3045228   2.113   5.054   4.448  0.9535  0.5420 -0.2323
  280MOL    H3145229   2.037   5.126   4.590 -2.9825 -1.9790  1.3764
  280MOL    H3245230   1.977   5.297   4.492 -2.8072  1.4700 -1.7728
  280MOL    H3345231   1.903   5.236   4.349 -1.9549  1.9492  2.2269
  280MOL    C3445232   2.107   5.420   4.285 -0.6397 -0.0035 -0.4567
  280MOL    C3545233   2.112   5.438   4.133  0.6541 -0.0996 -0.4317
  280MOL    C3645234   2.109   5.587   4.103 -0.0190 -0.6480  0.6489
  280MOL    O3745235   2.167   5.670   4.172 -0.2088  0.3129  0.0561
  280MOL    H3845236   2.198   5.462   4.328 -0.4750 -3.0616  2.3582
  280MOL    H3945237   2.028   5.470   4.341 -0.0692  1.9366 -1.3614
  280MOL    H4045238   2.024   5.398   4.083 -0.8055  1.2022  1.0474
  280MOL    H4145239   2.197   5.388   4.086  1.3852  2.3572 -1.7926
  280MOL    C4245240   2.025   5.627   3.988 -1.1451 -0.2358 -0.3134
  280MOL    C4345241   2.008   5.785   3.985 -0.7755  0.0491 -0.0769
  280MOL    C4445242   1.915   5.827   3.866 -0.7253  0.0822  0.1502
  280MOL    O4545243   1.871   5.746   3.782  0.4495  0.4652 -0.2338
  280MOL    H4645244   1.927   5.583   4.007 -1.6923  0.8867 -0.4816
  280MOL    H4745245   2.062   5.596   3.890  1.3797  1.2647  0.1190
  280MOL    H4845246   2.099   5.843   3.977 -0.1046 -0.6573  2.0302
  280MOL    H4945247   1.952   5.817   4.073 -0.3088  1.1944 -0.1954
  280MOL    C5045248   1.870   5.973   3.870  0.5137 -0.2738  0.7926
  280MOL    C5145249   1.716   5.994   3.824 -0.2849  0.2099 -0.2466
  280MOL    C5245250   1.668   6.137   3.863 -0.0683  0.4732  0.4152
  280MOL    O5345251   1.747   6.229   3.873 -1.2193  0.2424  0.0244
  280MOL    H5445252   1.933   6.033   3.804  1.4784 -2.0417  0.0951
  280MOL    H5545253   1.894   6.001   3.973  0.3004  0.6848  0.5941
  280MOL    H5645254   1.643   5.924   3.864  0.6502 -0.3415  0.5275
  280MOL    H5745255   1.715   5.984   3.716  0.8848  3.5276 -0.6070
  280MOL    C5845256   1.521   6.159   3.906 -0.0014  1.0919 -0.2824
  280MOL    C5945257   1.474   6.306   3.918 -0.0232 -0.0157 -0.1870
  280MOL    C6045258   1.479   6.364   4.061 -0.4893  0.7185  0.0618
  280MOL    O6145259   1.418   6.311   4.152  0.8309  0.7035 -0.4110
  280MOL    H6245260   1.505   6.104   3.999 -0.7672  1.0584 -0.4338
  280MOL    H6345261   1.464   6.115   3.824  0.6594  0.0218 -0.1780
  280MOL    H6445262   1.368   6.304   3.894 -0.2283 -2.3616  0.7201
  280MOL    H6545263   1.509   6.376   3.843 -2.3662  0.3764 -0.9452
  280MOL    C6645264   1.563   6.484   4.093  0.4481  0.4791 -0.5337
  280MOL    C6745265   1.672   6.453   4.195 -0.9580 -0.4368 -0.4584
  280MOL    C6845266   1.715   6.583   4.258 -0.4381  0.6030  0.1092
  280MOL    O6945267   1.635   6.676   4.276 -0.6222  0.1966 -0.1021
  280MOL    H7045268   1.493   6.562   4.126  0.9451  1.3845 -1.5896
  280MOL    H7145269   1.600   6.526   4.000 -0.7734  1.1759 -0.7250
  280MOL    H7245270   1.756   6.399   4.151  0.7755  0.4835  1.6481
  280MOL    H7345271   1.641   6.385   4.274  1.4287 -0.2174  0.7094
  280MOL    C7445272   1.856   6.586   4.315  0.6949  0.4760  0.6711
  280MOL    C7545273   1.864   6.664   4.446 -0.0196  0.6499 -0.0533
  280MOL    C7645274   1.791   6.588   4.567 -0.8500  0.1423 -0.1115
  280MOL    O7745275   1.772   6.468   4.554 -0.4780  0.4205  0.4030
  280MOL    H7845276   1.932   6.630   4.250 -1.1630  1.8240 -0.6150
  280MOL    H7945277   1.885   6.481   4.326  0.6819  0.3317 -0.6766
  280MOL    H8045278   1.825   6.765   4.436 -1.2154  0.2327  0.2667
  280MOL    H8145279   1.969   6.679   4.472  1.0982  0.5191 -4.0823
  280MOL    C8245280   1.776   6.653   4.702  0.3445  0.5342  0.0624
  280MOL    C8345281   1.678   6.584   4.795  0.2705  0.0701  0.0486
  280MOL    C8445282   1.576   6.677   4.864 -0.3997 -0.4226 -0.1019
  280MOL    O8545283   1.557   6.791   4.832 -0.5300 -0.1760 -0.7963
  280MOL    H8645284   1.748   6.758   4.694  1.4835  0.9173  0.9355
  280MOL    H8745285   1.873   6.647   4.751  0.5877  0.7067 -0.3876
  280MOL    H8845286   1.733   6.512   4.856 -0.1608  0.4138  0.8532
  280MOL    H8945287   1.617   6.520   4.730 -0.4262 -0.5272  1.2569
  280MOL    C9045288   1.506   6.611   4.985  0.0906 -0.3387 -0.2558
  280MOL    C9145289   1.463   6.707   5.097  0.5142 -0.1194 -0.0871
  280MOL    C9245290   1.312   6.726   5.107 -0.2230 -0.3591 -0.4851
  280MOL    O9345291   1.236   6.638   5.065  0.1887 -0.2609 -0.2761
  280MOL    H9445292   1.577   6.543   5.031  0.0812  0.5711  1.1185
  280MOL    H9545293   1.429   6.548   4.939 -2.7754  1.0134  2.4776
  280MOL    H9645294   1.505   6.806   5.076 -0.9838  0.4444 -0.4870
  280MOL    H9745295   1.509   6.683   5.193 -0.7709 -1.6302  0.1561
  280MOL    C9845296   1.253   6.845   5.185 -0.4401 -0.4072  0.0296
  280MOL    C9945297   1.330   6.974   5.162 -0.2699 -0.4589  0.2853
  280MOL   C10045298   1.255   7.088   5.219  0.0415 -1.0778  0.3696
  280MOL   O10145299   1.159   7.072   5.291  0.1992  0.3310 -0.6135
  280MOL   H10245300   1.245   6.818   5.290 -0.2481  2.5118  0.8428
  280MOL   H10345301   1.150   6.846   5.149 -0.0640 -0.2157 -1.0554
  280MOL   H10445302   1.338   6.983   5.054  1.4703 -0.7005  0.3801
  280MOL   H10545303   1.432   6.982   5.201 -0.4642 -0.8131  0.8778
  280MOL   C10645304   1.307   7.225   5.177 -0.4790 -0.1182  0.0681
  280MOL   C10745305   1.310   7.320   5.304  0.0834 -0.0120  0.3878
  280MOL   C10845306   1.374   7.456   5.300  0.1845 -0.0270 -0.7582
  280MOL   O10945307   1.408   7.513   5.195  0.0072 -0.2059  0.0101
  280MOL   H11045308   1.242   7.253   5.094 -0.8105  1.8473  0.9662
  280MOL   H11145309   1.401   7.201   5.128 -0.4618  1.8925 -0.9261
  280MOL   H11245310   1.330   7.251   5.386 -1.1394  0.8751  1.4350
  280MOL   H11345311   1.211   7.352   5.336  0.1070  0.1504  0.2989
  280MOL   C11445312   1.412   7.520   5.429  0.4560 -0.2334 -0.2083
  280MOL   C11545313   1.429   7.670   5.420 -0.8222  0.5102 -0.4731
  280MOL   C11645314   1.308   7.747   5.474  0.1561 -0.0604 -0.0770
  280MOL   O11745315   1.310   7.827   5.570  0.1856 -0.0383 -0.6712
  280MOL   H11845316   1.508   7.474   5.451 -0.0953 -1.5758 -0.5424
  280MOL   H11945317   1.340   7.487   5.505  0.2016  1.9413  0.5087
  280MOL   H12045318   1.458   7.714   5.325 -2.4311  2.2305 -0.1767
  280MOL   H12145319   1.522   7.676   5.477 -0.3143  0.9197 -1.3278
  280MOL   C12245320   1.187   7.749   5.382  0.9617 -0.3440 -0.1624
  280MOL   C12345321   1.048   7.726   5.453  0.5918  0.5191  1.0829
  280MOL   C12445322   1.009   7.581   5.488  0.4109 -0.6072  0.3754
  280MOL   O12545323   1.082   7.484   5.479  0.4886  0.3096  0.4665
  280MOL   H12645324   1.207   7.663   5.318 -0.2599 -2.2972  1.9760
  280MOL   H12745325   1.184   7.842   5.326 -1.2469 -1.6404 -2.2673
  280MOL   H12845326   0.975   7.767   5.382  1.1885  0.8068  0.6289
  280MOL   H12945327   1.045   7.784   5.545 -2.5672  3.4848 -0.7614
  280MOL   C13045328   0.869   7.561   5.547  0.3744  0.1287 -0.0269
  280MOL   C13145329   0.767   7.581   5.439  0.9174 -0.1132 -0.3141
  280MOL   C13245330   0.622   7.571   5.481  0.0356 -0.5492 -0.6357
  280MOL   O13345331   0.578   7.616   5.583 -0.5583  0.2604 -0.2189
  280MOL   H13445332   0.852   7.639   5.622  1.6108 -0.2838  0.6806
  280MOL   H13545333   0.859   7.462   5.591  0.3693  0.2376  0.2173
  280MOL   H13645334   0.770   7.500   5.366  1.3109 -1.0084  0.6754
  280MOL   H13745335   0.785   7.673   5.383 -0.4538  0.7476  0.6484
  280MOL   C13845336   0.520   7.533   5.379  0.4001  0.6022 -0.9508
  280MOL   C13945337   0.427   7.653   5.336  0.2835  0.6221 -0.0902
  280MOL   C14045338   0.330   7.615   5.218  0.5120  0.8496  0.4357
  280MOL   O14145339   0.278   7.508   5.203  0.1460 -0.4801  0.3745
  280MOL   H14245340   0.470   7.443   5.417 -2.4360  3.0553  1.4093
  280MOL   H14345341   0.579   7.503   5.293  0.9391 -2.6515  0.4562
  280MOL   H14445342   0.472   7.747   5.306 -0.5107  1.1734  0.4467
  280MOL   H14545343   0.357   7.684   5.413  0.0626  1.6740 -0.7093
  280MOL   C14645344   0.301   7.726   5.115 -0.4756 -0.1781 -0.5886
  280MOL   C14745345   0.279   7.682   4.974  0.8283  0.0204  0.5380
  280MOL   C14845346   0.393   7.718   4.873 -0.5588  0.5120  0.1762
  280MOL   O14945347   0.491   7.640   4.865 -0.3661 -0.7592 -0.1810
  280MOL   H15045348   0.378   7.803   5.115 -0.1079 -0.5261  1.6461
  280MOL   H15145349   0.210   7.774   5.151 -0.7272  0.4628 -2.0239
  280MOL   H15245350   0.194   7.730   4.926  0.8660  0.5576  1.0099
  280MOL   H15345351   0.250   7.577   4.974  0.9192 -0.0706 -2.3744
  280MOL   C15445352   0.380   7.853   4.812 -0.5574  0.8760 -0.2268
  280MOL   C15545353   0.254   0.011   4.722  0.0132  0.0905 -0.4404
  280MOL   C15645354   0.304   0.028   4.575  0.2009 -0.2490  0.1215
  280MOL   O15745355   0.383   0.120   4.544  0.4193  0.1109  0.1984
  280MOL   H15845356   0.467   0.022   4.752 -1.0828  0.8532 -1.0041
  280MOL   H15945357   0.372   0.064   4.895  2.4129  0.4821  0.4420
  280MOL   H16045358   0.187   0.084   4.768  0.9699  0.2560  0.7103
  280MOL   H16145359   0.197   7.777   4.731  0.8555 -0.2114  2.3443
  280MOL   H16245360   0.260   7.815   4.507 -2.3629  2.1757 -0.9040
  281MOL     C145361   0.134   1.847   1.827  0.1046 -0.0989  0.6033
  281MOL     C245362   0.185   1.731   1.737  0.0472  0.4959  0.2285
  281MOL     C345363   0.225   1.605   1.812 -0.0244 -0.0956  0.5018
  281MOL     O445364   0.214   1.601   1.931  0.1558  0.5240  0.5182
  281MOL     H545365   0.067   1.907   1.766  1.5932 -0.2714 -1.2407
  281MOL     H645366   0.072   1.801   1.905  0.5065 -0.9606  0.4224
  281MOL     H745367   0.272   1.743   1.673 -1.1608 -3.6250 -2.4149
  281MOL     H845368   0.106   1.685   1.677 -1.4615 -1.1667  3.3210
  281MOL     H945369   0.212   1.908   1.872  1.2687 -0.5696 -0.7762
  281MOL    C1045370   0.279   1.482   1.741 -0.4116 -0.3497 -0.0183
  281MOL    C1145371   0.286   1.345   1.809 -0.2452  0.1515  0.2647
  281MOL    C1245372   0.156   1.265   1.827  0.4576 -0.5236  0.6392
  281MOL    O1345373   0.050   1.308   1.792  0.0512  0.0004  0.1655
  281MOL    H1445374   0.377   1.512   1.704 -0.0154 -0.1747  1.1615
  281MOL    H1545375   0.231   1.466   1.645  2.9975 -5.1753 -1.0588
  281MOL    H1645376   0.335   1.358   1.906  0.6042 -0.4497 -0.0812
  281MOL    H1745377   0.347   1.276   1.751 -3.0924  0.4802 -3.2309
  281MOL    C1845378   0.163   1.119   1.861 -0.0336 -0.4007 -0.2874
  281MOL    C1945379   0.032   1.055   1.906  0.4097 -0.3958 -0.0871
  281MOL    C2045380   7.834   0.948   1.802 -0.1399 -0.7885 -0.7963
  281MOL    O2145381   0.048   0.871   1.743  0.5023 -0.4783  0.7724
  281MOL    H2245382   0.234   1.106   1.943  2.4416  1.7713 -2.0184
  281MOL    H2345383   0.213   1.071   1.777 -0.6974 -2.9351  0.7018
  281MOL    H2445384   7.817   1.133   1.923 -1.2087 -2.0783  0.7853
  281MOL    H2545385   0.042   1.006   2.003 -0.5423  0.8159  0.6448
  281MOL    C2645386   7.680   0.946   1.783 -1.0598  0.9371 -1.0226
  281MOL    C2745387   7.629   1.024   1.663 -0.1131  0.5047  0.2684
  281MOL    C2845388   7.589   0.925   1.549 -0.0564  0.1900 -0.1868
  281MOL    O2945389   7.625   0.810   1.549 -0.0789 -0.2532  0.0867
  281MOL    H3045390   7.641   0.982   1.879  0.9099  1.4932 -0.4081
  281MOL    H3145391   7.647   0.843   1.774 -1.0935  0.9589 -1.1459
  281MOL    H3245392   7.718   1.077   1.629 -1.1470  2.3473  0.3655
  281MOL    H3345393   7.556   1.102   1.685 -0.7446 -0.3484  1.2364
  281MOL    C3445394   7.517   0.979   1.428  0.0165  0.9764 -0.4437
  281MOL    C3545395   7.499   0.875   1.310 -0.1653  0.1219 -0.5297
  281MOL    C3645396   7.414   0.938   1.201 -0.1112  0.1313 -0.2044
  281MOL    O3745397   7.321   1.014   1.225 -0.3189  0.0301  0.5646
  281MOL    H3845398   7.569   1.070   1.398 -0.8277  1.2651 -1.0558
  281MOL    H3945399   7.416   0.997   1.464  0.2967 -0.8237  1.3861
  281MOL    H4045400   7.451   0.780   1.334  1.2696  0.2741  3.4364
  281MOL    H4145401   7.597   0.850   1.270 -0.5116 -0.5126 -0.9850
  281MOL    C4245402   7.444   0.900   1.054  0.0549 -0.2492 -0.1626
  281MOL    C4345403   7.332   0.950   0.957 -0.5509  0.1029 -0.2192
  281MOL    C4445404   7.329   0.889   0.823 -0.2278  0.1489  0.5131
  281MOL    O4545405   7.416   0.809   0.790 -0.0751 -0.6458 -0.1450
  281MOL    H4645406   7.450   0.792   1.046 -3.4760 -0.3523 -2.5898
  281MOL    H4745407   7.547   0.926   1.029 -0.8627  1.8144 -1.8823
  281MOL    H4845408   7.333   1.059   0.958 -0.5387  0.1049  1.7818
  281MOL    H4945409   7.234   0.922   0.996 -0.6287 -0.8743 -1.1116
  281MOL    C5045410   7.214   0.922   0.723 -0.0700 -0.2454  0.2947
  281MOL    C5145411   7.265   0.922   0.577 -0.0113  0.2178 -0.2977
  281MOL    C5245412   7.280   1.055   0.512 -0.0941 -0.7949 -0.0697
  281MOL    O5345413   7.387   1.109   0.487 -0.5010  0.3574  0.7659
  281MOL    H5445414   7.179   1.022   0.749  0.2583  0.2112 -0.9646
  281MOL    H5545415   7.122   0.866   0.738 -0.4037  0.5353  1.1671
  281MOL    H5645416   7.183   0.878   0.521  0.3480  2.3205 -2.5551
  281MOL    H5745417   7.351   0.859   0.552 -0.9911 -0.6906 -1.4395
  281MOL    C5845418   7.151   1.120   0.474 -0.0178 -0.2644  0.9928
  281MOL    C5945419   7.146   1.271   0.467 -0.3146  0.4725 -0.1920
  281MOL    C6045420   7.087   1.333   0.593 -0.4470  0.6210 -0.3622
  281MOL    O6145421   6.992   1.287   0.653  0.2595 -0.2923 -0.7377
  281MOL    H6245422   7.082   1.082   0.550 -0.8305 -3.1019 -1.1053
  281MOL    H6345423   7.111   1.075   0.383 -0.4480  1.6685  0.1970
  281MOL    H6445424   7.070   1.303   0.396  1.6026  2.5752 -1.3503
  281MOL    H6545425   7.237   1.313   0.424 -0.2246  0.7061  0.2125
  281MOL    C6645426   7.153   1.463   0.643 -0.5930  0.0046 -0.3993
  281MOL    C6745427   7.122   1.493   0.787 -0.1121 -0.1305 -0.2076
  281MOL    C6845428   7.202   1.406   0.885  0.1922 -0.2677  0.5029
  281MOL    O6945429   7.270   1.315   0.841 -0.0092  0.0486 -0.2077
  281MOL    H7045430   7.125   1.545   0.577 -1.0440 -0.2620 -0.5465
  281MOL    H7145431   7.260   1.446   0.632 -0.7804 -3.0151  1.6956
  281MOL    H7245432   7.016   1.488   0.811 -0.2611  0.6135 -0.7002
  281MOL    H7345433   7.160   1.593   0.808  0.7856 -0.7391  1.1997
  281MOL    C7445434   7.192   1.428   1.031 -0.5223  0.5445  0.1222
  281MOL    C7545435   7.298   1.338   1.104  0.0339  0.0134 -0.1101
  281MOL    C7645436   7.283   1.360   1.254  0.3139 -0.1318  1.1874
  281MOL    O7745437   7.175   1.389   1.307 -0.5169 -0.4675  0.1760
  281MOL    H7845438   7.089   1.431   1.067 -0.4091 -0.1260  0.5265
  281MOL    H7945439   7.232   1.529   1.028  1.2396 -0.1169  0.9174
  281MOL    H8045440   7.394   1.377   1.070  1.4518  0.3321  4.0168
  281MOL    H8145441   7.291   1.231   1.085 -2.7237 -0.3518  2.6240
  281MOL    C8245442   7.409   1.344   1.333  0.1716 -0.9113  0.2064
  281MOL    C8345443   7.397   1.396   1.474  0.2361  0.3973 -0.5206
  281MOL    C8445444   7.503   1.355   1.569 -0.4203 -0.2243  0.1528
  281MOL    O8545445   7.613   1.331   1.517  0.0608  0.0724  0.1032
  281MOL    H8645446   7.483   1.407   1.284  1.1374 -0.6066  1.9832
  281MOL    H8745447   7.447   1.242   1.326  0.7886 -0.7172  0.6986
  281MOL    H8845448   7.302   1.355   1.506  0.2794  0.1481 -0.7066
  281MOL    H8945449   7.394   1.505   1.470 -1.1946  0.3579 -0.8071
  281MOL    C9045450   7.487   1.362   1.721 -0.0363 -0.0667 -0.2982
  281MOL    C9145451   7.615   1.404   1.795  0.5830 -0.1760 -0.3346
  281MOL    C9245452   7.598   1.531   1.883  0.0445  0.0214  0.3066
  281MOL    O9345453   7.491   1.592   1.897 -0.2211  0.0192  0.5611
  281MOL    H9445454   7.454   1.264   1.756  0.2995 -0.1741 -0.2789
  281MOL    H9545455   7.401   1.427   1.738  2.6445  2.9497  2.2599
  281MOL    H9645456   7.690   1.420   1.718 -0.7782  1.9948 -1.2669
  281MOL    H9745457   7.653   1.328   1.863 -2.1618 -1.5866 -0.2918
  281MOL    C9845458   7.719   1.578   1.960  0.3462  0.3245 -0.0705
  281MOL    C9945459   7.689   1.575   2.109  0.3409  0.8693 -0.5547
  281MOL   C10045460   7.724   1.444   2.188  0.0762 -0.6100  0.6884
  281MOL   O10145461   7.762   1.344   2.128  0.4656 -0.6570 -0.0316
  281MOL   H10245462   7.749   1.681   1.940  0.8261  0.1459 -0.2861
  281MOL   H10345463   7.807   1.517   1.939  0.9072  1.0685  0.0890
  281MOL   H10445464   7.585   1.606   2.116 -0.6862 -2.8791  2.0779
  281MOL   H10545465   7.756   1.656   2.140 -0.0704  1.5042 -1.2869
  281MOL   C10645466   7.713   1.447   2.339 -0.3485 -0.6286  0.2037
  281MOL   C10745467   7.565   1.477   2.382 -0.0366 -0.3353  0.5441
  281MOL   C10845468   7.541   1.557   2.514  0.2959  0.2010 -0.3208
  281MOL   O10945469   7.623   1.558   2.608 -0.2310  0.0468  0.0572
  281MOL   H11045470   7.782   1.522   2.378  1.4882 -1.9993 -0.3669
  281MOL   H11145471   7.741   1.350   2.379  0.7904  0.2205  1.5069
  281MOL   H11245472   7.511   1.382   2.380 -2.8899  1.2477  0.2689
  281MOL   H11345473   7.529   1.541   2.302 -0.1677 -0.6435  0.3568
  281MOL   C11445474   7.405   1.626   2.533 -0.1475 -0.0102 -0.0037
  281MOL   C11545475   7.390   1.691   2.674  0.0339 -0.0630 -0.9766
  281MOL   C11645476   7.270   1.788   2.664 -0.5539 -0.4487  0.0844
  281MOL   O11745477   7.181   1.768   2.585  0.4448 -0.2956  0.5539
  281MOL   H11845478   7.324   1.553   2.539 -0.2406  0.2079  1.5379
  281MOL   H11945479   7.392   1.704   2.457 -1.7020  0.9161  1.1976
  281MOL   H12045480   7.475   1.752   2.705 -0.7053  1.1308 -1.2760
  281MOL   H12145481   7.391   1.616   2.753 -0.5759  1.9983  1.0271
  281MOL   C12245482   7.280   1.900   2.772 -0.5650 -0.4511 -0.4306
  281MOL   C12345483   7.161   1.992   2.766  0.0784  0.0417  0.9781
  281MOL   C12445484   7.036   1.933   2.831  0.2058 -0.3575 -0.0445
  281MOL   O12545485   7.049   1.846   2.911 -0.0735 -0.0736 -0.0758
  281MOL   H12645486   7.373   1.954   2.760  0.2519 -1.8626 -0.6095
  281MOL   H12745487   7.275   1.855   2.871  0.0653  2.1604  0.8182
  281MOL   H12845488   7.131   2.025   2.666 -0.5394  3.2719  2.1600
  281MOL   H12945489   7.182   2.087   2.816  0.7944 -0.1568  1.0628
  281MOL   C13045490   6.898   1.997   2.801 -0.7720 -0.2154  0.3027
  281MOL   C13145491   6.790   1.959   2.905  0.0905  0.7141 -0.2408
  281MOL   C13245492   6.651   1.928   2.853  0.5675 -0.5133 -0.6008
  281MOL   O13345493   6.637   1.928   2.735  0.6555  0.2064  0.2147
  281MOL   H13445494   6.874   1.982   2.696 -1.9660 -1.7939  0.7808
  281MOL   H13545495   6.928   2.102   2.805 -1.4619  0.0279 -0.7925
  281MOL   H13645496   6.763   2.054   2.950 -4.0034 -0.0114 -0.9450
  281MOL   H13745497   6.822   1.882   2.975 -0.4161  1.4495  0.8078
  281MOL   C13845498   6.528   1.922   2.947 -0.4806 -0.2690  0.2678
  281MOL   C13945499   6.429   2.027   2.897 -0.3176 -0.9202 -0.1099
  281MOL   C14045500   6.295   1.966   2.866 -0.3609  0.3326  0.4726
  281MOL   O14145501   6.198   1.996   2.932  0.1725  0.1662 -0.1535
  281MOL   H14245502   6.569   1.949   3.044 -1.5548 -1.1914  0.9805
  281MOL   H14345503   6.479   1.825   2.949 -0.8885 -0.0480  1.3109
  281MOL   H14445504   6.462   2.078   2.807  0.2638  1.2588  1.2936
  281MOL   H14545505   6.419   2.108   2.969 -1.7808  0.8695 -2.3008
  281MOL   C14645506   6.270   1.893   2.732 -0.2451 -0.0856  0.1249
  281MOL   C14745507   6.158   1.789   2.738 -0.5849  0.4877  1.4651
  281MOL   C14845508   6.217   1.649   2.766  0.7378 -0.2372  0.4223
  281MOL   O14945509   6.329   1.630   2.808  0.1492 -0.0158 -0.8830
  281MOL   H15045510   6.365   1.848   2.704  0.6963  0.0519  2.9461
  281MOL   H15145511   6.239   1.966   2.657 -2.0622 -1.1336 -0.1632
  281MOL   H15245512   6.091   1.793   2.652  0.2234  2.8449  0.8977
  281MOL   H15345513   6.093   1.810   2.823 -0.0440 -1.7479  2.4683
  281MOL   C15445514   6.122   1.532   2.742  0.3291 -0.3452  0.4098
  281MOL   C15545515   6.129   1.408   2.825 -0.0868  0.4909 -0.1840
  281MOL   C15645516   6.000   1.355   2.888 -0.1308 -0.2276  0.9040
  281MOL   O15745517   5.897   1.356   2.825  0.3309 -0.0671  0.2515
  281MOL   H15845518   6.133   1.501   2.638  0.9542 -2.1263  0.9824
  281MOL   H15945519   6.025   1.579   2.757  0.3323 -0.5239  0.9841
  281MOL   H16045520   6.203   1.408   2.905 -0.7209 -0.7855  0.4358
  281MOL   H16145521   6.162   1.324   2.765 -1.1334 -1.7570  2.2665
  281MOL   H16245522   6.010   1.322   2.991  1.5322 -1.8518  0.2465
  282MOL     C145523   5.668   1.265   0.332 -0.3551  0.6057 -0.0926
  282MOL     C245524   5.704   1.118   0.365  1.0624 -0.0085  0.2885
  282MOL     C345525   5.841   1.074   0.313  0.6629  0.7931  0.3308
  282MOL     O445526   5.894   1.123   0.210 -0.0332  0.1211  0.7847
  282MOL     H545527   5.749   1.333   0.305 -0.5145  0.7642 -0.1733
  282MOL     H645528   5.600   1.266   0.247 -0.5895  0.8339  0.0949
  282MOL     H745529   5.625   1.056   0.324  1.5899  0.1279 -0.9504
  282MOL     H845530   5.693   1.100   0.472 -1.5214  0.5695  0.1593
  282MOL     H945531   5.600   1.305   0.408  0.7606 -0.4947  1.5298
  282MOL    C1045532   5.894   0.950   0.384 -0.3085  0.3341 -0.6414
  282MOL    C1145533   6.049   0.946   0.406 -0.1751  0.2414  0.1596
  282MOL    C1245534   6.105   0.811   0.440 -0.4799  0.0436  0.0903
  282MOL    O1345535   6.050   0.708   0.395  0.1362  0.0094 -0.2475
  282MOL    H1445536   5.859   0.859   0.334 -0.6148  0.4485 -0.6379
  282MOL    H1545537   5.851   0.946   0.483  0.9079 -0.3059 -0.1242
  282MOL    H1645538   6.071   1.010   0.491  1.2726  0.4981 -0.4085
  282MOL    H1745539   6.097   0.982   0.316 -2.1968  0.0510 -1.0174
  282MOL    C1845540   6.231   0.803   0.521  0.5482  0.1419  0.0951
  282MOL    C1945541   6.260   0.664   0.571  1.0565  0.7122  0.3961
  282MOL    C2045542   6.356   0.593   0.472  0.3377  0.2844 -0.0360
  282MOL    O2145543   6.402   0.658   0.373  0.4361  0.2522 -0.2880
  282MOL    H2245544   6.210   0.864   0.609 -2.3027  1.0844 -1.1662
  282MOL    H2345545   6.306   0.861   0.468  1.0258 -0.8548 -0.3343
  282MOL    H2445546   6.179   0.592   0.584  1.4256  0.4907  1.5497
  282MOL    H2545547   6.311   0.672   0.667  1.8894  0.2546 -0.0107
  282MOL    C2645548   6.373   0.444   0.471  0.1837  0.6412  0.0590
  282MOL    C2745549   6.312   0.383   0.340 -0.7189 -0.5724 -0.2795
  282MOL    C2845550   6.413   0.331   0.234  0.3439  0.6397  0.2592
  282MOL    O2945551   6.533   0.366   0.231  0.1280 -0.0332 -0.1732
  282MOL    H3045552   6.317   0.392   0.548 -2.1361 -0.1306 -2.0675
  282MOL    H3145553   6.480   0.423   0.467  0.1112  0.4971 -1.7945
  282MOL    H3245554   6.238   0.452   0.299 -0.6942 -0.6254 -0.4117
  282MOL    H3345555   6.253   0.297   0.368 -1.6123  0.7678  2.1097
  282MOL    C3445556   6.364   0.243   0.118 -1.0482 -0.4040  0.6626
  282MOL    C3545557   6.378   0.307   7.841  0.4053 -0.1024 -0.3755
  282MOL    C3645558   6.277   0.417   7.813 -0.1627 -0.4302 -0.7168
  282MOL    O3745559   6.232   0.487   0.046  0.0861 -0.1874 -0.0237
  282MOL    H3845560   6.261   0.218   0.142 -2.1347  1.7828 -1.5303
  282MOL    H3945561   6.424   0.152   0.116 -0.6511 -0.1223 -1.8900
  282MOL    H4045562   6.359   0.237   7.760 -0.0414 -1.5938  0.9974
  282MOL    H4145563   6.480   0.344   7.831  0.5524 -0.4009  0.0106
  282MOL    C4245564   6.270   0.463   7.667 -0.1819  0.0154 -0.1663
  282MOL    C4345565   6.167   0.380   7.588 -0.2583 -0.2321  0.5708
  282MOL    C4445566   6.019   0.410   7.615 -0.9199 -0.5717 -0.3085
  282MOL    O4545567   5.978   0.527   7.634 -0.3772  0.0160  0.1964
  282MOL    H4645568   6.363   0.442   7.613  1.1584  0.0709  2.0804
  282MOL    H4745569   6.246   0.569   7.673  3.3316  0.8540  0.0951
  282MOL    H4845570   6.188   0.273   7.591  1.2687  0.0651  1.0913
  282MOL    H4945571   6.179   0.399   7.482 -1.9427  0.2772  0.4670
  282MOL    C5045572   5.921   0.295   7.623 -0.1261 -0.7188  0.4046
  282MOL    C5145573   5.886   0.263   7.769 -0.6248 -0.2754  0.4617
  282MOL    C5245574   5.804   0.135   7.771  0.1517  0.4214  0.1670
  282MOL    O5345575   5.860   0.027   7.740  0.1760 -0.1473  0.3209
  282MOL    H5445576   5.941   0.210   7.558  3.3654  0.0045  0.4307
  282MOL    H5545577   5.829   0.333   7.580  1.2507  3.9377  1.3339
  282MOL    H5645578   5.840   0.355   7.805 -0.1889  0.1150  0.0198
  282MOL    H5745579   5.967   0.241   7.838 -0.3538  0.6123  0.4272
  282MOL    C5845580   5.654   0.152   7.790  0.0679 -0.2194  0.1856
  282MOL    C5945581   5.558   0.031   7.751 -0.2112 -1.1110 -0.8090
  282MOL    C6045582   5.519   7.809   0.015 -0.4377 -0.0968 -0.2607
  282MOL    O6145583   5.568   7.830   0.125 -0.3048  0.8715 -0.2401
  282MOL    H6245584   5.610   0.220   7.716  1.5312 -0.0534 -0.5368
  282MOL    H6345585   5.631   0.190   0.031  3.3825  2.6071 -0.0166
  282MOL    H6445586   5.599   7.830   7.671  3.7073 -0.6335  0.7527
  282MOL    H6545587   5.464   0.062   7.706 -1.4372 -0.4351  2.0654
  282MOL    C6645588   5.409   7.704   7.849  0.8419 -0.7888  0.4408
  282MOL    C6745589   5.343   7.660   0.115  0.7611  0.1223 -0.5118
  282MOL    C6845590   5.227   7.748   0.166 -0.4893  0.3397 -0.3735
  282MOL    O6945591   5.164   7.825   0.084  0.3678  0.6242 -0.2565
  282MOL    H7045592   5.456   7.609   7.825  1.5212  0.3136 -2.8436
  282MOL    H7145593   5.342   7.727   7.766  2.0828 -1.6104 -0.7881
  282MOL    H7245594   5.414   7.653   0.197  0.5499 -0.6774 -0.3933
  282MOL    H7345595   5.290   7.565   0.117 -0.0056  0.5531  0.5953
  282MOL    C7445596   5.187   7.736   0.313 -0.5347  0.2812  0.2243
  282MOL    C7545597   5.040   7.767   0.341  0.0725 -0.0899  0.0777
  282MOL    C7645598   5.024   0.011   0.453  1.0380  0.4179 -0.4955
  282MOL    O7745599   5.097   7.853   0.552  0.7371 -0.4866  0.0884
  282MOL    H7845600   5.254   7.797   0.374 -0.7358  0.2874  0.4444
  282MOL    H7945601   5.204   7.639   0.358  0.1726  0.1695 -0.2815
  282MOL    H8045602   4.998   7.674   0.379 -1.0829  0.3723 -0.0713
  282MOL    H8145603   4.985   7.802   0.254  0.3683  1.5223  0.5255
  282MOL    C8245604   4.919   0.120   0.440  0.2948 -0.6175 -0.2925
  282MOL    C8345605   4.941   0.249   0.525  0.1170 -0.6673  0.6342
  282MOL    C8445606   4.993   0.370   0.442  0.7314 -0.1878 -0.8205
  282MOL    O8545607   4.978   0.372   0.316  0.7797 -0.7719  0.3199
  282MOL    H8645608   4.824   0.086   0.481 -0.0832  1.5263  0.7051
  282MOL    H8745609   4.900   0.135   0.334 -2.5028 -1.8187 -0.0125
  282MOL    H8845610   5.004   0.224   0.609 -0.7589  0.2168  1.5660
  282MOL    H8945611   4.845   0.275   0.571  0.8765 -2.4084  3.2897
  282MOL    C9045612   5.061   0.485   0.521 -0.7231 -0.2325  0.0244
  282MOL    C9145613   5.026   0.634   0.479  0.3747 -0.6240  0.0548
  282MOL    C9245614   4.909   0.698   0.552 -0.0481 -1.0247 -0.1027
  282MOL    O9345615   4.831   0.634   0.610 -0.0718 -0.5718  0.0418
  282MOL    H9445616   5.168   0.464   0.519 -0.5243  0.6953  0.5478
  282MOL    H9545617   5.037   0.475   0.627 -2.1027  2.0203 -0.0367
  282MOL    H9645618   5.003   0.636   0.372 -1.6781 -0.3299  0.4690
  282MOL    H9745619   5.114   0.698   0.480 -0.4459  0.5614 -1.2741
  282MOL    C9845620   4.893   0.846   0.531  0.6506 -0.2161 -0.7359
  282MOL    C9945621   4.768   0.901   0.606  0.2318  0.4398 -0.6184
  282MOL   C10045622   4.779   1.048   0.649 -0.2925  0.2283  0.2990
  282MOL   O10145623   4.748   1.136   0.571 -0.1783 -0.0510  0.4414
  282MOL   H10245624   4.866   0.858   0.426 -0.7293  0.5702 -0.3079
  282MOL   H10345625   4.984   0.898   0.561 -0.0490  0.0676  0.9547
  282MOL   H10445626   4.743   0.849   0.698  0.2629  0.5831 -0.5301
  282MOL   H10545627   4.687   0.879   0.537 -1.2100  0.3525  1.0749
  282MOL   C10645628   4.838   1.083   0.785  0.4488 -0.1309  0.4710
  282MOL   C10745629   4.721   1.069   0.894  0.0347  0.3814 -0.0102
  282MOL   C10845630   4.674   1.200   0.963  0.1808  0.3301 -0.2609
  282MOL   O10945631   4.721   1.312   0.929 -1.3073  0.2880  0.0341
  282MOL   H11045632   4.884   1.182   0.781  1.2658 -0.5299 -0.3319
  282MOL   H11145633   4.911   1.003   0.800 -1.0011 -1.4204  0.7416
  282MOL   H11245634   4.757   1.007   0.976 -0.5748  0.3204  0.2102
  282MOL   H11345635   4.625   1.027   0.863 -0.9913  0.7017  2.5840
  282MOL   C11445636   4.587   1.177   1.085 -0.1646 -0.1023  0.5164
  282MOL   C11545637   4.483   1.285   1.101 -0.3843  0.6212  0.2619
  282MOL   C11645638   4.466   1.332   1.249  0.0865 -0.8548  0.2485
  282MOL   O11745639   4.557   1.329   1.332  0.2430 -0.3055  0.1977
  282MOL   H11845640   4.641   1.161   1.179  0.2384  0.9467  0.4668
  282MOL   H11945641   4.531   1.088   1.055 -3.0730  1.4709  1.1075
  282MOL   H12045642   4.385   1.260   1.063  0.5040 -0.7826 -1.1540
  282MOL   H12145643   4.512   1.383   1.062 -0.0164  0.6703  0.6479
  282MOL   C12245644   4.323   1.387   1.281 -0.5957 -0.0083 -0.3211
  282MOL   C12345645   4.253   1.338   1.405  0.4855  0.4309 -0.0003
  282MOL   C12445646   4.137   1.250   1.367 -0.2244 -0.4106 -0.4941
  282MOL   O12545647   4.134   1.187   1.262  0.3808  0.5148  0.8612
  282MOL   H12645648   4.260   1.372   1.192  1.3316 -1.3484 -1.5012
  282MOL   H12745649   4.329   1.495   1.294 -0.3321 -0.3012  2.1626
  282MOL   H12845650   4.233   1.418   1.476 -2.8139 -0.8767  0.6695
  282MOL   H12945651   4.323   1.274   1.459 -3.2115 -2.2673  1.8692
  282MOL   C13045652   4.024   1.240   1.471 -0.0713 -0.1288 -0.3871
  282MOL   C13145653   3.892   1.186   1.412 -0.8236 -0.1938  0.2235
  282MOL   C13245654   3.771   1.221   1.503 -0.4893  0.6447  0.4086
  282MOL   O13345655   3.778   1.303   1.596  0.0925 -0.1088 -0.9126
  282MOL   H13445656   4.006   1.341   1.508 -0.1940 -1.0382  2.1234
  282MOL   H13545657   4.059   1.182   1.556 -0.7393  0.6811  0.4451
  282MOL   H13645658   3.886   1.078   1.394  1.5542 -0.6501  2.0112
  282MOL   H13745659   3.869   1.234   1.317  1.7499  0.5453 -0.0638
  282MOL   C13845660   3.648   1.130   1.472 -0.1662 -0.5991 -0.0464
  282MOL   C13945661   3.514   1.172   1.548  0.1070  0.2242  0.4429
  282MOL   C14045662   3.384   1.131   1.471  0.0442  0.4139 -0.9165
  282MOL   O14145663   3.397   1.062   1.371 -0.1028 -0.5364 -0.5924
  282MOL   H14245664   3.681   1.030   1.503  0.1778 -0.2323  0.7944
  282MOL   H14345665   3.641   1.119   1.364  1.3183 -1.4307 -0.0686
  282MOL   H14445666   3.501   1.277   1.572  2.1244  0.2052  1.8034
  282MOL   H14545667   3.504   1.125   1.646 -3.5364  0.7621  0.3920
  282MOL   C14645668   3.250   1.185   1.524 -0.0799 -0.0531 -0.3290
  282MOL   C14745669   3.151   1.212   1.415 -0.1171  0.6886 -0.4355
  282MOL   C14845670   3.154   1.358   1.372  0.2905  0.1334  0.1284
  282MOL   O14945671   3.156   1.455   1.448  0.2393  0.5111 -0.1585
  282MOL   H15045672   3.270   1.280   1.575  1.2144  0.5968 -1.9799
  282MOL   H15145673   3.214   1.111   1.595 -0.3807 -0.3102 -0.7453
  282MOL   H15245674   3.052   1.217   1.460 -0.5797 -0.7846 -1.2336
  282MOL   H15345675   3.158   1.138   1.335  0.4351 -1.0004  1.1383
  282MOL   C15445676   3.164   1.385   1.218 -1.2850  0.2554 -0.5342
  282MOL   C15545677   3.121   1.523   1.176  0.5200 -0.4513  1.2478
  282MOL   C15645678   3.231   1.626   1.152  0.1242  0.5547  0.0212
  282MOL   O15745679   3.294   1.665   1.248 -0.5929  0.0605  0.2410
  282MOL   H15845680   3.121   1.298   1.169 -2.8346  0.1998  0.8619
  282MOL   H15945681   3.273   1.379   1.210 -1.4000 -0.6234 -1.6385
  282MOL   H16045682   3.063   1.562   1.260 -1.5750 -0.2825 -0.2452
  282MOL   H16145683   3.056   1.514   1.089 -0.3087  0.8853  1.7235
  282MOL   H16245684   3.255   1.674   1.058 -0.5946  1.2643  0.1955
  283MOL     C145685   5.770   2.424   1.063  0.3942  0.0758 -0.1854
  283MOL     C245686   5.637   2.342   1.045 -0.4090  0.6625 -0.2567
  283MOL     C345687   5.559   2.397   0.923  0.1384 -0.1271  0.1235
  283MOL     O445688   5.548   2.518   0.916  0.1062  0.3053  0.8868
  283MOL     H545689   5.741   2.516   1.113 -1.5458 -1.0110  0.7923
  283MOL     H645690   5.834   2.373   1.134 -1.1150  0.3603  1.4157
  283MOL     H745691   5.569   2.349   1.129  0.4497 -1.2863  0.6359
  283MOL     H845692   5.658   2.236   1.028 -0.4211  0.4683  0.9230
  283MOL     H945693   5.834   2.443   0.977  1.4566  1.3628  0.8733
  283MOL    C1045694   5.482   2.302   0.831  0.0436 -0.1386 -0.4462
  283MOL    C1145695   5.386   2.368   0.725 -0.6508 -0.0399 -0.1297
  283MOL    C1245696   5.261   2.281   0.711  0.2939  0.2098  0.6589
  283MOL    O1345697   5.214   2.219   0.806  0.2323 -0.7605 -0.1662
  283MOL    H1445698   5.421   2.234   0.891 -1.5448  0.6736 -1.1005
  283MOL    H1545699   5.552   2.236   0.781 -1.4538 -2.6560  0.6944
  283MOL    H1645700   5.439   2.369   0.630  1.1744  0.1397  0.8727
  283MOL    H1745701   5.360   2.471   0.750  0.1642  0.3322 -0.7894
  283MOL    C1845702   5.196   2.283   0.569 -0.5092  0.9122 -0.2939
  283MOL    C1945703   5.098   2.172   0.554 -0.0679  0.1201  0.0322
  283MOL    C2045704   5.062   2.136   0.408 -0.2113  0.4287  0.7725
  283MOL    O2145705   4.975   2.201   0.352 -0.2838  0.6590  0.0237
  283MOL    H2245706   5.286   2.282   0.507  0.8836  1.6273  1.6683
  283MOL    H2345707   5.156   2.384   0.555 -1.3414  0.4739 -1.1271
  283MOL    H2445708   5.006   2.207   0.601  0.3964  0.7636  0.4697
  283MOL    H2545709   5.132   2.083   0.608  1.5997  1.4945  1.3143
  283MOL    C2645710   5.126   2.010   0.349 -0.1983  0.5625  0.4391
  283MOL    C2745711   5.046   1.951   0.228 -0.0169 -0.4648  0.2602
  283MOL    C2845712   5.043   1.794   0.229 -0.2460  0.0163  0.1796
  283MOL    O2945713   5.019   1.734   0.329  0.1441  0.3542 -0.2879
  283MOL    H3045714   5.139   1.931   0.423 -1.8148  0.6385  0.8178
  283MOL    H3145715   5.226   2.041   0.317 -0.0410  0.8790  1.2358
  283MOL    H3245716   5.078   1.986   0.130  1.4466  0.0791  0.9175
  283MOL    H3345717   4.942   1.980   0.233 -0.3087 -0.8234 -2.7870
  283MOL    C3445718   5.060   1.718   0.101  0.8191 -0.3136 -0.3520
  283MOL    C3545719   4.945   1.614   0.090 -0.0980 -0.1585  0.0049
  283MOL    C3645720   4.829   1.665   0.013 -0.5881 -0.2884  0.7850
  283MOL    O3745721   4.812   1.781   7.846 -0.5121 -0.1369  0.1435
  283MOL    H3845722   5.156   1.668   0.103  0.5928 -0.7283  0.1244
  283MOL    H3945723   5.066   1.790   0.018 -2.0450  0.2557 -0.1420
  283MOL    H4045724   4.905   1.575   0.184 -0.7757 -0.4542 -0.4028
  283MOL    H4145725   4.988   1.526   0.043 -0.9007 -1.0066  0.8546
  283MOL    C4245726   4.731   1.556   7.849 -0.1086 -0.6421  1.2481
  283MOL    C4345727   4.646   1.558   7.717  0.2930 -0.0677 -0.2543
  283MOL    C4445728   4.491   1.573   7.748 -0.2117  0.4897  0.6323
  283MOL    O4545729   4.434   1.532   7.847  0.2283 -0.5010 -0.3388
  283MOL    H4645730   4.663   1.553   0.075 -0.8050  0.3201  0.7357
  283MOL    H4745731   4.790   1.464   7.853 -0.3679 -0.7585  2.5940
  283MOL    H4845732   4.670   1.468   7.661 -0.0278 -0.6821  0.5873
  283MOL    H4945733   4.676   1.652   7.672 -0.5611  0.0933 -0.4783
  283MOL    C5045734   4.406   1.637   7.633 -0.1405 -0.4353  0.2608
  283MOL    C5145735   4.289   1.722   7.681  0.2159  0.2201 -0.0461
  283MOL    C5245736   4.320   1.869   7.682 -0.0067  0.8226  0.0533
  283MOL    O5345737   4.418   1.914   7.624 -0.4029 -0.1614 -0.0605
  283MOL    H5445738   4.370   1.554   7.572  0.2724  0.3021 -1.0067
  283MOL    H5545739   4.479   1.693   7.574  0.3446 -0.0573  1.2021
  283MOL    H5645740   4.263   1.683   7.779  0.8103  1.0433  0.4369
  283MOL    H5745741   4.204   1.683   7.623  0.7396 -0.7792 -0.1475
  283MOL    C5845742   4.226   1.963   7.743  0.8019  0.0046 -0.0453
  283MOL    C5945743   4.296   2.069   7.825  0.6276  0.0888 -0.0671
  283MOL    C6045744   4.234   2.207   7.814 -0.0446  0.2570 -0.2531
  283MOL    O6145745   4.116   2.224   7.788  0.2689  0.4798 -0.3505
  283MOL    H6245746   4.158   1.908   7.808  3.8515  0.3111  3.5602
  283MOL    H6345747   4.166   2.008   7.664  0.0982 -1.3160 -0.2784
  283MOL    H6445748   4.399   2.079   7.792  0.8686  2.9411  1.4273
  283MOL    H6545749   4.283   2.042   0.071  0.6222  0.4234  0.0195
  283MOL    C6645750   4.321   2.329   7.830  0.7626  0.2092  0.3912
  283MOL    C6745751   4.245   2.460   7.792 -0.4715 -0.0735 -0.2887
  283MOL    C6845752   4.295   2.577   0.020  0.3079  0.0169 -0.2917
  283MOL    O6945753   4.246   2.599   0.134 -0.2860 -0.0577 -0.3001
  283MOL    H7045754   4.413   2.312   7.774  0.0275 -0.2550 -0.6919
  283MOL    H7145755   4.352   2.344   0.075 -0.0056 -0.4945  0.7238
  283MOL    H7245756   4.139   2.458   7.821 -0.8360 -0.7553 -1.6504
  283MOL    H7345757   4.252   2.498   7.690  1.3556  2.3735  0.6915
  283MOL    C7445758   4.409   2.658   7.813  0.0264 -0.8531 -0.1727
  283MOL    C7545759   4.536   2.670   0.048 -0.3360 -0.7054 -0.3491
  283MOL    C7645760   4.531   2.787   0.148  0.4223  0.2300  0.5396
  283MOL    O7745761   4.439   2.868   0.134 -0.0019 -0.3983  0.1706
  283MOL    H7845762   4.378   2.760   7.789  2.0982 -0.7927 -2.6801
  283MOL    H7945763   4.433   2.611   7.718 -0.4382  0.8643 -1.1496
  283MOL    H8045764   4.625   2.670   7.844  0.3275 -1.2495  0.5788
  283MOL    H8145765   4.538   2.581   0.111  0.5015 -0.8425 -0.5644
  283MOL    C8245766   4.622   2.791   0.268  0.0976  0.8739  0.2512
  283MOL    C8345767   4.630   2.925   0.349 -0.7608  0.3127  0.4732
  283MOL    C8445768   4.624   2.903   0.498  0.4443 -0.0469 -0.6357
  283MOL    O8545769   4.578   2.796   0.542 -0.2994  0.0403  0.0017
  283MOL    H8645770   4.724   2.774   0.232 -0.3251  0.9902 -0.9960
  283MOL    H8745771   4.598   2.706   0.331 -1.2342  1.2711  0.2817
  283MOL    H8845772   4.564   3.005   0.317 -1.7985  0.0760  1.9588
  283MOL    H8945773   4.734   2.954   0.331 -1.8240  2.7409 -2.0408
  283MOL    C9045774   4.681   3.004   0.591 -0.0332 -0.1194  0.1609
  283MOL    C9145775   4.654   2.973   0.739  0.1680  0.1032  0.7594
  283MOL    C9245776   4.767   3.024   0.832 -0.3742  0.4024  0.1978
  283MOL    O9345777   4.866   3.082   0.791 -0.0153 -0.4667  0.3360
  283MOL    H9445778   4.619   3.091   0.572  0.9116  0.6148  0.4531
  283MOL    H9545779   4.786   3.027   0.575 -0.0312  0.3712  0.8575
  283MOL    H9645780   4.639   2.868   0.765 -0.3043 -0.4633 -1.6824
  283MOL    H9745781   4.556   3.018   0.757 -0.5656 -0.9508 -0.4522
  283MOL    C9845782   4.737   2.986   0.972  0.9032 -0.7833  0.8453
  283MOL    C9945783   4.856   2.947   1.063 -0.2383  0.3687 -0.6582
  283MOL   C10045784   4.900   2.800   1.046 -0.4183  0.0094  0.5541
  283MOL   O10145785   4.966   2.762   0.950 -0.2704  0.5604 -0.0885
  283MOL   H10245786   4.675   2.896   0.970 -0.3038  0.0499 -1.2861
  283MOL   H10345787   4.670   3.058   1.019 -3.6417 -3.8592 -0.5953
  283MOL   H10445788   4.828   2.973   1.165  1.3094  0.1801 -0.1741
  283MOL   H10545789   4.934   3.019   1.039 -0.3223  0.3346 -1.0535
  283MOL   C10645790   4.869   2.700   1.157 -0.5846 -0.9407 -0.0797
  283MOL   C10745791   4.842   2.563   1.104  0.2403  0.7996  0.2527
  283MOL   C10845792   4.767   2.477   1.205  0.1295 -0.0448 -0.4355
  283MOL   O10945793   4.670   2.520   1.272  0.1306 -0.2556  0.2585
  283MOL   H11045794   4.776   2.737   1.201 -0.4228 -0.9735  0.2993
  283MOL   H11145795   4.951   2.715   1.228  0.2280 -0.3806 -1.1309
  283MOL   H11245796   4.931   2.509   1.074 -0.5442 -0.3155 -0.1005
  283MOL   H11345797   4.788   2.553   1.010  0.0478 -0.8413  0.5256
  283MOL   C11445798   4.825   2.335   1.219 -1.6214 -0.2402 -0.2241
  283MOL   C11545799   4.786   2.259   1.342 -0.6895 -0.4780 -0.1360
  283MOL   C11645800   4.900   2.232   1.442 -1.1939 -0.5425 -0.0391
  283MOL   O11745801   5.024   2.238   1.410  0.0019  0.8035  0.3386
  283MOL   H11845802   4.932   2.346   1.202 -1.4043  0.4222  1.4179
  283MOL   H11945803   4.800   2.281   1.128  1.9477 -0.6640 -1.0116
  283MOL   H12045804   4.745   2.164   1.307 -0.5959 -1.1646  1.5810
  283MOL   H12145805   4.707   2.318   1.388  0.5440  0.2511  1.0698
  283MOL   C12245806   4.856   2.205   1.587  1.0114  0.0282 -0.2332
  283MOL   C12345807   4.961   2.230   1.705  0.3481  0.2310 -0.2908
  283MOL   C12445808   4.966   2.118   1.800 -0.1085  0.5927 -0.5488
  283MOL   O12545809   5.002   2.010   1.763 -0.1019  0.1883 -0.2892
  283MOL   H12645810   4.808   2.107   1.580  1.3825 -0.2117  0.5460
  283MOL   H12745811   4.778   2.279   1.603 -1.7749 -2.2844 -2.3084
  283MOL   H12845812   4.945   2.326   1.754 -0.5273  0.2040 -0.5073
  283MOL   H12945813   5.062   2.219   1.665 -0.0821 -2.1821 -0.7578
  283MOL   C13045814   4.907   2.141   1.934  0.6240  0.5124 -0.3037
  283MOL   C13145815   4.869   2.022   2.021  0.0517 -0.0323  0.5317
  283MOL   C13245816   4.984   1.946   2.085  0.3377  0.2712  0.2636
  283MOL   O13345817   5.042   2.004   2.176  0.1245 -0.3421  0.0876
  283MOL   H13445818   4.821   2.205   1.915 -2.5597 -3.4256  0.1004
  283MOL   H13545819   4.958   2.208   2.003 -0.2568 -0.9087  1.8051
  283MOL   H13645820   4.801   1.962   1.959  0.0346  0.4006  0.1209
  283MOL   H13745821   4.803   2.052   2.102  0.8129  0.2124  1.0574
  283MOL   C13845822   5.018   1.800   2.047  0.5679 -0.1100  0.7491
  283MOL   C13945823   5.148   1.781   1.966  0.0899 -0.0485 -0.0806
  283MOL   C14045824   5.178   1.634   1.940  0.5802 -0.2535 -0.5624
  283MOL   O14145825   5.090   1.566   1.894  0.2827 -0.3996 -0.1494
  283MOL   H14245826   4.935   1.769   1.983  0.6850  0.9739  0.0760
  283MOL   H14345827   5.018   1.732   2.132  0.4652 -1.1884 -0.0931
  283MOL   H14445828   5.232   1.821   2.022  0.4499 -1.8303  0.6572
  283MOL   H14545829   5.145   1.833   1.870 -2.2281 -0.5090 -0.2893
  283MOL   C14645830   5.318   1.575   1.970 -0.1008 -0.6115  0.2193
  283MOL   C14745831   5.333   1.434   1.909 -0.0613  0.7439 -0.6357
  283MOL   C14845832   5.374   1.431   1.766 -0.1318 -0.0160  0.3250
  283MOL   O14945833   5.363   1.533   1.698  0.0807 -0.4771 -0.4186
  283MOL   H15045834   5.322   1.566   2.079 -0.3618  1.0049  0.3754
  283MOL   H15145835   5.394   1.645   1.936  0.4059 -2.7348 -3.2978
  283MOL   H15245836   5.243   1.374   1.913 -0.3328  1.1883  0.1204
  283MOL   H15345837   5.399   1.376   1.974 -1.5906 -0.1288  0.1722
  283MOL   C15445838   5.424   1.299   1.712 -0.6448  0.1686  0.2590
  283MOL   C15545839   5.582   1.289   1.701  0.2284 -0.0345  0.1281
  283MOL   C15645840   5.634   1.224   1.574 -0.6708 -0.0646  0.5240
  283MOL   O15745841   5.755   1.208   1.547 -0.4353 -0.1684  0.0579
  283MOL   H15845842   5.380   1.270   1.616  0.8019 -0.4154 -0.2525
  283MOL   H15945843   5.388   1.213   1.769 -0.5690  1.9565  3.1052
  283MOL   H16045844   5.618   1.207   1.764  0.6954 -0.3960 -0.6065
  283MOL   H16145845   5.640   1.378   1.726  1.1551 -1.1251  1.9606
  283MOL   H16245846   5.555   1.185   1.511  1.2635  0.0161 -2.0151
  284MOL     C145847   0.342   1.996   7.425 -0.2025 -0.4495 -0.4936
  284MOL     C245848   0.235   1.963   7.527  0.5400  0.0694 -0.9451
  284MOL     C345849   0.286   1.894   7.650 -0.5915 -0.0928 -0.1150
  284MOL     O445850   0.304   1.956   7.753  0.1474 -0.7636  0.3090
  284MOL     H545851   0.290   1.986   7.330 -0.9824 -1.1562 -0.0051
  284MOL     H645852   0.373   2.099   7.440  1.1327 -0.4943 -2.7491
  284MOL     H745853   0.162   1.892   7.489  2.3024 -2.1163 -0.3809
  284MOL     H845854   0.176   2.050   7.555 -2.8029 -2.1420 -0.7600
  284MOL     H945855   0.428   1.930   7.433  0.0606  0.0134  0.6834
  284MOL    C1045856   0.301   1.744   7.652  0.0754 -0.3798  0.4767
  284MOL    C1145857   0.337   1.687   7.790 -0.1657 -0.1298 -0.1418
  284MOL    C1245858   0.304   1.542   7.806  0.6193  0.2898 -0.4992
  284MOL    O1345859   0.247   1.477   7.720  0.4223 -0.2269 -0.1824
  284MOL    H1445860   0.379   1.714   7.582 -0.9542 -1.2721 -0.3139
  284MOL    H1545861   0.202   1.706   7.624 -0.2925  1.4304 -0.7602
  284MOL    H1645862   0.265   1.736   7.856  1.5121  1.8745  0.2669
  284MOL    H1745863   0.436   1.722   7.819 -0.4028  0.3768  0.0636
  284MOL    C1845864   0.350   1.473   0.086 -0.2952  0.0870 -0.6317
  284MOL    C1945865   0.226   1.461   0.176 -0.7816 -0.2846 -0.4357
  284MOL    C2045866   0.199   1.321   0.205  0.1747  0.2386  0.0642
  284MOL    O2145867   0.221   1.275   0.316  0.5078  0.6060  0.1047
  284MOL    H2245868   0.425   1.537   0.133 -1.4151  0.7162  0.3338
  284MOL    H2345869   0.399   1.382   0.052  1.0356  0.2237  0.8956
  284MOL    H2445870   0.142   1.502   0.120  0.9206  0.2433 -2.6727
  284MOL    H2545871   0.232   1.514   0.271 -2.2956 -3.3690  1.4555
  284MOL    C2645872   0.148   1.228   0.095 -0.0628  0.5685 -0.4312
  284MOL    C2745873   0.215   1.091   0.099  0.2179  0.0317 -0.1433
  284MOL    C2845874   0.344   1.079   0.020 -0.1453 -0.1382  0.2336
  284MOL    O2945875   0.395   1.176   7.826  0.5144 -0.6969  0.2645
  284MOL    H3045876   0.163   1.269   7.854 -1.0895  0.5551 -0.5895
  284MOL    H3145877   0.041   1.232   0.110  0.1502 -0.5280  1.5079
  284MOL    H3245878   0.147   1.011   0.068  1.1008 -0.4228 -0.9524
  284MOL    H3345879   0.231   1.048   0.198  1.5079 -1.4261 -0.9639
  284MOL    C3445880   0.405   0.939   0.008  0.9324  0.4111 -0.7583
  284MOL    C3545881   0.352   0.878   7.733 -0.3832  0.7464  0.6363
  284MOL    C3645882   0.464   0.823   7.640  0.2365 -0.1566 -0.3311
  284MOL    O3745883   0.582   0.840   7.671 -0.2573 -0.0342  0.1581
  284MOL    H3845884   0.365   0.889   0.096 -1.2730 -0.8297 -2.3939
  284MOL    H3945885   0.513   0.955   0.005  1.2818 -1.8627 -1.4714
  284MOL    H4045886   0.283   0.946   7.683  1.9102  1.3223 -1.8995
  284MOL    H4145887   0.276   0.806   7.764  0.1037 -0.1029 -0.1130
  284MOL    C4245888   0.418   0.770   7.499  0.1644 -0.7766 -0.2963
  284MOL    C4345889   0.530   0.744   7.401  0.1720  0.3324 -0.0470
  284MOL    C4445890   0.512   0.824   7.278 -0.6982  0.6585  0.2740
  284MOL    O4545891   0.398   0.832   7.232  0.3361 -0.5060  0.3594
  284MOL    H4645892   0.346   0.831   7.446  0.0046  0.3077  1.1405
  284MOL    H4745893   0.370   0.673   7.512 -0.4364 -0.3584  0.5815
  284MOL    H4845894   0.518   0.644   7.361 -3.8867  1.1932 -1.2673
  284MOL    H4945895   0.621   0.770   7.455 -0.4096  1.8437  0.2351
  284MOL    C5045896   0.642   0.859   7.200 -0.0804 -0.0298  0.1285
  284MOL    C5145897   0.619   0.901   7.057  0.5758 -0.2535 -0.0938
  284MOL    C5245898   0.563   1.049   7.033  0.1727  0.7300 -0.0157
  284MOL    O5345899   0.631   1.148   7.080  0.1126 -0.2700  0.8194
  284MOL    H5445900   0.704   0.770   7.192 -1.6788 -0.9964 -1.8587
  284MOL    H5545901   0.701   0.939   7.244 -0.4271  0.4856 -0.3323
  284MOL    H5645902   0.546   0.832   7.014  0.0862 -0.0853  0.4724
  284MOL    H5745903   0.712   0.897   7.000  0.7626  3.1962 -0.1401
  284MOL    C5845904   0.451   1.065   6.928 -0.2857 -0.0137  0.7179
  284MOL    C5945905   0.401   1.205   6.933 -0.4839 -0.1297 -0.2347
  284MOL    C6045906   0.246   1.206   6.931  0.0207 -0.7473 -0.3409
  284MOL    O6145907   0.179   1.109   6.899 -0.4047  0.0860 -0.3160
  284MOL    H6245908   0.372   0.990   6.938  0.4187 -0.6357  1.7402
  284MOL    H6345909   0.492   1.048   6.828  1.7540  3.3204  0.9418
  284MOL    H6445910   0.448   1.258   6.851 -2.4584  0.7848 -0.8114
  284MOL    H6545911   0.419   1.251   7.030  0.6714 -0.4387 -0.2980
  284MOL    C6645912   0.165   1.327   6.974  0.3666 -0.3807 -0.1318
  284MOL    C6745913   0.048   1.366   6.868  0.4746 -0.5384  0.2976
  284MOL    C6845914   7.841   1.491   6.908  0.7281  0.1119  0.0702
  284MOL    O6945915   0.046   1.586   6.964 -0.1853  0.1032 -0.2127
  284MOL    H7045916   0.245   1.402   6.978 -0.4856  0.4705  2.9007
  284MOL    H7145917   0.128   1.313   7.076 -0.1896 -0.1468 -0.2988
  284MOL    H7245918   7.843   1.278   6.859  0.2214 -0.2158 -1.1019
  284MOL    H7345919   0.087   1.379   6.767 -1.3507  0.4661 -0.3002
  284MOL    C7445920   7.699   1.503   6.847 -0.1375  0.0543 -0.4765
  284MOL    C7545921   7.631   1.648   6.857 -0.2120 -0.3593 -0.0189
  284MOL    C7645922   7.496   1.669   6.790  0.1308  0.0561 -0.4892
  284MOL    O7745923   7.419   1.575   6.772  0.0363 -0.2334  1.0973
  284MOL    H7845924   7.643   1.426   6.899  0.5400  0.0976  0.3356
  284MOL    H7945925   7.698   1.487   6.739  0.7129  2.0272 -0.7973
  284MOL    H8045926   7.695   1.722   6.810  0.3726 -0.1270  1.1380
  284MOL    H8145927   7.631   1.674   6.962  0.3065 -1.1837  0.1869
  284MOL    C8245928   7.441   1.817   6.783 -0.7067  0.2331 -0.2323
  284MOL    C8345929   7.345   1.838   6.664  0.3348 -0.4285 -1.2534
  284MOL    C8445930   7.201   1.828   6.715 -0.5103  0.1880 -0.1048
  284MOL    O8545931   7.173   1.770   6.819 -0.2159  0.7518  0.6878
  284MOL    H8645932   7.533   1.868   6.758  0.2595 -0.7680  1.2007
  284MOL    H8745933   7.400   1.846   6.880  1.0621  0.3309  0.4947
  284MOL    H8845934   7.358   1.766   6.583  0.2815 -0.1813 -1.4850
  284MOL    H8945935   7.351   1.939   6.624  1.9715 -0.0158  0.0093
  284MOL    C9045936   7.085   1.881   6.624  0.3752  0.3550  0.2965
  284MOL    C9145937   6.943   1.816   6.629  0.0221 -0.1046  0.8028
  284MOL    C9245938   6.821   1.916   6.620 -0.7439  0.0686 -0.0064
  284MOL    O9345939   6.727   1.915   6.701  0.2660  0.6441  0.2570
  284MOL    H9445940   7.111   1.865   6.519 -1.7201  0.9980 -0.3506
  284MOL    H9545941   7.089   1.987   6.649 -1.3642  0.5513 -0.1807
  284MOL    H9645942   6.934   1.769   6.727 -0.1465 -2.5613 -0.3567
  284MOL    H9745943   6.938   1.743   6.548  3.0008 -0.4543  0.8796
  284MOL    C9845944   6.821   2.025   6.510 -0.1417  0.7285  0.2186
  284MOL    C9945945   6.682   2.056   6.453 -0.6072 -0.4958 -0.2786
  284MOL   C10045946   6.683   2.120   6.316 -0.6434  0.5153  0.1823
  284MOL   O10145947   6.782   2.154   6.259 -0.2851 -0.3850 -0.0980
  284MOL   H10245948   6.871   1.971   6.429 -1.8833  1.2287 -1.2317
  284MOL   H10345949   6.881   2.115   6.527  1.4721  0.0160 -1.4626
  284MOL   H10445950   6.627   2.125   6.517  0.4173  0.5057 -0.4692
  284MOL   H10545951   6.622   1.965   6.447  0.4857 -1.1380 -1.6731
  284MOL   C10645952   6.543   2.121   6.254  0.0111 -0.1077 -0.3363
  284MOL   C10745953   6.543   2.169   6.107 -0.1892  0.7851  0.4750
  284MOL   C10845954   6.434   2.096   6.025 -0.1005 -0.2592  0.1698
  284MOL   O10945955   6.392   1.991   6.056 -0.7493  0.2284 -0.1316
  284MOL   H11045956   6.481   2.193   6.308  0.7696  0.9266 -0.8457
  284MOL   H11145957   6.500   2.021   6.257 -0.2142  0.0071  0.4156
  284MOL   H11245958   6.628   2.153   6.040 -0.2347 -1.1759  0.8753
  284MOL   H11345959   6.522   2.276   6.099  0.1000  0.6952 -2.0812
  284MOL   C11445960   6.384   2.167   5.907  0.3411 -0.4502 -0.4405
  284MOL   C11545961   6.312   2.072   5.806  0.0485 -0.5007  0.8183
  284MOL   C11645962   6.235   2.149   5.703 -0.1040 -0.8585 -0.1481
  284MOL   O11745963   6.175   2.253   5.732  0.0554 -0.0657  0.7902
  284MOL   H11845964   6.471   2.211   5.859  0.5608 -2.8329 -2.3103
  284MOL   H11945965   6.321   2.252   5.936 -1.2205 -1.5096 -0.6793
  284MOL   H12045966   6.244   2.019   5.873 -1.3748 -0.3530 -0.5077
  284MOL   H12145967   6.381   2.001   5.762 -0.1404 -0.6098  0.7000
  284MOL   C12245968   6.227   2.088   5.568  0.0757 -0.4935 -0.2001
  284MOL   C12345969   6.182   2.182   5.453 -0.4749 -0.2269  0.2223
  284MOL   C12445970   6.042   2.159   5.402  0.8528  0.1248 -0.2876
  284MOL   O12545971   5.957   2.091   5.464  0.4615  0.2808  0.0704
  284MOL   H12645972   6.167   1.998   5.580 -0.1903  0.0002  2.3576
  284MOL   H12745973   6.329   2.064   5.538  0.1247 -2.0631  1.1409
  284MOL   H12845974   6.245   2.174   5.365 -1.7346 -0.8435 -0.6550
  284MOL   H12945975   6.195   2.286   5.480  0.0848 -1.1791  3.8412
  284MOL   C13045976   6.011   2.222   5.269  0.7692  0.1932 -0.7120
  284MOL   C13145977   5.862   2.259   5.237 -0.8591  0.4123 -0.5198
  284MOL   C13245978   5.847   2.356   5.121 -0.7173 -0.4763 -0.3419
  284MOL   O13345979   5.824   2.306   5.010  0.9946 -0.3180  0.0852
  284MOL   H13445980   6.058   2.177   5.181 -1.1560  0.6330 -2.0102
  284MOL   H13545981   6.061   2.318   5.271  0.0210  0.5630  0.1695
  284MOL   H13645982   5.814   2.310   5.321 -1.7742 -1.0173 -0.1611
  284MOL   H13745983   5.801   2.169   5.233 -1.8543  1.0047  0.9817
  284MOL   C13845984   5.867   2.504   5.159  0.3514  0.5302  0.2448
  284MOL   C13945985   5.917   2.603   5.053  0.1512 -0.0433 -0.6031
  284MOL   C14045986   6.065   2.582   5.023  0.7909  0.3491  0.2146
  284MOL   O14145987   6.138   2.529   5.109 -0.1667  0.1300 -0.5950
  284MOL   H14245988   5.920   2.504   5.255 -0.0933 -2.1108  0.5277
  284MOL   H14345989   5.764   2.521   5.189 -0.5619 -0.6287 -2.1697
  284MOL   H14445990   5.899   2.707   5.082  0.7218 -0.1807  0.2738
  284MOL   H14545991   5.855   2.598   4.964 -0.1214  0.8042 -0.4661
  284MOL   C14645992   6.120   2.650   4.898 -0.3197  0.5260 -0.1194
  284MOL   C14745993   6.257   2.712   4.928 -0.5413  0.1955  0.2172
  284MOL   C14845994   6.336   2.766   4.808  0.0625 -0.8790  0.4614
  284MOL   O14945995   6.410   2.696   4.740 -0.3661  0.3089 -0.0705
  284MOL   H15045996   6.054   2.727   4.856 -2.9248 -0.9507  1.1585
  284MOL   H15145997   6.134   2.568   4.828 -1.7921  0.6450 -0.5592
  284MOL   H15245998   6.307   2.630   4.981 -0.8087 -0.7818 -1.0274
  284MOL   H15345999   6.250   2.793   5.000 -0.1979  0.2631  0.1742
  284MOL   C15446000   6.312   2.911   4.769  0.4728  0.5122 -0.6264
  284MOL   C15546001   6.432   2.978   4.699  0.8481 -0.2908  0.1698
  284MOL   C15646002   6.546   3.012   4.797  0.3747  0.1608  0.5264
  284MOL   O15746003   6.513   3.062   4.907  0.2006  0.2701  0.0823
  284MOL   H15846004   6.272   2.960   4.858 -0.7533 -1.6013  0.0251
  284MOL   H15946005   6.233   2.920   4.694 -0.3526 -1.0430  0.0430
  284MOL   H16046006   6.405   3.077   4.664 -1.3374 -1.1257 -0.5676
  284MOL   H16146007   6.471   2.915   4.619  2.2509  0.8606 -0.0707
  284MOL   H16246008   6.646   3.005   4.752 -0.1748  0.0453 -0.7061
  285MOL     C146009   5.823   7.593   0.732  0.0177 -0.0714  0.4332
  285MOL     C246010   5.870   7.737   0.748  0.8427  0.8994 -0.1302
  285MOL     C346011   5.998   7.755   0.661 -0.3334 -0.3917  0.2449
  285MOL     O446012   6.071   7.662   0.618 -0.2087 -0.2859  0.1322
  285MOL     H546013   5.811   7.568   0.626  0.6283  1.0116  0.0955
  285MOL     H646014   5.896   7.518   0.763  1.7152  1.9152  1.3574
  285MOL     H746015   5.910   7.752   0.848  1.9511 -0.9363 -0.2799
  285MOL     H846016   5.786   7.805   0.731  0.3663  0.1960 -0.6234
  285MOL     H946017   5.723   7.575   0.771 -0.6964 -0.7659 -1.6263
  285MOL    C1046018   6.036   0.045   0.640 -0.4057 -0.3892 -0.2285
  285MOL    C1146019   6.179   0.069   0.676 -0.3565 -0.2588  0.6425
  285MOL    C1246020   6.217   0.181   0.758 -0.5306 -0.1676 -0.0664
  285MOL    O1346021   6.142   0.242   0.831  0.4836  0.5832  0.5498
  285MOL    H1446022   5.966   0.108   0.695 -0.1338 -0.4916  0.2355
  285MOL    H1546023   6.021   0.055   0.532  1.9996 -1.2404 -0.6716
  285MOL    H1646024   6.258   0.061   0.602  0.1642  2.2587  0.8749
  285MOL    H1746025   6.199   7.842   0.739 -0.2108 -0.2397  0.6216
  285MOL    C1846026   6.362   0.203   0.775 -0.3636 -0.2501  0.2054
  285MOL    C1946027   6.404   0.344   0.820 -0.1643  0.0703 -0.4925
  285MOL    C2046028   6.383   0.374   0.971 -0.3075  0.6111  0.0749
  285MOL    O2146029   6.431   0.294   1.052 -0.3238 -0.4254 -0.3041
  285MOL    H2246030   6.422   0.196   0.685 -0.6012  1.4515 -0.1070
  285MOL    H2346031   6.408   0.133   0.845  1.6196 -0.0941 -0.9023
  285MOL    H2446032   6.368   0.427   0.759  2.2304  2.4665  1.2385
  285MOL    H2546033   6.512   0.342   0.807  0.2530  0.2354  2.5684
  285MOL    C2646034   6.298   0.495   1.016  0.2956  0.3232 -0.4830
  285MOL    C2746035   6.346   0.537   1.156 -0.4178 -0.1323 -0.0703
  285MOL    C2846036   6.248   0.630   1.224  0.5231 -0.2008  0.2151
  285MOL    O2946037   6.132   0.649   1.181 -0.3111 -0.1285 -0.1471
  285MOL    H3046038   6.196   0.459   1.015 -0.3440  2.0984 -0.9300
  285MOL    H3146039   6.296   0.587   0.958  0.1673  1.3032  1.0546
  285MOL    H3246040   6.440   0.593   1.163 -2.0456  2.5888  0.5933
  285MOL    H3346041   6.357   0.444   1.213  1.2789  0.7940  1.1490
  285MOL    C3446042   6.301   0.721   1.334  0.1107 -0.2138 -0.4694
  285MOL    C3546043   6.213   0.717   1.462  0.5439 -0.0955 -0.0596
  285MOL    C3646044   6.274   0.625   1.566  0.2354  0.1566 -0.4910
  285MOL    O3746045   6.337   0.524   1.536  0.2640  0.5618 -0.5181
  285MOL    H3846046   6.306   0.824   1.300  2.6943  0.2397  1.1494
  285MOL    H3946047   6.404   0.707   1.365  0.4968  2.1278 -0.6132
  285MOL    H4046048   6.114   0.678   1.438  0.6841  0.6107 -1.8731
  285MOL    H4146049   6.195   0.820   1.494 -0.7625 -0.4066  0.2531
  285MOL    C4246050   6.260   0.677   1.715 -0.0925  0.6242  0.2737
  285MOL    C4346051   6.315   0.579   1.813 -0.5343  0.1663  0.5998
  285MOL    C4446052   6.326   0.609   1.960 -0.2737 -0.2630  0.0189
  285MOL    O4546053   6.271   0.706   2.011 -0.5756  0.3806 -0.1078
  285MOL    H4646054   6.155   0.691   1.740  0.4219  1.4530  2.0221
  285MOL    H4746055   6.306   0.775   1.728 -0.0916  0.4474  1.6667
  285MOL    H4846056   6.413   0.539   1.788 -0.3036 -0.3487  2.2445
  285MOL    H4946057   6.252   0.491   1.800  0.9932 -1.0413  1.2095
  285MOL    C5046058   6.433   0.536   2.045  0.9038 -0.2916  0.6421
  285MOL    C5146059   6.510   0.619   2.133 -0.1779 -0.0783  0.3352
  285MOL    C5246060   6.537   0.568   2.276 -0.2513  0.4684 -0.2361
  285MOL    O5346061   6.571   0.456   2.283 -0.2049  0.3732  0.8107
  285MOL    H5446062   6.500   0.506   1.964  1.8067  0.6296  1.0321
  285MOL    H5546063   6.385   0.451   2.094 -1.6257  1.7943  1.8590
  285MOL    H5646064   6.468   0.719   2.143  1.1617  0.4209  1.1930
  285MOL    H5746065   6.613   0.632   2.100 -0.2991  1.8677  0.6980
  285MOL    C5846066   6.484   0.645   2.387  0.2504 -0.2876 -0.9335
  285MOL    C5946067   6.565   0.624   2.517  0.1537  0.8022  0.9187
  285MOL    C6046068   6.486   0.552   2.630 -0.1731  0.2928 -0.6812
  285MOL    O6146069   6.394   0.610   2.683 -0.2230 -0.3093 -0.6213
  285MOL    H6246070   6.377   0.627   2.393  0.4958 -1.4058  0.3079
  285MOL    H6346071   6.478   0.751   2.361 -0.9479  0.1424  0.9896
  285MOL    H6446072   6.611   0.716   2.553 -0.5366  2.4358 -2.1940
  285MOL    H6546073   6.656   0.569   2.491  1.3737  2.4569  1.5525
  285MOL    C6646074   6.537   0.411   2.664 -0.5875  0.3560 -0.6191
  285MOL    C6746075   6.548   0.377   2.814  0.9373  0.3499  0.0165
  285MOL    C6846076   6.654   0.273   2.853 -0.1703 -0.4324  0.8013
  285MOL    O6946077   6.756   0.259   2.786 -0.0505 -0.3424 -0.3857
  285MOL    H7046078   6.632   0.398   2.614 -0.1038  1.2455  0.0635
  285MOL    H7146079   6.465   0.344   2.616  0.0725 -1.0368  0.3139
  285MOL    H7246080   6.450   0.345   2.848  0.6549  1.8148  0.5975
  285MOL    H7346081   6.574   0.467   2.870 -0.9631  1.8806 -1.5034
  285MOL    C7446082   6.621   0.179   2.977 -0.5042 -0.4817 -0.1931
  285MOL    C7546083   6.682   0.038   2.956 -0.1194 -0.0398 -0.2513
  285MOL    C7646084   6.588   7.794   2.903 -0.0105  0.5397  0.7290
  285MOL    O7746085   6.488   7.829   2.839  0.0775 -0.4261 -0.4893
  285MOL    H7846086   6.515   0.175   3.002 -0.7534 -1.5902 -1.3550
  285MOL    H7946087   6.667   0.226   3.063 -1.0593 -0.5250  0.1275
  285MOL    H8046088   6.729   0.006   3.049 -0.8371  2.0829  0.8847
  285MOL    H8146089   6.773   0.032   2.898  1.0654 -0.6658  1.6169
  285MOL    C8246090   6.621   7.647   2.927 -1.2698  0.5279  0.2188
  285MOL    C8346091   6.498   7.559   2.971  0.0410 -0.0192  0.1542
  285MOL    C8446092   6.431   7.481   2.855 -0.2040  0.5552  0.7699
  285MOL    O8546093   6.486   7.473   2.747 -0.2882 -0.2024  0.0984
  285MOL    H8646094   6.694   7.637   3.007  0.4696  1.9375 -1.1717
  285MOL    H8746095   6.672   7.614   2.837 -1.5275  0.5734  0.0545
  285MOL    H8846096   6.420   7.616   3.021  0.0245  0.6277 -0.5923
  285MOL    H8946097   6.517   7.484   3.047 -0.0546  1.1614  1.3778
  285MOL    C9046098   6.291   7.427   2.876 -0.3503  0.0505 -0.3337
  285MOL    C9146099   6.252   7.307   2.779 -0.8955 -0.4836  0.1976
  285MOL    C9246100   6.300   7.172   2.825 -0.3769 -0.4984 -0.2171
  285MOL    O9346101   6.358   7.154   2.933  0.4344  0.1605  0.0863
  285MOL    H9446102   6.214   7.502   2.857 -0.7710  0.1793  1.7473
  285MOL    H9546103   6.288   7.402   2.982 -0.1894  2.8137  0.3491
  285MOL    H9646104   6.291   7.332   2.680  1.7591 -1.4481  0.9545
  285MOL    H9746105   6.144   7.302   2.775 -0.8763 -0.0027 -0.9376
  285MOL    C9846106   6.286   7.059   2.725 -0.2551  0.7686 -0.0984
  285MOL    C9946107   6.298   6.915   2.786 -0.0582 -0.5919  0.4611
  285MOL   C10046108   6.395   6.825   2.715 -0.4440  0.5216  0.5441
  285MOL   O10146109   6.510   6.869   2.679 -0.3702 -0.1323 -0.1637
  285MOL   H10246110   6.372   7.072   2.659  0.3181 -0.5795  0.3564
  285MOL   H10346111   6.191   7.060   2.673 -0.0919  0.9451 -0.3926
  285MOL   H10446112   6.199   6.873   2.807 -1.0840  1.1291 -0.8106
  285MOL   H10546113   6.344   6.921   2.885  0.5008  0.1605  0.1607
  285MOL   C10646114   6.356   6.687   2.686  0.2787 -0.0597  0.2958
  285MOL   C10746115   6.411   6.637   2.546  0.2812  0.1602 -0.4826
  285MOL   C10846116   6.312   6.566   2.453  0.4740 -0.0123 -0.3388
  285MOL   O10946117   6.196   6.603   2.447 -0.1311 -0.4062  0.2829
  285MOL   H11046118   6.247   6.684   2.686  0.2421  1.2965 -0.2878
  285MOL   H11146119   6.398   6.636   2.773  2.6310 -2.2403 -2.0291
  285MOL   H11246120   6.500   6.578   2.566 -1.8621 -3.0106  0.0608
  285MOL   H11346121   6.461   6.718   2.494  1.6529 -1.1435 -1.2311
  285MOL   C11446122   6.374   6.452   2.376 -0.6066 -0.2240 -0.0413
  285MOL   C11546123   6.298   6.432   2.242  0.3260  0.6196  0.1436
  285MOL   C11646124   6.196   6.320   2.255 -0.2800 -0.4903 -0.6716
  285MOL   O11746125   6.227   6.211   2.310  0.0798  0.6000  0.2559
  285MOL   H11846126   6.371   6.361   2.436 -0.7195  1.4071  2.5341
  285MOL   H11946127   6.474   6.476   2.340 -1.2095  2.9581  0.2438
  285MOL   H12046128   6.358   6.410   2.154 -1.6771  0.0836 -1.1240
  285MOL   H12146129   6.245   6.525   2.219 -2.5188  0.2012  4.4202
  285MOL   C12246130   6.049   6.345   2.218  0.9147  0.2042 -0.3550
  285MOL   C12346131   5.946   6.230   2.225  0.0998 -0.0979 -0.3726
  285MOL   C12446132   5.967   6.132   2.109 -0.5530  0.8270  1.0049
  285MOL   O12546133   6.067   6.143   2.035  0.2739  0.0923 -0.7069
  285MOL   H12646134   6.042   6.401   2.125 -2.2538  1.2185  0.4541
  285MOL   H12746135   6.022   6.422   2.290  1.1681  0.9090 -1.0159
  285MOL   H12846136   5.845   6.269   2.209 -0.9355 -3.3642 -2.2081
  285MOL   H12946137   5.951   6.191   2.327 -0.9978  1.8180  0.4435
  285MOL   C13046138   5.851   6.027   2.074 -0.0189 -0.3765 -0.8108
  285MOL   C13146139   5.869   5.974   1.938  0.4225 -0.4153 -0.0306
  285MOL   C13246140   5.735   5.956   1.870  0.4031  0.5594 -0.8315
  285MOL   O13346141   5.630   5.989   1.921  0.3239  0.0733  0.1341
  285MOL   H13446142   5.762   6.090   2.076  0.6453  0.5648  1.5010
  285MOL   H13546143   5.842   5.954   2.155  3.2245  1.0551  0.9284
  285MOL   H13646144   5.925   5.880   1.935 -1.9004 -1.8607  0.4504
  285MOL   H13746145   5.936   6.033   1.877 -0.9743  1.2872  0.0385
  285MOL   C13846146   5.735   5.884   1.733  0.7809 -0.0338  0.1208
  285MOL   C13946147   5.813   5.751   1.731 -0.4919 -0.2990  0.0481
  285MOL   C14046148   5.773   5.674   1.606  0.0176  0.0242 -0.3551
  285MOL   O14146149   5.754   5.737   1.501  0.1122  0.4408  0.0773
  285MOL   H14246150   5.779   5.955   1.663  1.8872 -1.1166 -0.2973
  285MOL   H14346151   5.639   5.860   1.688  2.6926 -0.8282 -3.7184
  285MOL   H14446152   5.786   5.695   1.821 -1.7154 -0.0134 -0.1406
  285MOL   H14546153   5.921   5.766   1.721 -0.8801  2.2480 -0.4469
  285MOL   C14646154   5.761   5.525   1.616 -0.1809  0.4836 -0.0543
  285MOL   C14746155   5.762   5.437   1.491  0.3587 -0.4189  0.0050
  285MOL   C14846156   5.888   5.355   1.482  0.0805 -0.4149 -0.0218
  285MOL   O14946157   5.896   5.243   1.527  0.2510 -0.0025 -0.2238
  285MOL   H15046158   5.666   5.505   1.665 -0.2217 -0.2417 -0.4191
  285MOL   H15146159   5.833   5.489   1.690 -0.0891  0.9823  0.0973
  285MOL   H15246160   5.751   5.496   1.399 -0.2737 -0.2229  0.2036
  285MOL   H15346161   5.674   5.373   1.497 -0.3611  0.6698  1.5185
  285MOL   C15446162   5.995   5.414   1.391 -0.4177  0.1915  0.4482
  285MOL   C15546163   6.082   5.305   1.340  0.0203  0.5024  0.4414
  285MOL   C15646164   6.035   5.261   1.205  0.1695  0.6120  0.4622
  285MOL   O15746165   6.067   5.330   1.113 -0.1318  0.0014 -0.7399
  285MOL   H15846166   6.047   5.490   1.450 -2.3671  1.5273  0.5038
  285MOL   H15946167   5.959   5.463   1.301  2.5434  0.5758 -0.5797
  285MOL   H16046168   6.084   5.220   1.409  1.8841  0.0657 -0.1263
  285MOL   H16146169   6.184   5.340   1.327  0.5939 -1.8386 -1.6285
  285MOL   H16246170   5.981   5.168   1.191  2.4089 -0.9327  1.6870
  286MOL     C146171   7.434   2.395   0.741  0.7552  0.1967  0.1796
  286MOL     C246172   7.352   2.275   0.741 -0.4393  0.6517  0.0638
  286MOL     C346173   7.337   2.231   0.889  0.1416  0.5748  0.3233
  286MOL     O446174   7.232   2.255   0.948 -0.5595 -0.5148  0.0484
  286MOL     H546175   7.542   2.378   0.744  0.7338  0.1012  0.3852
  286MOL     H646176   7.415   2.448   0.647  1.2041 -0.1313 -0.1035
  286MOL     H746177   7.401   2.201   0.678  1.2133  2.7548 -1.1970
  286MOL     H846178   7.251   2.293   0.704 -0.6374 -1.0658 -0.2578
  286MOL     H946179   7.419   2.465   0.822 -0.7555  0.3610 -0.2360
  286MOL    C1046180   7.459   2.165   0.953  0.0831 -0.0232 -0.1897
  286MOL    C1146181   7.459   2.204   1.099  0.0757  0.0425  0.1024
  286MOL    C1246182   7.516   2.343   1.138  0.3035 -0.4326  0.4494
  286MOL    O1346183   7.574   2.416   1.057  0.1310  0.2621 -0.7067
  286MOL    H1446184   7.546   2.215   0.913 -0.3978  0.9552 -0.0186
  286MOL    H1546185   7.464   2.057   0.940 -0.5208 -0.5060  3.0728
  286MOL    H1646186   7.525   2.141   1.159  1.0185  0.8733 -0.0586
  286MOL    H1746187   7.364   2.170   1.140 -0.5806  0.1399 -1.2830
  286MOL    C1846188   7.493   2.384   1.286  0.5189  0.1011  0.7508
  286MOL    C1946189   7.479   2.544   1.297 -0.4883 -0.5621 -0.4601
  286MOL    C2046190   7.372   2.586   1.396 -0.0305  0.1967 -0.0481
  286MOL    O2146191   7.355   2.520   1.499  0.5062 -0.0793  0.0540
  286MOL    H2246192   7.568   2.342   1.353  1.7252  1.7518  0.4870
  286MOL    H2346193   7.400   2.346   1.325  0.4965  1.3159  1.9231
  286MOL    H2446194   7.448   2.573   1.196  1.3393  2.2395 -0.2672
  286MOL    H2546195   7.571   2.601   1.306 -1.5460  1.3226 -1.2681
  286MOL    C2646196   7.282   2.698   1.356  0.6155 -0.4110 -0.5040
  286MOL    C2746197   7.201   2.756   1.471  1.0646 -0.1132 -0.4267
  286MOL    C2846198   7.085   2.661   1.498  0.4153 -0.1903 -0.1720
  286MOL    O2946199   7.016   2.612   1.408 -0.0269  0.3135 -0.5655
  286MOL    H3046200   7.219   2.670   1.273  0.0096  0.1656 -0.2410
  286MOL    H3146201   7.345   2.773   1.309 -0.3817  0.7271 -0.0615
  286MOL    H3246202   7.159   2.854   1.445  0.5722 -0.1664  0.1760
  286MOL    H3346203   7.262   2.762   1.561  0.3705 -2.2957  0.2274
  286MOL    C3446204   7.061   2.632   1.645  0.0350  0.9289 -0.4169
  286MOL    C3546205   7.067   2.486   1.684 -0.4244  0.2304  0.1261
  286MOL    C3646206   7.100   2.464   1.832  0.2474 -0.3104 -0.0329
  286MOL    O3746207   7.139   2.559   1.899 -0.3930 -0.0692 -0.7008
  286MOL    H3846208   6.956   2.658   1.656 -0.5892 -1.1353 -1.2500
  286MOL    H3946209   7.109   2.700   1.715 -1.2603  0.7218  0.6939
  286MOL    H4046210   7.155   2.448   1.632  0.6062 -0.0705  2.0337
  286MOL    H4146211   6.989   2.416   1.656  0.2785  0.6274 -2.9410
  286MOL    C4246212   7.091   2.328   1.895  0.0999  0.5299  0.0700
  286MOL    C4346213   7.172   2.318   2.021 -0.4028 -0.2324  0.8323
  286MOL    C4446214   7.146   2.183   2.097 -0.4148 -0.4050  0.0706
  286MOL    O4546215   7.091   2.091   2.038 -0.3616  0.0368  0.1419
  286MOL    H4646216   7.141   2.260   1.825  2.3498  0.7187  1.4279
  286MOL    H4746217   6.987   2.301   1.907 -0.0117  1.2400  0.6988
  286MOL    H4846218   7.137   2.397   2.087 -0.4189  0.1115  0.4142
  286MOL    H4946219   7.279   2.328   1.999 -0.0707 -0.2680  2.3957
  286MOL    C5046220   7.185   2.179   2.242 -0.6140  0.7435  0.1117
  286MOL    C5146221   7.155   2.046   2.316  0.5504 -0.2149  0.4653
  286MOL    C5246222   7.008   2.049   2.378  0.5007  0.3149  0.2624
  286MOL    O5346223   6.957   2.152   2.432  0.4161 -0.6486  0.0680
  286MOL    H5446224   7.133   2.266   2.285  0.9720  0.5700  2.4675
  286MOL    H5546225   7.289   2.210   2.242 -0.4077  0.1029  1.8357
  286MOL    H5646226   7.230   2.025   2.392  0.8436  1.0390  0.5402
  286MOL    H5746227   7.174   1.965   2.245  1.6390 -1.5350  2.2374
  286MOL    C5846228   6.927   1.919   2.368 -0.0971 -0.3030 -0.2498
  286MOL    C5946229   6.797   1.919   2.449 -0.0997 -0.4245  0.1349
  286MOL    C6046230   6.669   1.875   2.379 -0.3141 -0.2061 -0.6713
  286MOL    O6146231   6.641   1.931   2.272 -0.1985  0.0267 -0.0555
  286MOL    H6246232   6.994   1.847   2.416 -0.2674  0.2135  0.7621
  286MOL    H6346233   6.904   1.892   2.265  0.3042 -1.2728 -0.0960
  286MOL    H6446234   6.779   2.013   2.502 -1.2059 -1.4711  1.6570
  286MOL    H6546235   6.815   1.855   2.535 -0.2985  0.1959  0.6415
  286MOL    C6646236   6.586   1.759   2.432  0.4613  0.8185  0.2634
  286MOL    C6746237   6.475   1.724   2.327 -0.4818 -0.2527  1.1593
  286MOL    C6846238   6.384   1.612   2.377  0.4041 -1.3187 -0.8790
  286MOL    O6946239   6.366   1.604   2.500 -0.6149  0.1933 -0.2093
  286MOL    H7046240   6.562   1.764   2.538 -0.1680  1.8920  0.0840
  286MOL    H7146241   6.647   1.669   2.428 -0.8875 -0.1799  1.9174
  286MOL    H7246242   6.523   1.702   2.231  0.3381 -0.6403  1.6588
  286MOL    H7346243   6.418   1.814   2.303 -0.3350 -0.2972  0.6205
  286MOL    C7446244   6.321   1.513   2.276 -0.1750 -1.0549 -0.3953
  286MOL    C7546245   6.227   1.404   2.336  0.9860  0.7997  0.4221
  286MOL    C7646246   6.081   1.450   2.362 -0.1033 -0.0570 -0.0136
  286MOL    O7746247   6.039   1.559   2.320  0.3863  0.1121  0.3799
  286MOL    H7846248   6.408   1.468   2.226  1.0883  0.3997  0.4662
  286MOL    H7946249   6.268   1.565   2.197  0.4937 -0.9727 -0.7957
  286MOL    H8046250   6.258   1.360   2.431  0.9081 -3.3804 -1.3674
  286MOL    H8146251   6.228   1.319   2.268 -1.5925  0.3351  0.9291
  286MOL    C8246252   5.993   1.359   2.449  0.3986  0.5156 -0.1032
  286MOL    C8346253   5.857   1.425   2.479 -0.0607  0.2112  0.0780
  286MOL    C8446254   5.756   1.325   2.538  0.1636 -0.5505  0.2398
  286MOL    O8546255   5.788   1.209   2.564 -0.0716 -0.0399 -1.0179
  286MOL    H8646256   6.059   1.340   2.534  0.2785  1.1343  0.1287
  286MOL    H8746257   5.970   1.269   2.392 -2.4520  0.7893  0.5559
  286MOL    H8846258   5.807   1.476   2.397 -0.3667 -3.0726 -1.8540
  286MOL    H8946259   5.873   1.490   2.565  4.1825 -1.5197  0.7070
  286MOL    C9046260   5.612   1.375   2.573  0.6480  0.5154  0.1523
  286MOL    C9146261   5.531   1.264   2.635 -0.8211 -0.4295 -0.5933
  286MOL    C9246262   5.390   1.296   2.652  0.4703  0.5192  0.3096
  286MOL    O9346263   5.341   1.356   2.746  0.4937  0.6286  0.0132
  286MOL    H9446264   5.557   1.403   2.484 -0.4217 -1.8008  0.0432
  286MOL    H9546265   5.620   1.457   2.645 -2.2517  2.0816 -1.2384
  286MOL    H9646266   5.573   1.236   2.732  0.0306  0.3920 -0.7200
  286MOL    H9746267   5.533   1.169   2.580 -1.8123 -1.9977  1.9626
  286MOL    C9846268   5.294   1.238   2.551 -1.0584 -0.4314 -0.3561
  286MOL    C9946269   5.147   1.302   2.550 -0.2188 -0.4047 -0.4354
  286MOL   C10046270   5.132   1.398   2.433  0.0391 -0.7699  0.2826
  286MOL   O10146271   5.186   1.371   2.328  0.0627 -0.2675  0.4346
  286MOL   H10246272   5.284   1.133   2.577  2.2185 -0.4934  0.8636
  286MOL   H10346273   5.350   1.242   2.458  0.2309 -2.3832  0.3111
  286MOL   H10446274   5.130   1.358   2.641  2.1805 -1.3569  0.6419
  286MOL   H10546275   5.077   1.220   2.536  0.7674 -1.7187  2.0548
  286MOL   C10646276   5.036   1.513   2.457 -0.2013  0.5302 -0.1071
  286MOL   C10746277   5.069   1.636   2.376 -0.2537  0.0268 -0.5952
  286MOL   C10846278   5.153   1.736   2.458 -0.3660 -0.6503 -0.3320
  286MOL   O10946279   5.228   1.692   2.544  0.6205 -0.6125 -0.0846
  286MOL   H11046280   5.018   1.537   2.562  0.3583  2.2381 -0.3912
  286MOL   H11146281   4.935   1.491   2.421  0.3164 -0.6296 -0.9045
  286MOL   H11246282   4.975   1.691   2.373  1.0819  2.3077 -1.5075
  286MOL   H11346283   5.108   1.620   2.276  1.5498 -1.1322  0.2687
  286MOL   C11446284   5.141   1.885   2.427  0.2711 -0.1280  0.5663
  286MOL   C11546285   5.216   1.970   2.537  0.9614 -0.1574 -0.2167
  286MOL   C11646286   5.127   1.987   2.660 -0.2743  0.0722 -0.2374
  286MOL   O11746287   5.011   2.024   2.644  0.3008  0.2615 -0.1881
  286MOL   H11846288   5.033   1.895   2.435  0.3480  0.9888  0.3942
  286MOL   H11946289   5.192   1.901   2.332  0.0511 -0.7081  0.3538
  286MOL   H12046290   5.246   2.069   2.503 -1.1909  0.1814 -1.2235
  286MOL   H12146291   5.306   1.917   2.568  1.5892  1.1511  0.2127
  286MOL   C12246292   5.178   1.964   2.802 -0.4512 -0.7080 -0.2562
  286MOL   C12346293   5.061   1.903   2.889 -0.1845 -0.0500  0.1241
  286MOL   C12446294   5.063   1.748   2.882  0.4367 -0.2539  0.9065
  286MOL   O12546295   4.964   1.685   2.843 -0.1123 -0.3309 -0.3524
  286MOL   H12646296   5.194   2.061   2.850  0.5844 -0.3524 -1.3151
  286MOL   H12746297   5.266   1.900   2.799  0.0479 -0.2179  2.5861
  286MOL   H12846298   4.971   1.934   2.835  2.2682  1.6441 -3.1727
  286MOL   H12946299   5.072   1.931   2.994  1.9200 -1.8299  0.4001
  286MOL   C13046300   5.185   1.677   2.936 -0.5879 -0.4667  0.2656
  286MOL   C13146301   5.153   1.563   3.045  0.1470  0.5892  0.5524
  286MOL   C13246302   5.103   1.622   3.178  0.6825 -0.1405  0.6145
  286MOL   O13346303   5.112   1.742   3.195 -0.0905 -0.2621  0.1461
  286MOL   H13446304   5.264   1.742   2.973 -0.3980 -1.3307  1.3833
  286MOL   H13546305   5.224   1.624   2.850 -0.5353  0.1700 -0.1053
  286MOL   H13646306   5.248   1.513   3.064  1.6841  2.8309 -0.9183
  286MOL   H13746307   5.084   1.502   2.987  0.9592  0.3530 -0.1729
  286MOL   C13846308   5.043   1.531   3.285  0.0793  0.3910  0.5111
  286MOL   C13946309   4.995   1.392   3.233  0.3715  0.0261  0.1935
  286MOL   C14046310   4.923   1.320   3.350  0.3937  0.9960  0.7521
  286MOL   O14146311   4.917   1.365   3.465 -0.2839  0.3521 -0.0625
  286MOL   H14246312   4.952   1.580   3.321  0.2322  1.8013 -1.0021
  286MOL   H14346313   5.118   1.528   3.363  0.6910  1.3208 -0.0416
  286MOL   H14446314   5.082   1.335   3.200  0.7224  0.0122  1.1309
  286MOL   H14546315   4.913   1.404   3.163 -1.1441  1.1713  2.0956
  286MOL   C14646316   4.845   1.195   3.317  0.8646  0.3971  0.0700
  286MOL   C14746317   4.774   1.131   3.432  0.0416 -0.4011 -0.5490
  286MOL   C14846318   4.850   1.009   3.485  0.0268 -0.1818 -0.2809
  286MOL   O14946319   4.920   1.008   3.591 -0.1537 -0.2970 -0.2722
  286MOL   H15046320   4.910   1.117   3.276  0.0970 -0.8587  1.1983
  286MOL   H15146321   4.774   1.229   3.241 -1.1713 -1.1159  1.2255
  286MOL   H15246322   4.668   1.124   3.409 -0.6265  0.8740  1.9566
  286MOL   H15346323   4.771   1.202   3.515 -1.3763 -1.2089  0.1089
  286MOL   C15446324   4.845   0.881   3.400 -0.2056 -0.1062 -0.2401
  286MOL   C15546325   4.964   0.863   3.307  0.3846 -0.1982  0.7923
  286MOL   C15646326   4.992   0.714   3.280 -0.4056 -0.2064  1.3326
  286MOL   O15746327   4.894   0.645   3.253 -0.2736 -0.0985  0.0761
  286MOL   H15846328   4.758   0.862   3.337 -1.4672  0.2476  1.3833
  286MOL   H15946329   4.847   0.807   3.480 -2.1799 -0.5247 -0.5592
  286MOL   H16046330   5.053   0.899   3.358  0.0261  1.2058  0.4753
  286MOL   H16146331   4.947   0.913   3.212 -1.6298 -0.5667  0.9335
  286MOL   H16246332   5.095   0.679   3.285  0.3657  1.7325 -0.1157
  287MOL     C146333   3.149   2.960   0.311 -0.4053  0.3808  0.0772
  287MOL     C246334   3.207   2.887   0.187 -0.1373 -0.0775  0.4521
  287MOL     C346335   3.102   2.803   0.122  0.3668  0.9237  0.4722
  287MOL     O446336   3.009   2.756   0.181  0.6313  0.5321  0.0093
  287MOL     H546337   3.113   2.889   0.385  1.3298  0.4600  1.0396
  287MOL     H646338   3.231   3.008   0.365  0.3227 -1.5144  0.7157
  287MOL     H746339   3.291   2.823   0.213 -0.3799  0.6906  3.2886
  287MOL     H846340   3.250   2.962   0.121  1.8840 -1.1608  0.4938
  287MOL     H946341   3.075   3.037   0.289 -0.6313  0.4580  1.0811
  287MOL    C1046342   3.107   2.784   7.832 -0.3698  0.3688  0.1327
  287MOL    C1146343   3.071   2.644   7.781  0.2225 -0.2055 -0.7006
  287MOL    C1246344   2.947   2.626   7.684 -0.1326  0.8363  0.1189
  287MOL    O1346345   2.880   2.720   7.646 -0.6406 -0.5834 -0.1740
  287MOL    H1446346   3.211   2.793   7.798 -0.1707  0.9915  0.9001
  287MOL    H1546347   3.051   2.859   7.776  0.0094  2.0825  1.9923
  287MOL    H1646348   3.050   2.578   0.006 -2.5062 -1.6539 -2.4376
  287MOL    H1746349   3.158   2.622   7.720  0.3758 -0.0461 -0.5406
  287MOL    C1846350   2.911   2.485   7.643 -0.0343  0.2428  0.0411
  287MOL    C1946351   2.785   2.471   7.549  0.1395 -0.1862 -0.2909
  287MOL    C2046352   2.798   2.363   7.442 -0.8961  0.4774  0.1656
  287MOL    O2146353   2.905   2.337   7.389  0.7679  0.0782  0.0045
  287MOL    H2246354   2.897   2.421   7.730  0.0288  0.9258  0.5552
  287MOL    H2346355   2.997   2.444   7.590 -0.8575  0.1551 -1.2528
  287MOL    H2446356   2.760   2.569   7.508 -1.2668 -0.9135 -1.2192
  287MOL    H2546357   2.698   2.450   7.611  0.3838  0.6699  0.3493
  287MOL    C2646358   2.669   2.295   7.398  0.1250 -0.8807 -0.8566
  287MOL    C2746359   2.692   2.176   7.297 -1.2231 -0.8563 -0.1650
  287MOL    C2846360   2.701   2.039   7.367  0.4525 -0.2547  0.2171
  287MOL    O2946361   2.722   2.031   7.488  0.1119  0.3457 -0.1035
  287MOL    H3046362   2.615   2.374   7.345  1.2881 -0.6482 -1.7295
  287MOL    H3146363   2.619   2.261   7.488  0.5183 -1.7889 -0.9702
  287MOL    H3246364   2.769   2.196   7.222 -0.8659 -0.2671  0.3637
  287MOL    H3346365   2.608   2.175   7.227 -1.1316  0.3094 -0.3009
  287MOL    C3446366   2.672   1.911   7.288  0.1510  0.2590  0.4309
  287MOL    C3546367   2.567   1.828   7.355 -0.3870 -0.8391 -0.2262
  287MOL    C3646368   2.505   1.736   7.256  0.0319  0.0701 -0.1258
  287MOL    O3746369   2.563   1.643   7.197  0.0008 -0.3729 -0.6477
  287MOL    H3846370   2.764   1.855   7.267 -0.0309 -0.2068  0.8792
  287MOL    H3946371   2.635   1.941   7.190  0.8635  0.0034  0.0788
  287MOL    H4046372   2.495   1.893   7.404 -0.4939 -0.3597 -1.0177
  287MOL    H4146373   2.603   1.759   7.432 -0.3469 -0.7778 -0.1903
  287MOL    C4246374   2.357   1.763   7.227  0.5434  1.0069  0.5248
  287MOL    C4346375   2.258   1.716   7.332  0.5216 -0.0880  0.4612
  287MOL    C4446376   2.108   1.777   7.327  0.7400 -0.8782 -0.2574
  287MOL    O4546377   2.083   1.881   7.266 -0.1676  0.0474  0.3794
  287MOL    H4646378   2.335   1.716   7.132 -0.7722 -0.6218  1.6116
  287MOL    H4746379   2.349   1.871   7.213  0.5213  0.9055 -0.2561
  287MOL    H4846380   2.291   1.760   7.427 -2.0755  0.0537  1.3305
  287MOL    H4946381   2.262   1.609   7.353  0.7107 -0.0053  0.8611
  287MOL    C5046382   1.990   1.689   7.387  0.7988  0.1239 -0.0184
  287MOL    C5146383   1.958   1.741   7.536 -0.7132 -0.5118  0.1706
  287MOL    C5246384   2.043   1.659   7.634 -0.6487 -0.1354  0.2892
  287MOL    O5346385   2.162   1.639   7.616 -0.4926  0.1924 -0.6143
  287MOL    H5446386   2.022   1.585   7.386 -1.2065 -0.4935 -1.3489
  287MOL    H5546387   1.907   1.700   7.318 -0.3458  0.9784  1.4716
  287MOL    H5646388   1.852   1.731   7.561 -0.4836 -1.8406  0.6185
  287MOL    H5746389   1.986   1.844   7.557  0.6785 -0.3360 -2.3929
  287MOL    C5846390   1.982   1.586   7.745  0.4985  0.2984  0.1501
  287MOL    C5946391   1.925   1.457   7.686  0.2335 -0.7544  0.3009
  287MOL    C6046392   1.773   1.457   7.695  0.6411  0.1591 -0.3160
  287MOL    O6146393   1.725   1.485   7.801  0.0092  0.2597  0.3729
  287MOL    H6246394   1.917   1.648   7.807 -1.5200 -1.2058 -0.4101
  287MOL    H6346395   2.062   1.554   7.811 -0.1314 -0.1929  0.6845
  287MOL    H6446396   1.950   1.368   7.743 -1.1988 -0.5256  1.3237
  287MOL    H6546397   1.949   1.446   7.580 -0.4142 -2.6942  0.3425
  287MOL    C6646398   1.686   1.424   7.576  0.0225  0.1348 -0.0475
  287MOL    C6746399   1.538   1.415   7.613  0.0392 -0.3956 -0.8850
  287MOL    C6846400   1.461   1.316   7.523 -0.1705  0.4913  0.5705
  287MOL    O6946401   1.513   1.241   7.435 -0.0607 -0.0526  0.2018
  287MOL    H7046402   1.731   1.335   7.530 -0.7778 -0.9043  1.1687
  287MOL    H7146403   1.702   1.500   7.499  2.2060 -0.7236 -0.4899
  287MOL    H7246404   1.484   1.508   7.601 -0.8626 -0.7238  0.5461
  287MOL    H7346405   1.530   1.386   7.718 -1.8414  2.1133 -0.2952
  287MOL    C7446406   1.318   1.289   7.562  0.4364  0.1081  0.1033
  287MOL    C7546407   1.227   1.340   7.445 -0.1762  0.1877 -0.1441
  287MOL    C7646408   1.148   1.457   7.487  0.8353 -0.5883 -0.6518
  287MOL    O7746409   1.194   1.569   7.506  0.5506 -0.5642  0.8621
  287MOL    H7846410   1.306   1.350   7.652  1.1620 -0.3229  0.4939
  287MOL    H7946411   1.298   1.185   7.587  1.9546 -0.5690 -1.4285
  287MOL    H8046412   1.168   1.261   7.400  3.0306 -1.3513 -1.8640
  287MOL    H8146413   1.283   1.365   7.355 -0.2501 -0.8596 -0.4865
  287MOL    C8246414   1.005   1.433   7.531 -0.1917 -1.0017 -0.4230
  287MOL    C8346415   0.925   1.394   7.406 -0.0680  0.4825 -0.3043
  287MOL    C8446416   0.828   1.287   7.438  0.4546  0.8525  0.2441
  287MOL    O8546417   0.717   1.324   7.476 -0.6885  0.7932 -0.1429
  287MOL    H8646418   0.974   1.521   7.587  0.4469 -1.1687  0.1971
  287MOL    H8746419   1.012   1.348   7.599  2.5844 -1.2949 -0.9991
  287MOL    H8846420   0.985   1.341   7.331 -0.9152  0.7391 -1.1815
  287MOL    H8946421   0.887   1.484   7.358  0.1866  0.5831 -0.3160
  287MOL    C9046422   0.879   1.145   7.450  0.7283  0.1501  0.7007
  287MOL    C9146423   0.828   1.073   7.582  0.0649  0.1734 -0.3022
  287MOL    C9246424   0.928   1.069   7.695 -0.1161 -0.2176  0.5095
  287MOL    O9346425   1.049   1.074   7.671  0.4622 -0.0542  0.0953
  287MOL    H9446426   0.987   1.154   7.440  0.7320 -1.8523 -1.5511
  287MOL    H9546427   0.834   1.103   7.360 -0.4252 -1.5713  2.0474
  287MOL    H9646428   0.826   0.966   7.563  2.0986  0.0680 -0.0786
  287MOL    H9746429   0.730   1.111   7.613  0.1148  0.5152 -0.5534
  287MOL    C9846430   0.890   1.046   7.844 -0.1204  0.1589 -0.2957
  287MOL    C9946431   0.799   1.162   0.024  0.1235  0.1089  0.3556
  287MOL   C10046432   0.736   1.141   0.160 -0.7181 -0.7643 -0.3854
  287MOL   O10146433   0.798   1.076   0.241  0.0978 -0.0405  0.1482
  287MOL   H10246434   0.982   1.021   0.036 -0.3779 -2.1848 -0.9046
  287MOL   H10346435   0.834   0.953   7.848  0.9423 -0.5274 -1.0317
  287MOL   H10446436   0.710   1.174   7.820  1.0399 -1.1115 -1.1937
  287MOL   H10546437   0.851   1.258   0.027 -0.9812  0.6883  1.8828
  287MOL   C10646438   0.604   1.209   0.179  0.2618  0.1231 -0.5106
  287MOL   C10746439   0.621   1.302   0.306 -0.5540  0.4961 -0.0023
  287MOL   C10846440   0.681   1.441   0.269  0.6298  0.0651  0.1078
  287MOL   O10946441   0.721   1.464   0.155 -0.0889  0.4959 -0.4200
  287MOL   H11046442   0.529   1.133   0.198  0.8762 -1.1080 -2.7862
  287MOL   H11146443   0.581   1.265   0.089 -1.4119 -0.0190 -0.1808
  287MOL   H11246444   0.671   1.252   0.389 -0.0029 -0.5878 -0.9716
  287MOL   H11346445   0.518   1.317   0.339 -0.5571  0.1788  0.1392
  287MOL   C11446446   0.701   1.544   0.374 -0.2177 -0.2080  0.6453
  287MOL   C11546447   0.690   1.694   0.340 -0.0929  0.0428 -0.7322
  287MOL   C11646448   0.552   1.746   0.312 -0.2440  0.8184 -0.6666
  287MOL   O11746449   0.452   1.675   0.346  0.4290 -0.3418  0.2774
  287MOL   H11846450   0.799   1.527   0.419 -0.2064  0.6885  0.9732
  287MOL   H11946451   0.627   1.522   0.451 -1.7128  0.2364 -0.6269
  287MOL   H12046452   0.748   1.708   0.248  1.5669 -1.3035  0.0851
  287MOL   H12146453   0.744   1.763   0.405  1.0214 -1.4918 -0.0076
  287MOL   C12246454   0.530   1.871   0.228  0.2617 -0.3973  1.0008
  287MOL   C12346455   0.389   1.936   0.228 -0.5840  0.5011 -0.4245
  287MOL   C12446456   0.382   2.073   0.162 -0.0850 -0.4542 -0.5751
  287MOL   O12546457   0.485   2.142   0.142  0.7048 -0.1524  0.1486
  287MOL   H12646458   0.568   1.849   0.128 -2.2155 -0.8531  0.1289
  287MOL   H12746459   0.601   1.942   0.270  2.9350 -3.4230  1.8932
  287MOL   H12846460   0.340   1.939   0.326 -0.8925 -1.9224 -0.4914
  287MOL   H12946461   0.317   1.871   0.179 -0.7680 -0.6556  1.3375
  287MOL   C13046462   0.238   2.129   0.141  0.0328  0.2934 -0.0225
  287MOL   C13146463   0.226   2.249   0.046  0.0628  0.5703  0.0109
  287MOL   C13246464   0.100   2.336   0.071  0.6865  0.4133 -0.5754
  287MOL   O13346465   0.034   2.311   0.170  0.8168 -0.1405 -0.3841
  287MOL   H13446466   0.189   2.151   0.235  0.2231  0.4703  0.0347
  287MOL   H13546467   0.186   2.045   0.095 -1.3221  0.2439  1.5600
  287MOL   H13646468   0.217   2.201   7.808 -1.2020 -2.4798  1.5969
  287MOL   H13746469   0.315   2.312   0.038  1.5742 -1.4056  1.0155
  287MOL   C13846470   0.057   2.439   7.825 -0.3071  0.1580 -0.7036
  287MOL   C13946471   7.782   2.510   7.857 -0.3956  0.0446 -0.1659
  287MOL   C14046472   7.808   2.656   0.035  0.7032 -0.0618 -0.3039
  287MOL   O14146473   0.046   2.709   0.094 -0.1458 -0.0036  0.0106
  287MOL   H14246474   0.052   2.376   7.736  0.3647 -0.4670 -0.2970
  287MOL   H14346475   0.139   2.511   7.822  0.5807 -0.7454  1.1777
  287MOL   H14446476   7.738   2.450   0.078  1.1193 -0.3974  0.3532
  287MOL   H14546477   7.717   2.499   7.771  0.0270 -0.0013 -0.4840
  287MOL   C14646478   7.681   2.732   0.002  0.1362  0.1649  0.0048
  287MOL   C14746479   7.683   2.874   0.043  0.0876  0.1924 -0.9208
  287MOL   C14846480   7.623   2.902   0.186  0.4124 -0.5284  0.2897
  287MOL   O14946481   7.526   2.836   0.228  0.3163  0.3942  0.0149
  287MOL   H15046482   7.592   2.679   0.036 -0.4397  2.1538  1.7352
  287MOL   H15146483   7.680   2.739   7.752  3.6203  0.6450 -0.0527
  287MOL   H15246484   7.621   2.941   7.842 -1.8394  0.9284  1.7576
  287MOL   H15346485   7.787   2.905   0.042  0.1116  0.1396 -0.2443
  287MOL   C15446486   7.662   3.021   0.267 -0.4708  0.5611  0.3044
  287MOL   C15546487   7.694   2.994   0.414 -0.0309 -0.1717 -0.5439
  287MOL   C15646488   7.587   3.042   0.514 -0.7971  0.7516  0.1609
  287MOL   O15746489   7.541   3.152   0.500 -0.2731 -0.6597 -0.3582
  287MOL   H15846490   7.581   3.093   0.260 -0.6100  0.7517  3.2735
  287MOL   H15946491   7.745   3.070   0.217  0.5661  0.4409  1.8950
  287MOL   H16046492   7.793   3.032   0.437  0.2113 -1.4016  0.4986
  287MOL   H16146493   7.705   2.886   0.427 -0.0812  0.1095  1.9247
  287MOL   H16246494   7.559   2.969   0.589 -1.7876  0.7190 -0.2244
  288MOL     C146495   2.847   1.196   0.992  0.2137 -0.2784 -0.1014
  288MOL     C246496   2.754   1.317   1.040  0.3990  0.8873 -0.3002
  288MOL     C346497   2.770   1.346   1.190  0.2849  0.1092 -0.3322
  288MOL     O446498   2.839   1.276   1.264  0.0697  0.2046 -0.0594
  288MOL     H546499   2.846   1.112   1.062 -0.1096 -0.6746 -0.5839
  288MOL     H646500   2.806   1.158   0.899  1.5528 -1.1067 -0.3687
  288MOL     H746501   2.649   1.304   1.013  0.6245  0.2926 -0.9015
  288MOL     H846502   2.800   1.408   1.002 -2.0233  1.9121 -0.8740
  288MOL     H946503   2.954   1.219   0.987  0.4716 -1.0092  1.5933
  288MOL    C1046504   2.684   1.464   1.234  0.7057 -0.8532 -0.3210
  288MOL    C1146505   2.729   1.559   1.356 -0.6502 -0.5556 -0.1055
  288MOL    C1246506   2.625   1.564   1.466  0.1549 -0.2025  0.5397
  288MOL    O1346507   2.503   1.585   1.449 -0.2585  0.2195  0.2404
  288MOL    H1446508   2.589   1.417   1.257 -0.4897  0.4047 -2.5206
  288MOL    H1546509   2.664   1.537   1.156  1.9358  2.8743  2.6758
  288MOL    H1646510   2.736   1.659   1.315  2.2401 -0.4751  0.4548
  288MOL    H1746511   2.833   1.544   1.385  0.2019 -1.0314 -3.1719
  288MOL    C1846512   2.680   1.535   1.606  0.1695  0.0860 -0.4586
  288MOL    C1946513   2.566   1.465   1.687 -0.5317  0.1102  0.4041
  288MOL    C2046514   2.488   1.552   1.792  0.2182  0.1057  0.2958
  288MOL    O2146515   2.505   1.672   1.798 -0.6777 -0.1856  0.0028
  288MOL    H2246516   2.709   1.635   1.639 -0.3575  0.3289 -0.7154
  288MOL    H2346517   2.764   1.467   1.595 -0.3512 -0.3744 -1.6118
  288MOL    H2446518   2.610   1.373   1.727 -0.4684 -0.4116 -0.8255
  288MOL    H2546519   2.494   1.413   1.623  1.3887 -1.7413 -0.3325
  288MOL    C2646520   2.389   1.485   1.895 -0.1397 -0.6075 -0.0550
  288MOL    C2746521   2.395   1.545   2.034 -0.0637  0.6754 -0.1966
  288MOL    C2846522   2.468   1.463   2.134  1.0028 -0.4544 -0.1935
  288MOL    O2946523   2.561   1.390   2.096 -0.2487 -0.4219  0.0072
  288MOL    H3046524   2.407   1.378   1.894  0.0348 -0.5757 -0.2344
  288MOL    H3146525   2.286   1.499   1.861 -0.6681  1.1579  2.1713
  288MOL    H3246526   2.294   1.565   2.071 -0.7554  0.2464 -1.8163
  288MOL    H3346527   2.451   1.639   2.033 -1.3331  1.4353 -0.5638
  288MOL    C3446528   2.428   1.489   2.282 -0.1423  0.0767  0.5071
  288MOL    C3546529   2.450   1.363   2.369  0.3229 -0.4496 -0.8358
  288MOL    C3646530   2.458   1.393   2.521 -0.2351  0.1726  0.2570
  288MOL    O3746531   2.420   1.502   2.565  0.1249 -0.1931  0.3782
  288MOL    H3846532   2.324   1.522   2.282 -0.5312 -1.1187 -0.8156
  288MOL    H3946533   2.503   1.566   2.303 -0.5022  1.4044 -2.7435
  288MOL    H4046534   2.546   1.314   2.349 -0.1227 -0.6777 -2.5084
  288MOL    H4146535   2.373   1.288   2.353 -1.2968  1.2362 -1.0008
  288MOL    C4246536   2.496   1.282   2.619  0.1976 -0.2071 -0.3776
  288MOL    C4346537   2.475   1.320   2.767 -0.4702 -0.5460 -0.1337
  288MOL    C4446538   2.603   1.398   2.815 -0.2830 -0.3184 -0.3461
  288MOL    O4546539   2.701   1.416   2.750  0.0994 -0.3600 -0.1127
  288MOL    H4646540   2.601   1.258   2.601  0.3461  0.0667  0.1105
  288MOL    H4746541   2.424   1.208   2.585  1.7198 -0.7962 -2.4092
  288MOL    H4846542   2.461   1.245   2.846 -0.1513 -2.1955 -1.6112
  288MOL    H4946543   2.382   1.375   2.780  0.3896  0.7918  0.4422
  288MOL    C5046544   2.599   1.476   2.952 -0.1357 -0.5899  0.2967
  288MOL    C5146545   2.513   1.601   2.929  0.0966 -0.5077 -0.1479
  288MOL    C5246546   2.504   1.701   3.050 -0.2815 -0.4969 -0.4351
  288MOL    O5346547   2.599   1.695   3.128  0.3631  0.0959  0.6207
  288MOL    H5446548   2.702   1.490   2.982 -0.0643 -0.1950 -0.1325
  288MOL    H5546549   2.548   1.417   3.028  3.4007 -1.4741  2.0768
  288MOL    H5646550   2.409   1.578   2.902  0.5410 -0.3704 -2.0868
  288MOL    H5746551   2.554   1.671   2.857  0.8063  0.3041  1.0389
  288MOL    C5846552   2.390   1.798   3.063  0.0058  0.2238 -0.4591
  288MOL    C5946553   2.441   1.914   3.135 -0.9633 -0.1825  0.0669
  288MOL    C6046554   2.405   1.911   3.282  0.4699 -0.0646 -0.3489
  288MOL    O6146555   2.389   1.806   3.345 -0.0916 -0.5694  0.5672
  288MOL    H6246556   2.316   1.740   3.120 -0.7712  0.9315 -0.7473
  288MOL    H6346557   2.345   1.832   2.970  1.3040  1.4294 -0.6583
  288MOL    H6446558   2.379   1.997   3.098 -1.2037 -0.8192 -0.9739
  288MOL    H6546559   2.545   1.946   3.128 -1.0326  0.1884  0.6480
  288MOL    C6646560   2.405   2.051   3.354  0.7688 -0.7817 -0.0023
  288MOL    C6746561   2.534   2.129   3.341 -0.1629  0.4035 -0.0509
  288MOL    C6846562   2.533   2.252   3.253 -0.2639 -0.0016  0.1660
  288MOL    O6946563   2.480   2.243   3.141  0.6315  0.6974 -0.0245
  288MOL    H7046564   2.373   2.042   3.458  1.2872  0.2075  0.2533
  288MOL    H7146565   2.316   2.106   3.322  0.5769 -0.4142  1.1498
  288MOL    H7246566   2.610   2.062   3.301  1.2567  2.2269 -0.4280
  288MOL    H7346567   2.577   2.153   3.439 -2.4015 -0.9437  1.3102
  288MOL    C7446568   2.592   2.382   3.308  0.1544 -0.1451 -0.1583
  288MOL    C7546569   2.625   2.484   3.194 -0.3830 -0.1277  0.3059
  288MOL    C7646570   2.510   2.583   3.186  0.8624 -0.8858 -0.1013
  288MOL    O7746571   2.420   2.590   3.270  0.4524  0.6068  0.5536
  288MOL    H7846572   2.685   2.354   3.357  1.4664  2.0172 -1.3413
  288MOL    H7946573   2.524   2.425   3.382  0.5899  0.3880 -0.0616
  288MOL    H8046574   2.643   2.446   3.094 -0.6767  1.3784 -0.3344
  288MOL    H8146575   2.717   2.540   3.209 -1.6466  2.1091 -0.1069
  288MOL    C8246576   2.520   2.692   3.080  0.1885  0.1952  0.3877
  288MOL    C8346577   2.602   2.811   3.143 -0.3100  0.2888 -0.5563
  288MOL    C8446578   2.505   2.923   3.173  0.1195  0.4818  0.4078
  288MOL    O8546579   2.426   2.926   3.266  0.1399 -0.4813 -0.7906
  288MOL    H8646580   2.421   2.721   3.046  0.0214 -0.2259  0.5169
  288MOL    H8746581   2.579   2.650   2.998  2.2916 -0.7124  2.3222
  288MOL    H8846582   2.684   2.841   3.078  1.8451 -2.1338  0.9225
  288MOL    H8946583   2.645   2.789   3.241  1.1658 -0.6949 -1.3968
  288MOL    C9046584   2.500   3.040   3.087  0.6721  0.4228  0.2125
  288MOL    C9146585   2.387   3.138   3.102  0.0126 -0.1470 -0.2905
  288MOL    C9246586   2.399   3.235   3.218  0.2426  0.1954 -0.2807
  288MOL    O9346587   2.499   3.303   3.231 -0.8933 -0.1921 -0.0718
  288MOL    H9446588   2.501   3.016   2.981  1.3801  0.3785  0.2262
  288MOL    H9546589   2.595   3.093   3.100  0.9568  1.0846 -3.8915
  288MOL    H9646590   2.296   3.081   3.118  0.1508 -0.1842  0.4063
  288MOL    H9746591   2.363   3.196   3.013 -0.4239 -0.5683 -0.4459
  288MOL    C9846592   2.287   3.224   3.323 -0.4120  0.1143  0.7099
  288MOL    C9946593   2.306   3.310   3.449  0.3511  0.0167 -0.6052
  288MOL   C10046594   2.293   3.458   3.440  0.1150 -0.8365  0.1906
  288MOL   O10146595   2.277   3.508   3.331 -0.2475 -0.4791  0.0942
  288MOL   H10246596   2.291   3.120   3.358 -0.1776 -0.5766 -1.2763
  288MOL   H10346597   2.186   3.237   3.283  0.2436 -1.4156 -1.5289
  288MOL   H10446598   2.404   3.284   3.488  0.7156  0.6253 -1.0972
  288MOL   H10546599   2.235   3.271   3.522  1.4879  1.2633  1.2013
  288MOL   C10646600   2.300   3.540   3.565  0.1342  0.3897 -0.3162
  288MOL   C10746601   2.188   3.656   3.563  0.0085 -0.6721 -0.0754
  288MOL   C10846602   2.056   3.627   3.647 -0.3180 -0.0820  0.6772
  288MOL   O10946603   2.052   3.527   3.723  0.3296 -0.0004 -0.2464
  288MOL   H11046604   2.400   3.579   3.585  0.5124 -0.5699 -0.3433
  288MOL   H11146605   2.276   3.469   3.644  1.0832 -0.5987 -0.8936
  288MOL   H11246606   2.174   3.702   3.465  1.5094  1.7212  0.7880
  288MOL   H11346607   2.229   3.740   3.618  2.9823 -1.8385 -0.4326
  288MOL   C11446608   1.939   3.726   3.654 -0.8974  1.0886 -0.1666
  288MOL   C11546609   1.855   3.707   3.538  0.4754  0.1429 -0.5624
  288MOL   C11646610   1.838   3.834   3.466  0.5514  0.1872 -0.0026
  288MOL   O11746611   1.802   3.936   3.515 -0.2901 -0.0920 -0.2244
  288MOL   H11846612   1.982   3.825   3.664 -0.2145  0.7874 -0.0289
  288MOL   H11946613   1.892   3.702   3.750  1.4910  0.7059  0.9445
  288MOL   H12046614   1.748   3.685   3.551  1.0247 -1.4830  1.6009
  288MOL   H12146615   1.897   3.628   3.476 -1.0920 -2.2556  1.2935
  288MOL   C12246616   1.868   3.828   3.315 -0.7304  0.5176 -0.1424
  288MOL   C12346617   1.868   3.965   3.249 -0.2271  0.0485 -0.2340
  288MOL   C12446618   2.010   4.010   3.212 -0.0753  0.2798 -0.3230
  288MOL   O12546619   2.111   3.967   3.273  0.0313  0.1299 -0.3494
  288MOL   H12646620   1.796   3.762   3.266 -1.2906  0.1438  1.1525
  288MOL   H12746621   1.965   3.779   3.307 -0.6037  0.8115 -0.4036
  288MOL   H12846622   1.827   4.048   3.306  1.6150  0.5626  0.3609
  288MOL   H12946623   1.807   3.944   3.161 -0.0221  0.5996 -0.5123
  288MOL   C13046624   2.024   4.113   3.097  0.1681  0.5501  0.6230
  288MOL   C13146625   2.179   4.128   3.052  0.9949 -0.1701  0.2330
  288MOL   C13246626   2.217   4.007   2.965  0.4015 -0.7168  0.3732
  288MOL   O13346627   2.140   3.916   2.935  0.3125  0.4498 -0.1038
  288MOL   H13446628   1.976   4.206   3.125 -1.6093 -0.4851  1.1114
  288MOL   H13546629   1.959   4.073   3.019 -0.8696 -1.2495  2.3628
  288MOL   H13646630   2.246   4.152   3.135 -0.0053  1.7587  0.5098
  288MOL   H13746631   2.184   4.219   2.992  0.4870  0.7258  1.5302
  288MOL   C13846632   2.362   4.002   2.919  0.5712  0.1041 -0.2257
  288MOL   C13946633   2.381   3.974   2.764  0.2698  0.2542  0.1160
  288MOL   C14046634   2.492   3.878   2.733 -0.7351  0.9422  0.0608
  288MOL   O14146635   2.556   3.821   2.825 -0.5636 -0.1645  0.6578
  288MOL   H14246636   2.414   3.926   2.977 -0.2392  0.3365  0.8136
  288MOL   H14346637   2.416   4.091   2.951 -1.1943  1.0444  0.2139
  288MOL   H14446638   2.400   4.064   2.706  1.0195 -0.3320 -0.5688
  288MOL   H14546639   2.298   3.919   2.720  0.6213 -1.2962  1.3297
  288MOL   C14646640   2.507   3.832   2.589 -0.2249  0.3910 -0.2508
  288MOL   C14746641   2.600   3.716   2.566  0.4677 -0.5524  0.3707
  288MOL   C14846642   2.667   3.713   2.434 -0.3776  0.2471 -0.2710
  288MOL   O14946643   2.695   3.812   2.371  0.2956  0.1018 -0.1453
  288MOL   H15046644   2.533   3.927   2.545  1.1812  0.2243  0.2125
  288MOL   H15146645   2.409   3.824   2.542  0.5544 -2.1177 -1.5050
  288MOL   H15246646   2.543   3.627   2.591  0.7133  0.1356  3.6877
  288MOL   H15346647   2.679   3.719   2.641 -0.3376 -0.0373  1.2192
  288MOL   C15446648   2.717   3.584   2.380  0.8115 -0.3030 -0.4005
  288MOL   C15546649   2.822   3.595   2.254  0.0966  0.2591  0.0627
  288MOL   C15646650   2.883   3.458   2.209 -0.0102 -0.2063 -0.0525
  288MOL   O15746651   2.887   3.352   2.277 -0.4749  0.2610 -0.1251
  288MOL   H15846652   2.628   3.532   2.344  0.4944  0.8203 -1.2758
  288MOL   H15946653   2.766   3.536   2.465 -0.7310 -0.3792  0.4827
  288MOL   H16046654   2.904   3.665   2.268  0.1251 -0.0219  1.3900
  288MOL   H16146655   2.767   3.631   2.167  2.5980  1.6421 -0.9844
  288MOL   H16246656   2.927   3.457   2.110  1.5389  2.9931  0.5617
  289MOL     C146657   0.779   3.214   3.130  0.8533 -0.4299 -0.3773
  289MOL     C246658   0.660   3.164   3.050  0.2810 -0.0482 -0.7184
  289MOL     C346659   0.699   3.125   2.908 -0.1931 -0.0016  0.4823
  289MOL     O446660   0.816   3.137   2.870 -0.0798 -0.3016  0.1778
  289MOL     H546661   0.755   3.218   3.236  0.2326  0.1552 -0.5370
  289MOL     H646662   0.869   3.153   3.118  0.0911 -1.5139 -0.7627
  289MOL     H746663   0.587   3.245   3.052 -0.8000 -0.9710 -2.1874
  289MOL     H846664   0.618   3.078   3.102 -2.0467  0.1677 -2.1793
  289MOL     H946665   0.805   3.311   3.089 -2.6638  0.0613 -1.6044
  289MOL    C1046666   0.593   3.082   2.804  0.5187  0.5732 -0.0296
  289MOL    C1146667   0.531   3.200   2.721  0.7562 -0.4244 -0.1695
  289MOL    C1246668   0.380   3.225   2.740 -0.6182  0.4350  0.1796
  289MOL    O1346669   0.315   3.124   2.775  0.0332 -0.2155 -0.3185
  289MOL    H1446670   0.522   3.034   2.872  1.3921  1.4060  1.4991
  289MOL    H1546671   0.638   3.002   2.744  1.8394  1.5253 -0.3280
  289MOL    H1646672   0.552   3.194   2.615 -1.8267  0.2829 -0.7470
  289MOL    H1746673   0.587   3.287   2.756  0.3595 -1.3321  2.8840
  289MOL    C1846674   0.313   3.357   2.720  0.2590  0.0919  0.0875
  289MOL    C1946675   0.276   3.429   2.851  0.4517  0.0485 -0.4446
  289MOL    C2046676   0.280   3.584   2.844 -0.7023 -0.0697  0.1825
  289MOL    O2146677   0.239   3.644   2.747  0.1306  0.0744  0.0318
  289MOL    H2246678   0.217   3.336   2.674  0.3206  0.8067 -0.3783
  289MOL    H2346679   0.373   3.417   2.651  0.9963  0.0804  0.7087
  289MOL    H2446680   0.350   3.408   2.928  0.1128  4.7798  1.3791
  289MOL    H2546681   0.181   3.401   2.898 -0.0207 -0.0047 -1.4295
  289MOL    C2646682   0.335   3.660   2.971  0.3086  0.0555 -0.5245
  289MOL    C2746683   0.319   3.816   2.962  1.2111  0.7318 -0.3159
  289MOL    C2846684   0.447   3.901   2.927 -0.3840  0.2398  0.8384
  289MOL    O2946685   0.557   3.847   2.914  0.1045 -0.1488  0.0504
  289MOL    H3046686   0.442   3.641   2.980  0.3534 -2.3449 -4.7974
  289MOL    H3146687   0.280   3.616   3.054  2.4162 -0.5705  0.5555
  289MOL    H3246688   0.278   3.845   3.059  2.1413  0.4349  0.1657
  289MOL    H3346689   0.239   3.846   2.894 -0.3893 -0.8608  0.7880
  289MOL    C3446690   0.435   4.048   2.902  0.2507  0.2687  0.3393
  289MOL    C3546691   0.558   4.125   2.857  0.2603  0.0546 -0.1535
  289MOL    C3646692   0.541   4.275   2.860 -0.6059 -0.0854 -0.3362
  289MOL    O3746693   0.432   4.324   2.860  0.0301  0.1034  0.3329
  289MOL    H3846694   0.386   4.107   2.980 -2.6261  0.8259 -1.7836
  289MOL    H3946695   0.361   4.063   2.823 -1.4834 -1.4623  1.5799
  289MOL    H4046696   0.573   4.082   2.758  1.0600 -0.6537  0.2677
  289MOL    H4146697   0.634   4.095   2.928 -0.8009 -0.2574  0.8708
  289MOL    C4246698   0.671   4.354   2.856 -0.2220 -0.0004  0.1752
  289MOL    C4346699   0.643   4.493   2.807 -0.3114 -0.2486 -0.1359
  289MOL    C4446700   0.625   4.509   2.658 -0.6314 -0.3616 -0.8459
  289MOL    O4546701   0.667   4.427   2.579  0.3302  0.4888  0.4263
  289MOL    H4646702   0.743   4.301   2.794 -2.0857 -0.4255 -1.6913
  289MOL    H4746703   0.718   4.373   2.952  0.9400  0.1093 -0.4027
  289MOL    H4846704   0.727   4.558   2.829 -0.7080  1.1258 -2.4969
  289MOL    H4946705   0.550   4.534   2.847 -0.1977  0.0058 -0.1320
  289MOL    C5046706   0.566   4.642   2.610  0.8697  0.0999 -0.1459
  289MOL    C5146707   0.639   4.680   2.477  0.5342 -0.0231  0.1561
  289MOL    C5246708   0.606   4.819   2.427  0.0270 -0.4403 -0.7026
  289MOL    O5346709   0.587   4.910   2.512  0.3042 -0.0699 -0.1744
  289MOL    H5446710   0.587   4.712   2.691 -1.2896 -0.2621  0.7689
  289MOL    H5546711   0.459   4.644   2.589  0.8782 -0.0416 -0.2030
  289MOL    H5646712   0.624   4.613   2.392  1.1747  0.9419 -0.7301
  289MOL    H5746713   0.745   4.694   2.499  0.3958 -1.7349  2.0420
  289MOL    C5846714   0.582   4.841   2.278 -0.4621  0.4211  0.0686
  289MOL    C5946715   0.530   4.984   2.235 -0.7329  0.7670 -0.0532
  289MOL    C6046716   0.425   4.986   2.124  0.0200  0.0348 -0.4376
  289MOL    O6146717   0.460   4.931   2.017 -0.4501  0.4337 -0.0630
  289MOL    H6246718   0.502   4.774   2.249  0.7403 -0.4799 -1.2441
  289MOL    H6346719   0.662   4.813   2.209  1.0086 -0.6688  2.1691
  289MOL    H6446720   0.607   5.048   2.192  0.4459 -1.4504 -1.3124
  289MOL    H6546721   0.495   5.039   2.322  2.0320 -0.1718  1.7265
  289MOL    C6646722   0.293   5.068   2.139  0.5251 -0.0722  0.0034
  289MOL    C6746723   0.218   5.098   2.002  0.5976 -0.4255 -0.1210
  289MOL    C6846724   0.090   5.017   1.989 -0.5844  0.1496 -0.2790
  289MOL    O6946725   0.035   4.961   2.090 -0.1218  0.2434  0.4499
  289MOL    H7046726   0.317   5.164   2.186 -0.7010  0.3553 -0.2188
  289MOL    H7146727   0.231   5.022   2.215  2.3619  0.3408  1.8005
  289MOL    H7246728   0.285   5.094   1.916  1.2806 -1.8718  0.4605
  289MOL    H7346729   0.182   5.199   2.022 -0.5198 -1.0900  1.2815
  289MOL    C7446730   0.032   5.006   1.852  0.2648  0.1889  0.0889
  289MOL    C7546731   7.746   4.958   1.829 -0.0379 -0.1659 -0.0307
  289MOL    C7646732   7.739   4.819   1.782  0.2123  0.0532 -0.0455
  289MOL    O7746733   7.708   4.780   1.670 -0.6049 -0.1503  0.3344
  289MOL    H7846734   0.113   4.955   1.801  1.3669 -1.0599  2.9691
  289MOL    H7946735   0.033   5.110   1.819  0.7069 -0.2895 -1.4186
  289MOL    H8046736   7.703   5.021   1.751  0.7481  1.2310  0.6397
  289MOL    H8146737   7.683   4.961   1.919 -1.0767 -1.7281 -0.6861
  289MOL    C8246738   7.772   4.713   1.891 -0.1066 -0.2379  0.0932
  289MOL    C8346739   7.713   4.572   1.872  0.4682 -0.0784  0.1700
  289MOL    C8446740   7.746   4.476   1.992  0.1378  1.1861 -0.0088
  289MOL    O8546741   7.783   4.522   2.101 -0.1107  0.5571 -0.0127
  289MOL    H8646742   7.726   4.741   1.986 -1.3326  0.7471 -0.7831
  289MOL    H8746743   0.019   4.702   1.915  0.0079 -0.5835 -0.5415
  289MOL    H8846744   7.755   4.532   1.779  3.2458  0.7172  1.0411
  289MOL    H8946745   7.605   4.566   1.858  0.5210 -0.1347 -0.2166
  289MOL    C9046746   7.751   4.325   1.959 -0.2753 -0.3064 -0.2809
  289MOL    C9146747   7.810   4.240   2.082  0.9930  0.1242  0.5732
  289MOL    C9246748   0.079   4.174   2.047  0.0334  0.1855 -0.2144
  289MOL    O9346749   0.154   4.208   1.951 -0.3882  0.3874  0.7430
  289MOL    H9446750   7.802   4.305   1.864  1.1663  1.7748  0.0187
  289MOL    H9546751   7.649   4.293   1.938 -0.2945 -2.5984  2.9317
  289MOL    H9646752   7.731   4.166   2.091  1.9766 -0.9952  0.2399
  289MOL    H9746753   7.817   4.292   2.177 -2.1795  2.2578 -0.2537
  289MOL    C9846754   0.114   4.059   2.142  0.0143 -0.5029 -0.2340
  289MOL    C9946755   0.180   3.944   2.061 -0.7719  0.4843  0.4577
  289MOL   C10046756   0.185   3.806   2.128  0.5678 -0.0681  0.6143
  289MOL   O10146757   0.137   3.785   2.236  0.0470 -0.1123  0.1061
  289MOL   H10246758   0.018   4.023   2.179 -0.4839  0.2488 -0.7721
  289MOL   H10346759   0.174   4.104   2.221 -1.7718 -1.3615  1.6482
  289MOL   H10446760   0.284   3.972   2.049 -0.8965  0.6451 -0.2489
  289MOL   H10546761   0.129   3.951   1.965  1.3558 -0.7221 -0.7803
  289MOL   C10646762   0.244   3.681   2.054  0.1067  0.2058 -0.3660
  289MOL   C10746763   0.222   3.540   2.109 -0.0160  0.2002 -0.7041
  289MOL   C10846764   0.348   3.450   2.105 -0.4691 -0.2386  0.2849
  289MOL   O10946765   0.422   3.448   2.008  0.0908 -0.6107 -0.4414
  289MOL   H11046766   0.349   3.711   2.051  1.1052 -3.1385 -1.4077
  289MOL   H11146767   0.209   3.671   1.952 -0.1363  2.0994 -0.4866
  289MOL   H11246768   0.135   3.505   2.054  0.3065 -0.0808 -1.0451
  289MOL   H11346769   0.183   3.550   2.210  1.1733  0.3879 -0.2533
  289MOL   C11446770   0.356   3.335   2.201  0.4586  0.9074 -0.2640
  289MOL   C11546771   0.484   3.251   2.187 -0.3972 -0.3788  0.3640
  289MOL   C11646772   0.494   3.138   2.294  0.2762  0.2456  0.5447
  289MOL   O11746773   0.421   3.146   2.391 -0.3890  0.2585  0.3644
  289MOL   H11846774   0.278   3.261   2.185  1.8208 -0.9783  1.5199
  289MOL   H11946775   0.358   3.374   2.303  0.3338  2.0145 -0.6762
  289MOL   H12046776   0.567   3.321   2.201  0.5278 -1.4925  0.4869
  289MOL   H12146777   0.493   3.201   2.091  2.3251  0.8359 -0.0843
  289MOL   C12246778   0.595   3.027   2.269  0.1190  0.0924 -0.0523
  289MOL   C12346779   0.548   2.895   2.321 -0.5417  0.1456 -0.1083
  289MOL   C12446780   0.632   2.783   2.261  0.4025  0.3377 -0.5455
  289MOL   O12546781   0.743   2.804   2.213 -0.6387 -0.2621 -0.2715
  289MOL   H12646782   0.690   3.043   2.321 -0.4875 -0.2169  1.1876
  289MOL   H12746783   0.624   3.029   2.164 -0.8963 -0.2411 -0.3450
  289MOL   H12846784   0.441   2.878   2.312 -0.3126  0.6846 -5.1294
  289MOL   H12946785   0.568   2.893   2.429 -0.2130  2.2907 -0.1011
  289MOL   C13046786   0.562   2.643   2.266  0.0166  0.7642  0.2026
  289MOL   C13146787   0.632   2.555   2.155 -0.0832 -0.6198  0.1013
  289MOL   C13246788   0.537   2.489   2.054 -0.2267  0.9105 -0.2556
  289MOL   O13346789   0.413   2.475   2.071 -0.0475  0.0216 -0.2201
  289MOL   H13446790   0.458   2.666   2.242  0.5062  2.1906 -0.6844
  289MOL   H13546791   0.562   2.597   2.364 -2.1912 -1.2266 -0.6971
  289MOL   H13646792   0.691   2.479   2.207 -1.5801 -1.1725  1.0038
  289MOL   H13746793   0.712   2.603   2.097 -0.6914 -0.3639 -0.5301
  289MOL   C13846794   0.608   2.442   1.928  1.0052  0.4309  0.9951
  289MOL   C13946795   0.536   2.505   1.806  0.2456 -0.2083  0.5279
  289MOL   C14046796   0.640   2.561   1.707  0.1594  0.4842  1.0466
  289MOL   O14146797   0.747   2.602   1.745  0.5667 -0.2945 -0.2926
  289MOL   H14246798   0.614   2.333   1.927 -0.4045  0.3426  1.1334
  289MOL   H14346799   0.714   2.469   1.927  0.8716  0.9632  1.1549
  289MOL   H14446800   0.488   2.599   1.834  0.4984 -0.3524  1.4689
  289MOL   H14546801   0.460   2.442   1.759  0.5026  0.3782 -0.7045
  289MOL   C14646802   0.618   2.558   1.557  0.6363  0.9132 -0.0320
  289MOL   C14746803   0.599   2.418   1.506  0.3476  0.9450  0.3692
  289MOL   C14846804   0.651   2.396   1.363 -0.3606  0.3526 -0.0585
  289MOL   O14946805   0.741   2.470   1.316  0.4014  0.5881 -0.3165
  289MOL   H15046806   0.699   2.614   1.510  1.3486 -0.3621 -0.3308
  289MOL   H15146807   0.531   2.622   1.540  0.3181  0.4157 -0.2821
  289MOL   H15246808   0.492   2.399   1.504  0.5883 -0.4774  0.8557
  289MOL   H15346809   0.643   2.343   1.571  2.1888  1.8995  0.2728
  289MOL   C15446810   0.573   2.302   1.272  0.4589 -0.0662 -0.1761
  289MOL   C15546811   0.554   2.368   1.127 -0.1248 -0.2081 -0.3530
  289MOL   C15646812   0.436   2.303   1.058 -0.4134 -0.3806 -0.9421
  289MOL   O15746813   0.443   2.187   1.009  0.4794  0.2027 -0.2991
  289MOL   H15846814   0.484   2.274   1.329  0.9632 -0.7414  0.2917
  289MOL   H15946815   0.638   2.215   1.267 -0.7013 -1.0786  1.7393
  289MOL   H16046816   0.647   2.345   1.075  1.2953 -0.8795  2.3683
  289MOL   H16146817   0.523   2.473   1.133 -0.5071 -0.3960  1.5390
  289MOL   H16246818   0.346   2.365   1.049  0.4975  0.9815 -0.8130
  290MOL     C146819   6.167   0.035   3.069  0.1432  0.2465 -0.1932
  290MOL     C246820   6.075   0.097   3.177  0.3054  0.5550  0.0549
  290MOL     C346821   6.144   0.192   3.270  0.1153 -0.5610  0.1787
  290MOL     O446822   6.102   0.213   3.381  0.0557 -0.2501 -0.1939
  290MOL     H546823   6.266   0.006   3.105 -0.3995  0.4586  1.4959
  290MOL     H646824   6.127   7.799   3.033 -1.9918  0.4647  1.5288
  290MOL     H746825   6.010   0.022   3.222 -1.2979  1.8227 -0.1122
  290MOL     H846826   6.002   0.163   3.130 -0.4447  0.7793  1.4847
  290MOL     H946827   6.188   0.100   2.983  1.3815  0.0126 -0.0841
  290MOL    C1046828   6.277   0.258   3.231 -1.2053  0.0155 -1.0504
  290MOL    C1146829   6.346   0.331   3.348  0.6299  0.5110  0.0262
  290MOL    C1246830   6.491   0.357   3.318  0.1086 -0.1543 -0.8387
  290MOL    O1346831   6.523   0.377   3.201 -0.0803  0.1278 -0.6021
  290MOL    H1446832   6.254   0.327   3.150 -0.8054 -0.0323 -1.2098
  290MOL    H1546833   6.350   0.187   3.191  0.1479  1.4576 -1.2037
  290MOL    H1646834   6.338   0.287   3.447  2.0051  2.1336  0.8969
  290MOL    H1746835   6.301   0.428   3.370 -0.0039  0.1413  0.3754
  290MOL    C1846836   6.589   0.371   3.439 -0.5688  0.8290  0.4221
  290MOL    C1946837   6.732   0.399   3.391 -0.4558 -0.0614 -0.4766
  290MOL    C2046838   6.778   0.546   3.360  1.2756  0.0786 -0.2937
  290MOL    O2146839   6.769   0.632   3.449  0.2085 -0.4374 -0.2151
  290MOL    H2246840   6.587   0.282   3.503  0.7684  0.4294 -0.0628
  290MOL    H2346841   6.549   0.452   3.499 -0.8179 -0.6502  2.2785
  290MOL    H2446842   6.763   0.344   3.303  1.0645 -0.8497  0.5168
  290MOL    H2546843   6.802   0.352   3.460  0.9444 -0.4589 -2.1365
  290MOL    C2646844   6.814   0.578   3.210 -0.4290  0.0636 -0.8807
  290MOL    C2746845   6.753   0.712   3.166  0.0862 -0.7756 -0.6300
  290MOL    C2846846   6.685   0.707   3.030  0.4695  0.3533 -0.0195
  290MOL    O2946847   6.737   0.643   2.941 -0.5356 -0.2980  0.0060
  290MOL    H3046848   6.763   0.497   3.157  2.2512 -1.8869 -0.5626
  290MOL    H3146849   6.921   0.566   3.199 -0.6355 -1.4624 -1.3637
  290MOL    H3246850   6.820   0.798   3.164  1.5708 -1.9593 -3.5653
  290MOL    H3346851   6.673   0.751   3.229  0.6585  0.1982 -0.4937
  290MOL    C3446852   6.557   0.782   3.007  0.1630  0.2151  0.4766
  290MOL    C3546853   6.436   0.690   3.029  0.0141  0.2918 -0.9719
  290MOL    C3646854   6.314   0.756   3.093  0.4864  0.1957 -0.2371
  290MOL    O3746855   6.300   0.876   3.110  0.0597 -0.0739  0.3484
  290MOL    H3846856   6.559   0.824   2.906 -0.1970 -0.6626  0.0956
  290MOL    H3946857   6.557   0.875   3.064 -1.3918 -1.3562  3.1229
  290MOL    H4046858   6.465   0.620   3.108  1.0079 -0.2815 -1.8380
  290MOL    H4146859   6.403   0.637   2.940  1.2879  0.4494 -1.5533
  290MOL    C4246860   6.210   0.654   3.144  0.1936 -0.0573  0.0832
  290MOL    C4346861   6.112   0.631   3.031  0.6563 -0.1694  0.0570
  290MOL    C4446862   6.047   0.499   3.037 -0.6916  0.0118  0.2608
  290MOL    O4546863   6.093   0.391   2.995  0.1411  0.6930  0.3253
  290MOL    H4646864   6.163   0.694   3.234  1.4865  1.2360  0.2048
  290MOL    H4746865   6.257   0.561   3.176  0.6586  0.6415  1.4884
  290MOL    H4846866   6.160   0.634   2.933  0.2715  2.7757 -0.0972
  290MOL    H4946867   6.033   0.706   3.029  0.5714 -0.2399  0.5970
  290MOL    C5046868   5.909   0.489   3.097 -0.0260  0.0445 -0.2287
  290MOL    C5146869   5.807   0.473   2.983  0.1702  0.2610  0.3570
  290MOL    C5246870   5.677   0.553   3.001 -0.0374 -0.7463 -0.2928
  290MOL    O5346871   5.674   0.654   3.073  0.4927  0.2243  0.1634
  290MOL    H5446872   5.884   0.580   3.152  0.5636  1.2321 -1.8691
  290MOL    H5546873   5.913   0.403   3.163  0.2894  1.8045  2.1539
  290MOL    H5646874   5.797   0.365   2.967  2.8101  0.0146  0.1878
  290MOL    H5746875   5.851   0.512   2.891 -1.3406 -1.4794 -1.1374
  290MOL    C5846876   5.551   0.505   2.926  0.0864 -0.4069  0.4282
  290MOL    C5946877   5.423   0.492   3.018 -0.5760 -0.3042  0.4909
  290MOL    C6046878   5.303   0.572   2.970  0.6090  0.1371  0.0178
  290MOL    O6146879   5.188   0.526   2.993 -0.6823 -1.4883 -0.3835
  290MOL    H6246880   5.558   0.404   2.886  1.2498  0.0798 -0.6111
  290MOL    H6346881   5.533   0.575   2.845  1.4147  0.5521  0.9566
  290MOL    H6446882   5.453   0.511   3.121 -0.8401 -1.0315  0.7024
  290MOL    H6546883   5.388   0.389   3.023  0.5109 -0.7357 -0.7466
  290MOL    C6646884   5.322   0.714   2.933  0.2197 -0.5092  0.0062
  290MOL    C6746885   5.207   0.804   2.972  0.0098  0.5236  0.2244
  290MOL    C6846886   5.197   0.943   2.902 -0.0149 -0.8355  0.6346
  290MOL    O6946887   5.285   0.992   2.832 -0.2175 -0.5866 -0.0068
  290MOL    H7046888   5.380   0.732   2.842  0.4285  2.7774  0.7239
  290MOL    H7146889   5.401   0.750   2.998  0.3265 -2.2646  0.8658
  290MOL    H7246890   5.217   0.810   3.081 -0.1423 -2.7884  0.4556
  290MOL    H7346891   5.107   0.761   2.962  1.3229 -2.0467 -2.4844
  290MOL    C7446892   5.065   1.020   2.930  0.2387 -0.0558  0.6661
  290MOL    C7546893   5.053   1.159   2.859  0.7725  0.6939 -0.5372
  290MOL    C7646894   4.926   1.227   2.892  0.0176  0.7318  0.2084
  290MOL    O7746895   4.868   1.213   2.999 -0.0142 -0.2511 -0.6420
  290MOL    H7846896   5.068   1.033   3.039 -1.2260 -1.0086  0.8310
  290MOL    H7946897   4.977   0.958   2.911 -2.2868  2.1317  4.4883
  290MOL    H8046898   5.074   1.142   2.753  0.3729 -1.0519 -0.3515
  290MOL    H8146899   5.133   1.225   2.894 -0.5970  2.1701 -0.1222
  290MOL    C8246900   4.884   1.350   2.802 -0.0811 -0.5385  0.5063
  290MOL    C8346901   4.758   1.428   2.847 -0.0689  0.0901  0.1096
  290MOL    C8446902   4.659   1.481   2.735  0.0648  0.6196  0.1144
  290MOL    O8546903   4.662   1.436   2.617  0.1313 -0.4083  0.2371
  290MOL    H8646904   4.872   1.340   2.694  0.8991 -0.6952  0.4130
  290MOL    H8746905   4.965   1.422   2.805  0.3785 -1.0727  0.9391
  290MOL    H8846906   4.773   1.509   2.918  0.3388  1.9575 -2.0671
  290MOL    H8946907   4.695   1.349   2.888  0.9267 -1.4095 -1.1759
  290MOL    C9046908   4.561   1.590   2.773 -0.2520  0.1661 -0.2754
  290MOL    C9146909   4.418   1.554   2.746 -0.4682  0.0305 -0.2296
  290MOL    C9246910   4.352   1.642   2.644  0.9985  0.2369 -0.3765
  290MOL    O9346911   4.414   1.732   2.583 -0.3625  0.7181 -0.0519
  290MOL    H9446912   4.582   1.683   2.720  0.1961  0.0833 -0.2488
  290MOL    H9546913   4.572   1.611   2.880 -1.2931  1.2036 -0.3595
  290MOL    H9646914   4.361   1.566   2.839  0.8243  1.1899  0.4367
  290MOL    H9746915   4.395   1.450   2.723 -1.1253  0.6165 -2.2786
  290MOL    C9846916   4.213   1.606   2.610  0.4607 -0.1219  0.0788
  290MOL    C9946917   4.158   1.676   2.483  0.6431  0.0828 -0.8705
  290MOL   C10046918   4.088   1.572   2.395  0.0891  0.7896  0.7213
  290MOL   O10146919   4.139   1.457   2.377  0.1477  0.3254  0.4377
  290MOL   H10246920   4.151   1.619   2.698  2.5513  1.0602  1.4256
  290MOL   H10346921   4.226   1.501   2.587  1.2952  0.4071 -2.0191
  290MOL   H10446922   4.231   1.729   2.422 -0.0313  2.9302  0.6934
  290MOL   H10546923   4.083   1.751   2.509 -1.4322 -2.0710 -0.4952
  290MOL   C10646924   3.950   1.609   2.343 -0.6173  0.3462  0.3173
  290MOL   C10746925   3.872   1.488   2.277 -0.0129 -0.1727 -0.3001
  290MOL   C10846926   3.797   1.416   2.382 -0.4510  0.0461 -0.6096
  290MOL   O10946927   3.818   1.442   2.502 -0.2914  0.2769 -0.1053
  290MOL   H11046928   3.961   1.688   2.269  1.8202  0.8998  1.2489
  290MOL   H11146929   3.895   1.645   2.430 -0.9499 -0.9404  0.6494
  290MOL   H11246930   3.936   1.424   2.216 -1.0493 -1.3204 -0.1997
  290MOL   H11346931   3.799   1.530   2.208  0.3684  0.7602 -0.1501
  290MOL   C11446932   3.691   1.315   2.336  0.7100  0.3092  0.0466
  290MOL   C11546933   3.669   1.205   2.441  0.2712  0.2608  0.2703
  290MOL   C11646934   3.673   1.060   2.386  0.5166 -0.2710  0.0347
  290MOL   O11746935   3.643   1.031   2.272  0.1528 -0.6184 -0.0955
  290MOL   H11846936   3.736   1.260   2.253 -0.0058 -1.9058  1.0759
  290MOL   H11946937   3.605   1.374   2.305  0.7542  0.7078  0.6704
  290MOL   H12046938   3.570   1.224   2.482  0.3682 -0.4821  0.8613
  290MOL   H12146939   3.740   1.221   2.523 -2.3162  2.0305  2.2418
  290MOL   C12246940   3.730   0.956   2.476  0.7952 -0.2527 -0.6890
  290MOL   C12346941   3.689   0.816   2.455  0.2177 -0.3321  0.2268
  290MOL   C12446942   3.765   0.713   2.540  0.0072 -0.5138  0.3921
  290MOL   O12546943   3.792   0.747   2.653  0.7121 -0.3947 -0.2080
  290MOL   H12646944   3.694   0.986   2.575 -0.9797 -0.9889 -1.1044
  290MOL   H12746945   3.839   0.951   2.477  1.0393  2.4135 -4.4150
  290MOL   H12846946   3.690   0.794   2.348 -0.9498 -1.7132  0.4797
  290MOL   H12946947   3.586   0.798   2.486 -0.3189  0.7468 -0.9031
  290MOL   C13046948   3.782   0.574   2.488 -1.3407  0.3590 -0.1220
  290MOL   C13146949   3.827   0.471   2.601 -0.5626  0.8415 -0.2706
  290MOL   C13246950   3.870   0.330   2.551 -0.6069 -0.0526 -0.4343
  290MOL   O13346951   3.897   0.311   2.428 -0.0723  0.2950  0.3706
  290MOL   H13446952   3.864   0.575   2.417 -0.1733 -2.0642  1.1364
  290MOL   H13546953   3.702   0.526   2.431 -1.5592  1.4283 -0.7376
  290MOL   H13646954   3.757   0.451   2.682 -0.7344 -0.1322 -0.6565
  290MOL   H13746955   3.913   0.512   2.653 -0.0982  1.5588 -1.5650
  290MOL   C13846956   3.874   0.219   2.647  0.0898  0.2951  0.1669
  290MOL   C13946957   3.758   0.116   2.630  0.3043  0.3523 -0.3853
  290MOL   C14046958   3.631   0.136   2.706 -0.0791 -0.1361  0.1360
  290MOL   O14146959   3.597   0.246   2.741 -0.2010  0.1303 -0.1173
  290MOL   H14246960   3.868   0.251   2.751  0.5784 -0.4745  0.4361
  290MOL   H14346961   3.965   0.160   2.635 -1.0646 -1.9128  1.8790
  290MOL   H14446962   3.794   0.014   2.640 -0.2675  0.4471  3.4253
  290MOL   H14546963   3.732   0.113   2.524 -0.8922 -2.3874 -0.0536
  290MOL   C14646964   3.544   0.009   2.739 -0.2569  0.6435 -0.0182
  290MOL   C14746965   3.398   0.044   2.782  0.3333 -0.3372  0.2608
  290MOL   C14846966   3.307   7.841   2.671  0.2177  0.2512  0.1854
  290MOL   O14946967   3.303   7.716   2.653  0.2665  0.6136 -0.1799
  290MOL   H15046968   3.587   7.804   2.816  2.2290 -0.2738 -2.1118
  290MOL   H15146969   3.546   7.806   2.649 -0.4722  0.4214  0.1297
  290MOL   H15246970   3.386   0.152   2.786 -1.6153 -0.5566  1.6943
  290MOL   H15346971   3.371   0.004   2.880 -2.9273  2.1127  0.4399
  290MOL   C15446972   3.213   0.084   2.595 -0.0027  0.3859  0.7934
  290MOL   C15546973   3.123   0.002   2.496 -0.2952 -0.3841 -0.2134
  290MOL   C15646974   3.138   0.048   2.354  0.0405 -0.0014  0.2242
  290MOL   O15746975   3.098   0.164   2.329 -0.0573  0.3967 -0.3833
  290MOL   H15846976   3.277   0.163   2.555 -0.2029 -0.7014 -1.7905
  290MOL   H15946977   3.141   0.133   2.661  0.2778 -0.2482  1.5754
  290MOL   H16046978   3.025   0.021   2.541 -0.2581  0.0061 -0.2911
  290MOL   H16146979   3.136   7.754   2.484  0.7891 -0.7733  3.8867
  290MOL   H16246980   3.193   7.842   2.286 -3.0818 -1.4014 -1.0315
  291MOL     C146981   3.079   3.157   4.150 -0.0156  0.1133 -0.2970
  291MOL     C246982   3.126   3.241   4.268  0.0710  0.4548 -0.8038
  291MOL     C346983   3.124   3.169   4.403 -0.1796 -0.2179  0.9024
  291MOL     O446984   3.231   3.158   4.467 -0.3176  0.2596 -0.1320
  291MOL     H546985   3.150   3.169   4.068  1.7296  0.5166  1.2672
  291MOL     H646986   3.080   3.054   4.185  0.7497  0.6003  1.1101
  291MOL     H746987   3.051   3.320   4.274 -1.9273 -1.5162  2.2074
  291MOL     H846988   3.221   3.291   4.250  0.4556  0.6404  1.5578
  291MOL     H946989   2.980   3.177   4.108 -0.3579  0.4606  0.6596
  291MOL    C1046990   2.990   3.130   4.460 -0.1692 -0.4389  0.1506
  291MOL    C1146991   3.001   3.018   4.571 -0.5973 -0.4130  0.1731
  291MOL    C1246992   2.922   2.888   4.541 -0.4743 -0.0020 -0.5439
  291MOL    O1346993   2.800   2.888   4.562 -0.3495 -0.5004  0.5801
  291MOL    H1446994   2.923   3.092   4.383 -0.4518  0.8172 -0.2201
  291MOL    H1546995   2.939   3.211   4.511  0.5364 -1.9040  3.3235
  291MOL    H1646996   2.950   3.048   4.663  0.4392 -2.8426  1.5819
  291MOL    H1746997   3.102   2.999   4.607 -0.8292 -1.3842  0.3311
  291MOL    C1846998   2.990   2.765   4.484  0.2459 -0.1907  0.1602
  291MOL    C1946999   3.129   2.780   4.416  0.2035  0.0021 -0.1000
  291MOL    C2047000   3.245   2.746   4.514  0.7676 -0.8744  0.4131
  291MOL    O2147001   3.258   2.808   4.617 -0.2173  0.0075 -0.2628
  291MOL    H2247002   2.932   2.734   4.397  3.0510  2.4992 -2.8093
  291MOL    H2347003   2.983   2.681   4.553 -0.6118  0.0032  0.3228
  291MOL    H2447004   3.156   2.874   4.368  1.6526 -1.3932 -2.1039
  291MOL    H2547005   3.135   2.728   4.321 -1.1811 -0.3469 -0.0038
  291MOL    C2647006   3.327   2.627   4.483  0.5073 -0.5585  0.3045
  291MOL    C2747007   3.447   2.613   4.575  0.2384 -0.6325 -0.4817
  291MOL    C2847008   3.440   2.497   4.670  0.4481  0.4644 -0.0718
  291MOL    O2947009   3.523   2.406   4.667  0.4399 -0.1191 -0.0313
  291MOL    H3047010   3.357   2.635   4.378  1.9517 -0.5682  0.7068
  291MOL    H3147011   3.259   2.542   4.488  0.9096 -0.9451 -0.7510
  291MOL    H3247012   3.473   2.699   4.635  0.2785 -0.2782 -0.9979
  291MOL    H3347013   3.542   2.590   4.526  0.3515 -0.1442 -0.4875
  291MOL    C3447014   3.332   2.515   4.780  0.7987  0.3282 -0.4750
  291MOL    C3547015   3.328   2.407   4.893 -0.2838 -0.1154  0.7825
  291MOL    C3647016   3.348   2.456   5.033 -0.6199  0.5388  0.0184
  291MOL    O3747017   3.359   2.573   5.066 -0.0154 -0.2323  0.5127
  291MOL    H3847018   3.236   2.522   4.729  1.3030  0.0854 -1.4701
  291MOL    H3947019   3.344   2.610   4.831 -2.1231 -0.5810  2.0379
  291MOL    H4047020   3.402   2.329   4.874 -0.3158 -0.0355  0.3392
  291MOL    H4147021   3.233   2.357   4.879 -1.0717  1.7537 -0.7934
  291MOL    C4247022   3.368   2.346   5.142 -0.5714  0.9062  0.0761
  291MOL    C4347023   3.333   2.391   5.283  0.5761  0.5045 -0.0510
  291MOL    C4447024   3.182   2.388   5.322  0.2819 -0.3210  0.4590
  291MOL    O4547025   3.126   2.286   5.379 -0.7223 -0.1234 -0.5072
  291MOL    H4647026   3.474   2.324   5.149 -0.6369 -0.3180 -2.2362
  291MOL    H4747027   3.306   2.257   5.125  0.0684  0.2511  1.1198
  291MOL    H4847028   3.386   2.481   5.313  1.7937 -1.3137  3.4846
  291MOL    H4947029   3.387   2.329   5.354 -1.7649 -0.4712  0.9245
  291MOL    C5047030   3.088   2.502   5.276 -0.2913  0.5003  0.1186
  291MOL    C5147031   2.983   2.543   5.375  0.6219 -0.0717 -0.0585
  291MOL    C5247032   2.846   2.573   5.319 -0.3390 -0.5801  1.1862
  291MOL    O5347033   2.829   2.596   5.200 -0.2066 -0.3106 -0.2140
  291MOL    H5447034   3.032   2.472   5.187 -2.1023  1.2601  0.9945
  291MOL    H5547035   3.141   2.595   5.257  2.4349 -0.9463  0.3577
  291MOL    H5647036   3.025   2.625   5.433  0.0437 -1.1841  1.9792
  291MOL    H5747037   2.971   2.468   5.453  0.8257 -0.4958 -0.4343
  291MOL    C5847038   2.728   2.598   5.416 -0.2725  0.0047  0.4667
  291MOL    C5947039   2.614   2.677   5.353 -0.4972 -0.7429 -0.2144
  291MOL    C6047040   2.506   2.695   5.462 -0.3950 -0.0716  0.0824
  291MOL    O6147041   2.537   2.683   5.584 -0.1974  0.5135  0.6480
  291MOL    H6247042   2.764   2.642   5.509  1.2949  1.7464 -0.9360
  291MOL    H6347043   2.687   2.502   5.448 -0.9795  0.3587  0.6241
  291MOL    H6447044   2.577   2.628   5.263  0.2214 -1.4560 -0.1274
  291MOL    H6547045   2.655   2.776   5.338  1.5384 -1.1527  2.2824
  291MOL    C6647046   2.367   2.725   5.413  0.3735  0.2493  0.1865
  291MOL    C6747047   2.262   2.745   5.523  0.5831 -0.0859  0.4552
  291MOL    C6847048   2.144   2.650   5.516 -0.4038  0.1363  0.2646
  291MOL    O6947049   2.031   2.687   5.487 -0.3998 -0.7484 -0.2153
  291MOL    H7047050   2.338   2.639   5.352  0.5904 -0.7067  1.4131
  291MOL    H7147051   2.369   2.818   5.357  2.7006  0.7723  1.0513
  291MOL    H7247052   2.224   2.847   5.530  2.4294  0.7405 -1.0978
  291MOL    H7347053   2.310   2.745   5.621  0.3581 -0.5955  0.5644
  291MOL    C7447054   2.174   2.509   5.550 -0.8121 -0.3172  0.3507
  291MOL    C7547055   2.048   2.416   5.551 -0.4124 -0.0248 -0.6459
  291MOL    C7647056   2.050   2.321   5.434 -0.3517 -0.0839  0.5859
  291MOL    O7747057   2.090   2.357   5.322 -0.0727  0.0861  0.1271
  291MOL    H7847058   2.194   2.507   5.657  0.6929  1.4215  0.1348
  291MOL    H7947059   2.261   2.472   5.496 -0.6999  1.3682 -0.6612
  291MOL    H8047060   1.948   2.459   5.558  0.4438  1.6565  1.7414
  291MOL    H8147061   2.051   2.353   5.639 -0.8401  0.3011 -0.3955
  291MOL    C8247062   2.003   2.180   5.457  0.8059 -0.1371 -0.0713
  291MOL    C8347063   2.084   2.081   5.385  0.1902  0.6763  0.2569
  291MOL    C8447064   2.062   1.944   5.442  0.4796  0.2242 -0.7815
  291MOL    O8547065   1.977   1.918   5.529  0.6670  0.2155  0.3160
  291MOL    H8647066   1.902   2.169   5.419  0.6185  1.9294 -0.2229
  291MOL    H8747067   1.997   2.168   5.566 -2.9751 -0.1736 -0.2091
  291MOL    H8847068   2.191   2.104   5.380  0.2143  0.4529 -0.2774
  291MOL    H8947069   2.052   2.080   5.281 -1.1145 -2.7631  0.6149
  291MOL    C9047070   2.164   1.835   5.403  0.7503  0.0494  0.4042
  291MOL    C9147071   2.166   1.712   5.490 -0.2666  0.3825  0.1254
  291MOL    C9247072   2.268   1.609   5.454 -0.7652 -0.2073  0.8218
  291MOL    O9347073   2.353   1.627   5.364  0.5097  0.4029  0.2295
  291MOL    H9447074   2.262   1.881   5.403  0.5699  0.4502 -0.6509
  291MOL    H9547075   2.137   1.808   5.301  0.5451 -1.4746  0.8576
  291MOL    H9647076   2.077   1.652   5.474 -1.4471  2.2987 -0.7252
  291MOL    H9747077   2.173   1.726   5.598  1.5164  0.9143 -0.0367
  291MOL    C9847078   2.284   1.488   5.547 -0.2740  0.1129 -0.1670
  291MOL    C9947079   2.429   1.433   5.558 -0.5855  0.0189  0.5250
  291MOL   C10047080   2.471   1.338   5.445  0.0217 -1.1820 -0.9780
  291MOL   O10147081   2.395   1.289   5.361  0.4629 -0.4814 -0.1155
  291MOL   H10247082   2.224   1.401   5.520 -0.1733 -0.4757  1.4430
  291MOL   H10347083   2.252   1.514   5.648 -0.1653  1.0793 -0.3729
  291MOL   H10447084   2.449   1.362   5.639  0.2615  1.6121  1.7276
  291MOL   H10547085   2.501   1.514   5.566  0.6133 -1.0715  0.9070
  291MOL   C10647086   2.617   1.314   5.440  0.3762  0.0920 -0.7677
  291MOL   C10747087   2.642   1.174   5.375 -0.2520 -0.7924  0.3285
  291MOL   C10847088   2.679   1.192   5.224 -0.7125  0.1140 -0.4887
  291MOL   O10947089   2.708   1.305   5.182  0.3568  0.9468  0.0086
  291MOL   H11047090   2.661   1.306   5.539  1.3283  2.9399 -0.9144
  291MOL   H11147091   2.679   1.387   5.388 -0.9129  1.7033 -0.1029
  291MOL   H11247092   2.554   1.111   5.387 -2.3404  1.7873 -1.0062
  291MOL   H11347093   2.720   1.118   5.426 -0.1922  1.1359  2.4119
  291MOL   C11447094   2.678   1.072   5.139  0.5828 -0.3413  0.5122
  291MOL   C11547095   2.753   1.106   5.007 -0.4778  0.7874 -0.4515
  291MOL   C11647096   2.660   1.161   4.890 -0.3246 -0.3300  0.5925
  291MOL   O11747097   2.551   1.104   4.865 -0.3800 -0.0716 -0.6200
  291MOL   H11847098   2.572   1.046   5.133  0.9296 -1.4000 -1.1455
  291MOL   H11947099   2.721   0.992   5.199 -1.0752 -1.2911  0.4652
  291MOL   H12047100   2.789   1.011   4.968 -2.9921 -0.7759  0.8684
  291MOL   H12147101   2.831   1.178   5.033 -2.1489  1.7443  2.1688
  291MOL   C12247102   2.716   1.275   4.807 -0.6053  0.2290  0.3871
  291MOL   C12347103   2.640   1.315   4.681  0.2455  0.4951  0.2874
  291MOL   C12447104   2.719   1.418   4.597 -0.7904  0.0931 -0.8704
  291MOL   O12547105   2.810   1.489   4.646 -0.1480 -0.4633 -0.0733
  291MOL   H12647106   2.822   1.256   4.787 -0.1459  3.3336 -0.4516
  291MOL   H12747107   2.720   1.360   4.877  3.0550  0.4683  0.0169
  291MOL   H12847108   2.542   1.350   4.714  0.5485 -0.8989  2.7787
  291MOL   H12947109   2.612   1.228   4.621  2.8591 -1.3128  1.6041
  291MOL   C13047110   2.682   1.419   4.450  0.2704 -0.4648  0.2823
  291MOL   C13147111   2.538   1.464   4.426 -0.1692  0.3323 -0.6892
  291MOL   C13247112   2.520   1.582   4.333  0.5387 -0.3376 -0.4570
  291MOL   O13347113   2.578   1.586   4.224  0.0796 -0.0366 -0.3054
  291MOL   H13447114   2.690   1.314   4.425  0.3779 -1.2941  3.5231
  291MOL   H13547115   2.755   1.465   4.383  1.2977 -0.7341  1.1969
  291MOL   H13647116   2.486   1.487   4.520  0.6073  1.1051 -0.4359
  291MOL   H13747117   2.482   1.382   4.383  0.6867  0.4895 -2.1234
  291MOL   C13847118   2.427   1.692   4.372 -0.0100 -0.9075  0.2461
  291MOL   C13947119   2.465   1.830   4.308 -0.7290  0.8118  0.9185
  291MOL   C14047120   2.420   1.956   4.392  0.0000  0.6420  0.6111
  291MOL   O14147121   2.312   1.954   4.449 -0.2907  0.1828  0.0195
  291MOL   H14247122   2.439   1.703   4.480 -1.8179  1.4781  0.2419
  291MOL   H14347123   2.324   1.668   4.343  0.0203 -0.5993 -0.1155
  291MOL   H14447124   2.424   1.834   4.207 -2.3299 -3.2276  1.2795
  291MOL   H14547125   2.573   1.837   4.306 -0.6117 -0.8501 -1.2341
  291MOL   C14647126   2.514   2.074   4.396 -0.1601 -0.0761 -0.3323
  291MOL   C14747127   2.457   2.197   4.477  0.4333  1.2099  0.1348
  291MOL   C14847128   2.527   2.333   4.437 -0.1116  0.4283  0.5547
  291MOL   O14947129   2.595   2.334   4.334 -0.2073 -0.1703 -0.1325
  291MOL   H15047130   2.517   2.096   4.290  0.2969 -1.2606 -0.5689
  291MOL   H15147131   2.614   2.053   4.434  0.0330  2.0647  0.4266
  291MOL   H15247132   2.490   2.193   4.581  2.5112 -2.3398 -0.5749
  291MOL   H15347133   2.350   2.213   4.465  0.2100 -0.1570  0.2843
  291MOL   C15447134   2.509   2.453   4.536 -0.1795 -0.9778 -0.2724
  291MOL   C15547135   2.581   2.578   4.500 -0.3138 -0.5924 -0.4569
  291MOL   C15647136   2.543   2.698   4.587 -0.1068 -0.1840 -0.3555
  291MOL   O15747137   2.559   2.692   4.708  0.3997 -0.2810 -0.4467
  291MOL   H15847138   2.537   2.418   4.635 -1.7443 -2.2709 -0.2722
  291MOL   H15947139   2.401   2.468   4.539  0.0097  0.3493  0.1269
  291MOL   H16047140   2.584   2.622   4.401 -2.1478  1.3173  0.3119
  291MOL   H16147141   2.684   2.558   4.532 -0.4769  0.0014  0.4605
  291MOL   H16247142   2.503   2.789   4.542  0.8685  0.4127 -0.0381
  292MOL     C147143   7.493   1.055   2.907 -0.2977  0.5994 -0.1305
  292MOL     C247144   7.570   1.125   2.792  0.7209  0.4637  0.0137
  292MOL     C347145   7.626   1.032   2.690 -0.5894 -0.1618 -0.3497
  292MOL     O447146   7.563   1.000   2.594 -0.0815 -0.5255  0.5267
  292MOL     H547147   7.544   0.965   2.943 -3.0302 -1.1794 -0.5159
  292MOL     H647148   7.494   1.117   2.997 -1.2413  0.4226  0.0084
  292MOL     H747149   7.662   1.167   2.832  0.9833  2.2907 -2.3704
  292MOL     H847150   7.509   1.199   2.738  0.4866 -0.1683 -0.5988
  292MOL     H947151   7.388   1.035   2.884  0.0395 -0.4726 -0.7483
  292MOL    C1047152   7.756   0.958   2.727  0.3113 -0.5304 -0.1300
  292MOL    C1147153   7.733   0.804   2.724  0.7335 -0.3060 -0.2493
  292MOL    C1247154   7.741   0.735   2.857  0.2950  0.4563  0.0757
  292MOL    O1347155   7.824   0.775   2.933 -0.2554  0.4557  0.1019
  292MOL    H1447156   7.811   0.996   2.813 -0.4070 -1.8483  0.9179
  292MOL    H1547157   7.813   0.992   2.641  0.0136 -2.1822 -0.9954
  292MOL    H1647158   7.810   0.762   2.661  1.2068  0.6902 -0.3458
  292MOL    H1747159   7.638   0.773   2.679  1.1800 -0.4804 -1.0687
  292MOL    C1847160   7.650   0.623   2.904  0.3245 -0.4705 -0.7144
  292MOL    C1947161   7.676   0.558   3.042  0.3978 -0.0964 -0.3826
  292MOL    C2047162   7.801   0.465   3.060 -0.1750  0.5541  0.3276
  292MOL    O2147163   0.004   0.422   2.960  0.2388 -0.5296  0.0899
  292MOL    H2247164   7.647   0.546   2.827  0.8541 -0.9943 -0.2149
  292MOL    H2347165   7.547   0.660   2.900  0.6855  0.6090 -0.0495
  292MOL    H2447166   7.586   0.500   3.067  0.7449  0.2809  1.8927
  292MOL    H2547167   7.689   0.624   3.128  0.8603 -0.6215 -0.0448
  292MOL    C2647168   7.839   0.428   3.204  0.5800 -0.8003  0.3501
  292MOL    C2747169   0.067   0.304   3.219 -0.6248  0.6802  0.3163
  292MOL    C2847170   0.192   0.323   3.309  0.1542  0.0803 -1.3111
  292MOL    O2947171   0.211   0.243   3.405 -0.1873  0.6180  0.3536
  292MOL    H3047172   7.748   0.419   3.264  0.6275  0.6027  0.6563
  292MOL    H3147173   0.029   0.512   3.253 -1.9511  1.2355 -0.4471
  292MOL    H3247174   0.111   0.280   3.122 -2.1291 -1.3005  0.0891
  292MOL    H3347175   0.013   0.215   3.252 -0.5610  0.1638 -0.9355
  292MOL    C3447176   0.297   0.427   3.266  0.8506 -0.6028 -0.6429
  292MOL    C3547177   0.386   0.473   3.383  0.5349 -0.4045  0.3514
  292MOL    C3647178   0.327   0.562   3.485 -0.1759 -0.8616 -0.1565
  292MOL    O3747179   0.240   0.523   3.562 -0.0731  0.1705 -0.0001
  292MOL    H3847180   0.255   0.516   3.220 -0.2743 -0.5126  0.5305
  292MOL    H3947181   0.354   0.373   3.191  0.7242  0.2776 -1.3697
  292MOL    H4047182   0.473   0.520   3.338  0.5816 -1.9508 -1.2458
  292MOL    H4147183   0.426   0.396   3.449 -0.3168  0.5709  2.0393
  292MOL    C4247184   0.391   0.708   3.496  0.0871 -0.2827 -0.0245
  292MOL    C4347185   0.288   0.807   3.546 -0.2614 -0.1378  0.0117
  292MOL    C4447186   0.349   0.942   3.572  0.5926 -0.1812 -0.4002
  292MOL    O4547187   0.463   0.971   3.545 -0.4671  0.3990 -0.2174
  292MOL    H4647188   0.415   0.733   3.393  1.5663 -0.9737  0.1393
  292MOL    H4747189   0.477   0.693   3.562 -0.1928  1.4807  0.7692
  292MOL    H4847190   0.254   0.767   3.642 -1.1058 -0.7406 -0.5333
  292MOL    H4947191   0.205   0.807   3.476 -1.0479  0.7112  0.9286
  292MOL    C5047192   0.264   1.049   3.643  0.5321  0.3551 -0.2082
  292MOL    C5147193   0.349   1.159   3.710  1.1668 -0.6935 -0.4084
  292MOL    C5247194   0.279   1.218   3.832  0.0687 -0.2359 -0.1997
  292MOL    O5347195   0.159   1.200   3.866 -0.0281 -0.3248  0.9998
  292MOL    H5447196   0.198   0.995   3.711  0.4131 -1.0726 -1.4371
  292MOL    H5547197   0.199   1.092   3.567  0.8162  3.2282  1.1262
  292MOL    H5647198   0.386   1.239   3.646 -1.2546 -0.4894 -1.6128
  292MOL    H5747199   0.441   1.110   3.742  1.8412 -0.3246 -1.7632
  292MOL    C5847200   0.365   1.302   3.914 -0.1223 -0.2080 -0.4481
  292MOL    C5947201   0.330   1.274   4.059 -0.0921  0.0773 -0.3106
  292MOL    C6047202   0.314   1.406   4.132  0.1639  0.3347 -0.6973
  292MOL    O6147203   0.298   1.515   4.071 -0.2917 -0.1921 -0.1916
  292MOL    H6247204   0.362   1.406   3.882  0.0588  0.6652  2.2868
  292MOL    H6347205   0.469   1.275   3.895  0.5669  0.6005  1.9723
  292MOL    H6447206   0.406   1.212   4.106  0.4684  0.7664 -0.2976
  292MOL    H6547207   0.238   1.218   4.072 -0.5922  0.7614 -0.8474
  292MOL    C6647208   0.317   1.383   4.281  0.0280 -0.0702 -0.4158
  292MOL    C6747209   0.323   1.514   4.357 -0.4566  0.2091  1.3326
  292MOL    C6847210   0.392   1.501   4.484  0.1745  0.0055  0.2770
  292MOL    O6947211   0.493   1.430   4.491 -0.3152 -0.1642 -0.3147
  292MOL    H7047212   0.392   1.307   4.302  0.5992  0.3270 -0.9882
  292MOL    H7147213   0.227   1.333   4.315  1.2614 -2.5426 -0.6322
  292MOL    H7247214   0.221   1.553   4.369 -0.4764  0.8990 -0.9345
  292MOL    H7347215   0.382   1.591   4.307  0.2386  0.0737  1.9366
  292MOL    C7447216   0.357   1.585   4.604 -0.0070 -0.0745  0.3116
  292MOL    C7547217   0.414   1.537   4.737 -0.3969  1.1494  0.2492
  292MOL    C7647218   0.366   1.604   4.860 -0.7605  0.4592 -0.2102
  292MOL    O7747219   0.249   1.583   4.893 -0.3272  0.1104  0.5087
  292MOL    H7847220   0.249   1.593   4.620 -0.0013  1.2255 -0.2581
  292MOL    H7947221   0.395   1.684   4.580 -2.5587  0.8195 -0.2320
  292MOL    H8047222   0.523   1.544   4.730  0.0401 -0.9310  3.5809
  292MOL    H8147223   0.402   1.429   4.745 -0.0479  1.1319  0.5894
  292MOL    C8247224   0.456   1.710   4.926 -0.1319  0.2240  0.2621
  292MOL    C8347225   0.384   1.808   5.023 -0.1955  0.3768 -1.3147
  292MOL    C8447226   0.486   1.902   5.088  0.3459  0.1032 -0.3495
  292MOL    O8547227   0.605   1.882   5.089  0.2369  0.3204  0.5920
  292MOL    H8647228   0.505   1.759   4.842 -2.1013 -0.6977 -1.4794
  292MOL    H8747229   0.532   1.656   4.982 -0.8761  0.5147  1.5896
  292MOL    H8847230   0.329   1.759   5.103  1.3336  0.8138  0.0427
  292MOL    H8947231   0.318   1.881   4.978  0.1673  1.2919 -0.3819
  292MOL    C9047232   0.421   2.017   5.167  0.2088 -0.3382 -0.8852
  292MOL    C9147233   0.528   2.113   5.233 -0.2347  0.0340  0.1520
  292MOL    C9247234   0.470   2.187   5.354  0.6083 -0.3454  0.2359
  292MOL    O9347235   0.356   2.163   5.392  0.0603 -0.2838  0.2822
  292MOL    H9447236   0.351   1.973   5.238 -0.4364  1.0404 -0.6465
  292MOL    H9547237   0.348   2.069   5.106  0.6987 -3.1595 -4.0058
  292MOL    H9647238   0.581   2.187   5.173 -1.8145  1.0593 -0.0075
  292MOL    H9747239   0.597   2.045   5.283  0.1175 -0.0636 -0.4634
  292MOL    C9847240   0.535   2.312   5.404 -0.3237 -0.6171 -0.2746
  292MOL    C9947241   0.503   2.428   5.304 -0.1252 -0.2004  0.3585
  292MOL   C10047242   0.552   2.562   5.349 -0.4737  0.2474 -0.4757
  292MOL   O10147243   0.583   2.589   5.463 -0.4909 -0.2973  0.3046
  292MOL   H10247244   0.637   2.301   5.439 -1.7219 -2.0206  3.6296
  292MOL   H10347245   0.483   2.339   5.496  0.1805  1.3849 -0.5427
  292MOL   H10447246   0.396   2.442   5.287  0.4973  1.2675 -2.5274
  292MOL   H10547247   0.549   2.414   5.206  1.6945 -0.1726  1.1825
  292MOL   C10647248   0.581   2.660   5.237  0.1174  0.0420 -0.2255
  292MOL   C10747249   0.580   2.806   5.277 -0.4857  0.0413 -0.2664
  292MOL   C10847250   0.637   2.899   5.166  0.8969  0.3026 -1.2697
  292MOL   O10947251   0.649   2.860   5.051  0.0934  0.2792 -0.0398
  292MOL   H11047252   0.497   2.648   5.168  1.1622 -0.6798 -1.4104
  292MOL   H11147253   0.678   2.629   5.199  0.9518  1.3800  0.8255
  292MOL   H11247254   0.632   2.838   5.367  1.3547 -2.5947 -0.3247
  292MOL   H11347255   0.479   2.843   5.288  0.2488  1.1324  3.5271
  292MOL   C11447256   0.647   3.049   5.201  0.6036  0.0758  0.9099
  292MOL   C11547257   0.764   3.117   5.133  0.2274  0.4862  0.3497
  292MOL   C11647258   0.867   3.180   5.226  0.6942 -0.4052  0.1789
  292MOL   O11747259   0.899   3.120   5.327  0.0676 -0.2267 -0.2802
  292MOL   H11847260   0.655   3.059   5.309 -0.3827  1.1256  0.8946
  292MOL   H11947261   0.553   3.098   5.177  1.7427  0.8474 -2.2452
  292MOL   H12047262   0.733   3.197   5.066  0.3972 -1.3961 -2.0484
  292MOL   H12147263   0.821   3.063   5.058 -1.8739  1.3909 -1.9532
  292MOL   C12247264   0.931   3.323   5.196 -0.0855  0.1608  0.3008
  292MOL   C12347265   1.056   3.352   5.282  0.0273 -0.2998  0.1796
  292MOL   C12447266   1.048   3.459   5.385 -0.1034  0.4628  0.3311
  292MOL   O12547267   0.963   3.549   5.381 -0.5471 -0.4048 -0.5088
  292MOL   H12647268   0.863   3.407   5.201  1.7917  1.7313 -0.0467
  292MOL   H12747269   0.977   3.304   5.099  2.6098 -0.7099  1.6899
  292MOL   H12847270   1.136   3.380   5.215 -0.2263 -0.0831 -0.0308
  292MOL   H12947271   1.089   3.256   5.323  0.1334 -0.6719 -0.7654
  292MOL   C13047272   1.140   3.433   5.499 -0.4782 -0.0245  0.5317
  292MOL   C13147273   1.121   3.531   5.611  0.7567  0.1358  0.3116
  292MOL   C13247274   1.221   3.519   5.724 -0.2576  0.6238 -0.1576
  292MOL   O13347275   1.344   3.511   5.707  0.2159  0.3842  0.5657
  292MOL   H13447276   1.242   3.434   5.459  0.0265  1.5739  1.8070
  292MOL   H13547277   1.126   3.328   5.523  1.2064 -0.1767  0.9177
  292MOL   H13647278   1.020   3.520   5.650 -0.0552  2.3731 -1.0673
  292MOL   H13747279   1.122   3.635   5.577 -0.6449  0.0868  0.0824
  292MOL   C13847280   1.164   3.518   5.870 -0.1537 -0.6412  0.8355
  292MOL   C13947281   1.238   3.615   5.961  0.1016 -0.1029  0.8498
  292MOL   C14047282   1.252   3.758   5.906  0.4678 -0.1900  0.0335
  292MOL   O14147283   1.151   3.815   5.865 -0.1850  0.0886  0.4206
  292MOL   H14247284   1.178   3.415   5.905 -1.6961 -1.5871 -1.2956
  292MOL   H14347285   1.059   3.546   5.867 -0.1516 -0.5515  1.4295
  292MOL   H14447286   1.337   3.576   5.985  0.7438  0.0786 -1.3669
  292MOL   H14547287   1.192   3.609   6.059 -0.9506 -1.6864  0.2852
  292MOL   C14647288   1.394   3.826   5.921  0.4572 -0.2498  0.2731
  292MOL   C14747289   1.419   3.973   5.883 -0.0698 -0.4688  0.1378
  292MOL   C14847290   1.398   4.075   5.990  0.4189 -0.0857  0.5100
  292MOL   O14947291   1.321   4.061   6.082  0.9372 -0.5117 -0.2226
  292MOL   H15047292   1.464   3.765   5.864 -0.9829 -0.4041 -1.3584
  292MOL   H15147293   1.413   3.800   6.025 -0.5010  0.2824  0.5840
  292MOL   H15247294   1.338   4.006   5.818  0.7183  0.6668 -0.2712
  292MOL   H15347295   1.510   3.988   5.825 -0.6359  3.3616  0.0910
  292MOL   C15447296   1.483   4.202   5.969 -0.4289  0.6697 -0.0929
  292MOL   C15547297   1.421   4.334   6.015  0.6098  0.2156  0.3356
  292MOL   C15647298   1.514   4.409   6.108 -0.3889  0.0823 -0.8245
  292MOL   O15747299   1.569   4.348   6.201  0.1285  0.1721  0.1145
  292MOL   H15847300   1.523   4.205   5.868  3.2958 -1.0038  1.2539
  292MOL   H15947301   1.575   4.177   6.022 -1.6712 -1.2667  1.2235
  292MOL   H16047302   1.330   4.310   6.068  1.0087  0.8062  1.3056
  292MOL   H16147303   1.400   4.406   5.936  2.7153  0.8788  0.3301
  292MOL   H16247304   1.532   4.514   6.086 -0.1319  0.0593 -0.7235
  293MOL     C147305   4.741   7.553   5.611  0.0580 -0.0242  0.0363
  293MOL     C247306   4.801   7.424   5.546 -0.5359  0.2069  0.6968
  293MOL     C347307   4.830   7.306   5.635  0.5705  0.5229  0.5038
  293MOL     O447308   4.768   7.282   5.739 -0.8900  0.1990 -0.2038
  293MOL     H547309   4.642   7.540   5.655  0.3255 -2.0622  0.0993
  293MOL     H647310   4.801   7.570   5.700  2.0965 -0.9268 -1.1336
  293MOL     H747311   4.894   7.439   5.490 -0.1113 -1.6026  0.8784
  293MOL     H847312   4.728   7.377   5.481 -0.0177  1.4378 -0.7790
  293MOL     H947313   4.745   7.640   5.545 -0.3275  0.1617  0.2562
  293MOL    C1047314   4.932   7.202   5.582  0.6887  0.0237  0.3389
  293MOL    C1147315   4.869   7.058   5.594 -0.0602 -0.1102  0.0035
  293MOL    C1247316   4.907   6.956   5.490  1.2648  0.0834 -0.2952
  293MOL    O1347317   4.989   6.983   5.406  0.5454 -0.0493  0.1115
  293MOL    H1447318   5.012   7.232   5.649  0.2099 -2.6780  2.2090
  293MOL    H1547319   4.949   7.221   5.476  1.6058  0.8673  0.6396
  293MOL    H1647320   4.761   7.054   5.586  0.0411 -2.0501 -0.5962
  293MOL    H1747321   4.885   7.024   5.696 -0.1189 -1.7294 -0.5214
  293MOL    C1847322   4.836   6.827   5.498 -0.1126 -0.2938  0.0520
  293MOL    C1947323   4.910   6.738   5.596 -0.1784  0.0132  0.6654
  293MOL    C2047324   4.978   6.616   5.538  0.0500 -0.9769 -0.3824
  293MOL    O2147325   4.949   6.576   5.425 -0.0295  0.0917  0.0026
  293MOL    H2247326   4.835   6.781   5.399 -0.6432  1.3151 -0.7202
  293MOL    H2347327   4.734   6.838   5.535  0.3594  3.2538  0.5097
  293MOL    H2447328   4.837   6.706   5.670 -0.6500  0.8042  0.5559
  293MOL    H2547329   4.978   6.802   5.653  1.6287 -0.3264 -1.0480
  293MOL    C2647330   5.078   6.535   5.624  0.0267 -1.0474  0.4402
  293MOL    C2747331   5.103   6.394   5.563 -0.3239 -0.7265  0.1669
  293MOL    C2847332   5.229   6.333   5.623 -0.3381 -1.0013  0.3208
  293MOL    O2947333   5.341   6.387   5.617 -0.0492  0.3086  0.0754
  293MOL    H3047334   5.041   6.534   5.727  0.1798 -0.3212  0.5034
  293MOL    H3147335   5.175   6.584   5.627 -0.3826 -0.2571  0.7876
  293MOL    H3247336   5.099   6.385   5.455 -2.1131  0.1222  0.1441
  293MOL    H3347337   5.016   6.338   5.599  1.3263 -2.9482  0.8743
  293MOL    C3447338   5.206   6.191   5.685  0.3134  0.2474 -0.5432
  293MOL    C3547339   5.338   6.151   5.768 -1.0837 -0.1294 -0.2789
  293MOL    C3647340   5.437   6.067   5.677 -0.3013 -0.0411 -0.0133
  293MOL    O3747341   5.414   6.044   5.553  0.0004  0.6136 -0.2055
  293MOL    H3847342   5.194   6.118   5.605  0.0126 -0.2057 -0.0872
  293MOL    H3947343   5.114   6.191   5.744  0.5934 -0.4552 -0.1032
  293MOL    H4047344   5.316   6.100   5.862  1.9144 -0.7668  0.1168
  293MOL    H4147345   5.380   6.243   5.808 -2.1472 -0.0821  0.7935
  293MOL    C4247346   5.567   6.027   5.744 -1.1706 -0.4880 -0.4794
  293MOL    C4347347   5.617   5.889   5.695 -0.2457  0.0297 -0.5093
  293MOL    C4447348   5.720   5.905   5.582  0.0301  0.2029 -0.4147
  293MOL    O4547349   5.742   6.012   5.536 -0.2018 -0.0971 -0.3709
  293MOL    H4647350   5.558   6.034   5.852  1.8100 -1.5382 -0.1142
  293MOL    H4747351   5.646   6.098   5.719 -0.0728 -1.3388  0.5187
  293MOL    H4847352   5.537   5.826   5.656  0.4417 -0.7818 -0.6227
  293MOL    H4947353   5.662   5.834   5.778  1.0859 -0.1335 -1.3331
  293MOL    C5047354   5.811   5.786   5.553  0.6989  0.0486  0.2060
  293MOL    C5147355   5.768   5.693   5.435  0.2517 -0.3144 -0.5975
  293MOL    C5247356   5.876   5.685   5.323  0.0604  0.1191 -0.4138
  293MOL    O5347357   5.975   5.761   5.331 -0.2666  0.0696 -0.5320
  293MOL    H5447358   5.795   5.714   5.632  0.9328  1.5727  1.6604
  293MOL    H5547359   5.916   5.816   5.549  0.3254  1.2322 -1.2849
  293MOL    H5647360   5.679   5.723   5.380  0.8428  1.1665 -0.7644
  293MOL    H5747361   5.754   5.596   5.482 -1.0463  0.0995 -0.1140
  293MOL    C5847362   5.870   5.567   5.229 -0.3475 -0.1119  0.9463
  293MOL    C5947363   6.000   5.546   5.149  0.6229  0.5805 -0.6681
  293MOL    C6047364   6.100   5.461   5.225  0.5199  0.2490 -0.8213
  293MOL    O6147365   6.101   5.469   5.351 -0.5922 -0.2424  0.3402
  293MOL    H6247366   5.793   5.576   5.153  0.1943 -0.2838  0.3810
  293MOL    H6347367   5.849   5.471   5.277 -0.3828  0.2042  1.5740
  293MOL    H6447368   6.036   5.642   5.112 -0.9704  2.0264  1.4133
  293MOL    H6547369   5.984   5.488   5.059 -0.1155  0.7932 -0.6746
  293MOL    C6647370   6.192   5.363   5.154  0.3402 -0.6097 -0.0984
  293MOL    C6747371   6.227   5.237   5.241 -0.1381  0.2638  0.1538
  293MOL    C6847372   6.221   5.104   5.165  0.5642 -0.0350 -0.6385
  293MOL    O6947373   6.176   5.105   5.053 -0.3438  0.5082  0.2872
  293MOL    H7047374   6.279   5.424   5.130  0.2980 -0.2057  0.7502
  293MOL    H7147375   6.152   5.330   5.058  0.7725  0.7878 -0.7742
  293MOL    H7247376   6.145   5.232   5.312 -0.3346  0.9439 -0.0245
  293MOL    H7347377   6.317   5.254   5.300  1.4481 -1.1495 -1.7728
  293MOL    C7447378   6.291   4.987   5.228  0.3459 -0.6115 -0.5067
  293MOL    C7547379   6.212   4.856   5.229  0.0150 -0.8222  0.1117
  293MOL    C7647380   6.103   4.843   5.343 -0.0467  0.3740  0.1038
  293MOL    O7747381   6.084   4.933   5.423  0.1118 -0.2080  0.3764
  293MOL    H7847382   6.331   5.004   5.327 -0.0148 -1.7125 -0.1613
  293MOL    H7947383   6.377   4.972   5.163  2.7526  0.4426  2.3100
  293MOL    H8047384   6.284   4.778   5.253  1.8235 -0.6010 -4.2330
  293MOL    H8147385   6.172   4.823   5.133  2.1783  1.8313 -1.7768
  293MOL    C8247386   6.032   4.712   5.346 -0.1311  1.0090  0.1072
  293MOL    C8347387   5.892   4.703   5.415 -0.9704 -1.0177 -0.0055
  293MOL    C8447388   5.890   4.633   5.552  0.9038  0.4924 -0.7966
  293MOL    O8547389   5.894   4.701   5.660  0.0813 -0.3415 -0.6160
  293MOL    H8647390   6.091   4.638   5.399 -0.8504  0.5304  0.2424
  293MOL    H8747391   6.027   4.675   5.243 -1.9103  1.2290  0.0963
  293MOL    H8847392   5.826   4.653   5.344  0.7172 -3.0563 -0.1707
  293MOL    H8947393   5.869   4.801   5.456 -3.6603 -1.2658 -0.8543
  293MOL    C9047394   5.886   4.479   5.548 -0.1620  0.8175  0.4375
  293MOL    C9147395   5.963   4.412   5.666 -1.1928 -0.2128 -0.2500
  293MOL    C9247396   6.120   4.435   5.676  0.5694 -0.1317  0.4064
  293MOL    O9347397   6.181   4.470   5.578  0.1903  0.2386  0.3438
  293MOL    H9447398   5.935   4.451   5.455  1.8775  3.7451  0.5449
  293MOL    H9547399   5.780   4.454   5.545 -0.3026  1.5462 -1.6647
  293MOL    H9647400   5.948   4.307   5.644 -0.3815 -0.3208 -0.3004
  293MOL    H9747401   5.913   4.453   5.753 -1.2644 -1.2695  0.2171
  293MOL    C9847402   6.181   4.400   5.811 -0.0240  0.0083 -0.4696
  293MOL    C9947403   6.328   4.444   5.805  0.6856 -0.0700 -0.5536
  293MOL   C10047404   6.409   4.323   5.757 -0.0618  0.2132 -0.2105
  293MOL   O10147405   6.360   4.213   5.734 -0.0207  0.3301 -0.2086
  293MOL   H10247406   6.172   4.297   5.844 -2.4312  0.0672 -0.8386
  293MOL   H10347407   6.139   4.456   5.894 -1.1055  0.2286 -1.1492
  293MOL   H10447408   6.368   4.481   5.900  1.2486 -2.1227  0.0206
  293MOL   H10547409   6.351   4.515   5.726 -0.0256 -2.6261 -3.1284
  293MOL   C10647410   6.560   4.337   5.759  0.7216 -0.3814 -0.7923
  293MOL   C10747411   6.644   4.216   5.702 -0.1340 -0.8176  0.0610
  293MOL   C10847412   6.620   4.197   5.549 -0.0771  0.6275  0.2794
  293MOL   O10947413   6.653   4.290   5.474 -0.1515 -0.1965  0.0926
  293MOL   H11047414   6.587   4.351   5.863  0.8932  0.2351 -0.9198
  293MOL   H11147415   6.591   4.424   5.701  0.2582 -1.1191 -2.1916
  293MOL   H11247416   6.618   4.125   5.754 -1.3393 -1.2039 -1.1893
  293MOL   H11347417   6.749   4.235   5.725  0.0268  0.0193 -1.2428
  293MOL   C11447418   6.566   4.064   5.504  0.1676  0.7024  0.7571
  293MOL   C11547419   6.468   4.077   5.386 -0.0966 -0.3433  0.2120
  293MOL   C11647420   6.452   3.944   5.318 -0.1935  0.0224  0.0227
  293MOL   O11747421   6.458   3.840   5.388 -0.0882 -0.1470 -0.2743
  293MOL   H11847422   6.514   4.012   5.584  1.2044 -1.2143  0.2080
  293MOL   H11947423   6.647   3.993   5.488 -1.5883 -1.6380  2.0820
  293MOL   H12047424   6.491   4.157   5.316 -1.9647 -0.2349 -0.3039
  293MOL   H12147425   6.381   4.112   5.442  2.0940 -0.5702  3.9380
  293MOL   C12247426   6.424   3.935   5.166  0.3112  0.4394 -0.5784
  293MOL   C12347427   6.351   3.808   5.111 -0.5167 -0.2718  0.2865
  293MOL   C12447428   6.216   3.779   5.151 -0.5933  0.2544 -0.1495
  293MOL   O12547429   6.173   3.819   5.260 -0.7251  0.0724  0.3552
  293MOL   H12647430   6.516   3.944   5.108 -0.0291 -1.3474 -1.4523
  293MOL   H12747431   6.362   4.023   5.153 -0.2756  0.4670  2.0774
  293MOL   H12847432   6.410   3.721   5.138  0.7209  0.7499  0.9163
  293MOL   H12947433   6.367   3.821   5.003 -2.8542  0.5321  0.0164
  293MOL   C13047434   6.142   3.690   5.057  0.4909 -0.0918  0.7031
  293MOL   C13147435   6.055   3.592   5.135 -0.1001 -0.1612 -0.2898
  293MOL   C13247436   5.913   3.636   5.169 -0.2549 -0.6746  0.0156
  293MOL   O13347437   5.882   3.757   5.157  0.3092  0.2925 -0.3008
  293MOL   H13447438   6.211   3.635   4.994  0.0301 -1.8733  1.7341
  293MOL   H13547439   6.076   3.754   4.998 -2.1930 -1.6936  1.8699
  293MOL   H13647440   6.102   3.560   5.228 -0.1439  1.4044  0.2926
  293MOL   H13747441   6.044   3.506   5.069 -2.1658 -0.7841  0.8252
  293MOL   C13847442   5.808   3.530   5.191 -0.5518  0.7315  0.8992
  293MOL   C13947443   5.657   3.560   5.174  0.4204 -0.4438 -0.2411
  293MOL   C14047444   5.568   3.434   5.184  0.1144  0.7471  0.3609
  293MOL   O14147445   5.623   3.321   5.176  0.0890 -0.2281  0.0492
  293MOL   H14247446   5.844   3.489   5.285  2.5118  0.2953 -0.4252
  293MOL   H14347447   5.828   3.444   5.128  1.1998  0.8257  1.2998
  293MOL   H14447448   5.633   3.606   5.078  0.3656 -2.4015 -1.1996
  293MOL   H14547449   5.632   3.631   5.253 -0.8270  2.1344 -2.8625
  293MOL   C14647450   5.423   3.445   5.233 -0.4385 -0.5323 -0.3002
  293MOL   C14747451   5.341   3.317   5.233 -0.1652 -0.0953 -0.1130
  293MOL   C14847452   5.195   3.337   5.279  0.0429 -0.7792 -0.5488
  293MOL   O14947453   5.177   3.399   5.386  0.5501  0.0862  0.3586
  293MOL   H15047454   5.363   3.510   5.169  0.7879 -0.4504 -1.3967
  293MOL   H15147455   5.427   3.483   5.335  0.1805 -2.3871  0.3801
  293MOL   H15247456   5.398   3.247   5.293  3.3367  1.7731 -1.1277
  293MOL   H15347457   5.345   3.272   5.133  1.1332 -3.3679  1.3310
  293MOL   C15447458   5.086   3.279   5.197  1.0166 -0.0904 -0.4003
  293MOL   C15547459   4.961   3.250   5.282 -0.0190  0.2147 -0.5590
  293MOL   C15647460   4.962   3.147   5.393 -0.0517  0.8062  0.9390
  293MOL   O15747461   5.033   3.043   5.393 -0.7968  0.0494  0.5210
  293MOL   H15847462   5.123   3.189   5.148 -0.5860 -1.1422  0.2727
  293MOL   H15947463   5.059   3.345   5.114  0.2857  1.3909  0.9820
  293MOL   H16047464   4.880   3.224   5.214  0.3058  0.2181 -0.9432
  293MOL   H16147465   4.931   3.341   5.335 -1.0125  0.1357 -0.9776
  293MOL   H16247466   4.882   3.160   5.466  1.1318  0.5188  2.3169
  294MOL     C147467   7.803   7.471   5.086 -0.1740 -0.1223  0.1307
  294MOL     C247468   7.813   7.617   5.129  0.0441 -0.5089  0.6499
  294MOL     C347469   7.775   7.648   5.275 -0.7271 -0.1345  0.2262
  294MOL     O447470   7.717   7.563   5.345  0.7430  0.0660 -0.2959
  294MOL     H547471   0.040   7.424   5.109 -0.0644  1.1879  2.5532
  294MOL     H647472   7.717   7.415   5.120 -0.3329  1.7198  2.9639
  294MOL     H747473   7.737   7.668   5.070  0.5309  0.9057  1.2154
  294MOL     H847474   0.048   7.667   5.107 -0.1975  0.2442  1.2970
  294MOL     H947475   7.799   7.471   4.977  0.0599 -1.5186  0.1157
  294MOL    C1047476   7.773   7.793   5.320  0.1456  0.0116  0.3139
  294MOL    C1147477   7.747   7.798   5.474 -0.6198  0.4468 -0.3499
  294MOL    C1247478   0.007   7.780   5.571  0.5700  1.0560  0.3207
  294MOL    O1347479   0.117   7.757   5.531  0.2400 -0.5153 -0.1461
  294MOL    H1447480   7.699   7.851   5.264  0.6477 -0.6703 -1.0771
  294MOL    H1547481   0.012   7.829   5.289 -0.1624 -1.3619 -2.4497
  294MOL    H1647482   7.667   7.726   5.492  0.9632 -1.0488  0.8745
  294MOL    H1747483   7.692   0.030   5.497 -1.7917 -0.4134  0.3036
  294MOL    C1847484   7.830   7.810   5.719 -0.2228  0.1130  0.2632
  294MOL    C1947485   0.085   0.013   5.800  0.1275 -0.6442  0.3130
  294MOL    C2047486   0.038   0.079   5.926 -0.5291 -0.4229 -0.6212
  294MOL    O2147487   7.799   0.035   5.984 -0.4445  0.2891  0.1584
  294MOL    H2247488   7.807   7.712   5.761  2.6597 -1.5126 -1.8384
  294MOL    H2347489   7.745   0.020   5.725 -0.0714  0.3005  0.2531
  294MOL    H2447490   0.143   0.080   5.735  0.1983  0.2306  1.2728
  294MOL    H2547491   0.149   7.795   5.844  0.9030  0.3275  0.9148
  294MOL    C2647492   0.134   0.176   5.988 -0.1150 -0.1379 -0.2301
  294MOL    C2747493   0.119   0.185   6.143 -0.5300  0.1411 -0.7013
  294MOL    C2847494   0.216   0.281   6.209  0.7698  0.1235  0.2991
  294MOL    O2947495   0.337   0.260   6.213  0.8478 -0.0441  0.3427
  294MOL    H3047496   0.116   0.273   5.941 -0.8560  0.2967  0.8967
  294MOL    H3147497   0.236   0.139   5.984 -0.2164 -0.8973  2.5382
  294MOL    H3247498   0.130   0.084   6.183 -1.9621  1.3891  2.9786
  294MOL    H3347499   0.017   0.209   6.172  0.4770  2.0198  1.4290
  294MOL    C3447500   0.163   0.412   6.283 -0.6487  0.0488  0.0585
  294MOL    C3547501   0.270   0.521   6.301 -0.0109  0.3781  0.4432
  294MOL    C3647502   0.319   0.529   6.444 -0.2892 -0.1091  0.5191
  294MOL    O3747503   0.299   0.443   6.526 -0.6415 -0.0544  0.0548
  294MOL    H3847504   0.134   0.391   6.386  0.4744 -0.7969  0.2141
  294MOL    H3947505   0.077   0.455   6.232 -1.5091 -2.2021 -0.4497
  294MOL    H4047506   0.242   0.623   6.277 -1.3782  0.3993  2.0085
  294MOL    H4147507   0.369   0.504   6.260  0.3972  0.6319  1.3149
  294MOL    C4247508   0.399   0.659   6.478  0.6476  0.7533 -0.4976
  294MOL    C4347509   0.533   0.620   6.544 -0.2232  0.1688 -0.0569
  294MOL    C4447510   0.566   0.699   6.664 -0.2951  0.4866 -0.4261
  294MOL    O4547511   0.522   0.815   6.682 -0.5949 -0.6728  0.1929
  294MOL    H4647512   0.328   0.720   6.534  1.0031  1.6287 -0.9979
  294MOL    H4747513   0.425   0.715   6.388 -0.1570  0.3479 -0.9897
  294MOL    H4847514   0.616   0.627   6.474  1.4550 -1.4168  1.7283
  294MOL    H4947515   0.534   0.514   6.570  0.4651 -0.2703 -1.8130
  294MOL    C5047516   0.663   0.638   6.761  0.2014  0.1591 -0.6807
  294MOL    C5147517   0.595   0.531   6.850 -0.1780  0.0931 -0.4555
  294MOL    C5247518   0.655   0.390   6.835 -0.3510 -0.4751 -0.3047
  294MOL    O5347519   0.756   0.368   6.766 -0.8933 -0.2399  0.2038
  294MOL    H5447520   0.697   0.717   6.828  3.3945 -2.5390  0.9998
  294MOL    H5547521   0.753   0.605   6.708  0.2033 -3.8478  1.5809
  294MOL    H5647522   0.487   0.534   6.835  0.1336 -1.0256 -3.2412
  294MOL    H5747523   0.609   0.566   6.952 -1.6632  0.1303 -0.2459
  294MOL    C5847524   0.573   0.275   6.901 -0.6042  0.0454  0.3574
  294MOL    C5947525   0.652   0.144   6.908  0.1204  0.3069  0.4501
  294MOL    C6047526   0.581   0.024   6.974 -0.1024 -0.6224 -0.0458
  294MOL    O6147527   0.489   0.044   7.049 -0.2564 -0.3326 -0.2680
  294MOL    H6247528   0.475   0.262   6.854 -1.5525  0.2825  2.2117
  294MOL    H6347529   0.548   0.302   7.003  3.7191 -0.9179  1.7598
  294MOL    H6447530   0.748   0.160   6.957  0.2854  1.3430 -0.2035
  294MOL    H6547531   0.671   0.123   6.803 -1.1161  2.8605 -0.3206
  294MOL    C6647532   0.628   7.744   6.928  0.0132  0.0598 -0.7966
  294MOL    C6747533   0.510   7.645   6.930  0.5308  0.0467 -0.8880
  294MOL    C6847534   0.544   7.509   6.979  0.3426  0.3935 -0.0996
  294MOL    O6947535   0.639   7.497   7.056 -0.6001  0.1681 -0.2598
  294MOL    H7047536   0.718   7.720   6.984  0.0175  1.5983 -0.1045
  294MOL    H7147537   0.661   7.747   6.824 -0.7661 -1.2003 -1.0851
  294MOL    H7247538   0.447   7.655   6.842 -0.5562  1.0218 -0.0056
  294MOL    H7347539   0.449   7.673   7.016  2.1542 -2.7622  1.2636
  294MOL    C7447540   0.456   7.397   6.940 -0.2979  0.6882  0.6017
  294MOL    C7547541   0.526   7.296   6.847  0.0037 -0.3440  0.0511
  294MOL    C7647542   0.444   7.173   6.844 -0.6625 -0.3278  0.1776
  294MOL    O7747543   0.493   7.066   6.861 -0.1062 -0.0168  0.2722
  294MOL    H7847544   0.371   7.450   6.898  0.0075  1.1717  0.5861
  294MOL    H7947545   0.410   7.351   7.027  0.1304 -2.8343 -0.9193
  294MOL    H8047546   0.625   7.261   6.875 -0.8472 -2.4555  0.5822
  294MOL    H8147547   0.522   7.342   6.749  0.0071 -2.2588 -0.8700
  294MOL    C8247548   0.302   7.182   6.798 -0.5485 -0.1792  0.6823
  294MOL    C8347549   0.286   7.121   6.659 -0.1653 -0.3795 -0.5216
  294MOL    C8447550   0.174   7.189   6.580 -0.0091 -0.2210 -0.1211
  294MOL    O8547551   0.085   7.254   6.634  0.0255  0.9505  0.4989
  294MOL    H8647552   0.274   7.288   6.794  1.7107  0.3250 -3.4420
  294MOL    H8747553   0.234   7.138   6.871 -0.9010 -1.7359 -0.5654
  294MOL    H8847554   0.253   7.018   6.676 -0.1278 -0.2325  0.4775
  294MOL    H8947555   0.377   7.113   6.600 -0.0902 -1.3776 -0.2895
  294MOL    C9047556   0.176   7.187   6.431 -0.0113 -0.4693  0.6910
  294MOL    C9147557   0.050   7.241   6.366 -0.0436 -0.0318  0.8577
  294MOL    C9247558   0.055   7.229   6.216  0.6023 -0.7899 -0.5975
  294MOL    O9347559   0.163   7.215   6.160 -0.4927  0.1398 -0.4613
  294MOL    H9447560   0.208   7.087   6.399  2.3919  0.5279 -0.0904
  294MOL    H9547561   0.259   7.248   6.396  1.0360 -2.3883 -0.2695
  294MOL    H9647562   0.025   7.344   6.389  0.4613  0.6508 -1.4520
  294MOL    H9747563   7.819   7.185   6.390 -0.1964 -1.2483 -2.2653
  294MOL    C9847564   7.778   7.201   6.151 -0.1180 -0.1568 -0.4083
  294MOL    C9947565   7.789   7.199   6.002 -0.0172 -0.0765  0.6128
  294MOL   C10047566   7.781   7.059   5.941  0.8091 -0.4874  0.3768
  294MOL   O10147567   7.763   6.957   6.019 -0.1168 -0.5083  0.7641
  294MOL   H10247568   7.711   7.280   6.183  0.0678  0.0029 -0.4132
  294MOL   H10347569   7.760   7.104   6.198  0.1232 -0.5680 -1.1523
  294MOL   H10447570   0.027   7.230   5.964 -0.8574  0.0939 -1.4641
  294MOL   H10547571   7.718   7.269   5.958 -0.9293  0.2539  2.5545
  294MOL   C10647572   7.814   7.041   5.793 -0.8631  0.1279  0.1758
  294MOL   C10747573   0.103   6.982   5.797  0.4807  0.3365 -0.2345
  294MOL   C10847574   0.112   6.848   5.720  0.5810 -0.6308  0.5507
  294MOL   O10947575   0.038   6.750   5.743  0.4160 -0.0672  0.4346
  294MOL   H11047576   7.788   7.139   5.751 -0.2933  0.2749  0.1682
  294MOL   H11147577   7.744   6.975   5.740  1.7586 -0.4241 -2.7409
  294MOL   H11247578   0.138   6.967   5.899 -1.1481 -1.2058  0.1107
  294MOL   H11347579   0.180   7.047   5.755 -0.5463  0.8277 -1.3615
  294MOL   C11447580   0.220   6.843   5.609  0.2464  0.3517 -0.4104
  294MOL   C11547581   0.229   6.710   5.543  0.3450  0.1817 -0.1026
  294MOL   C11647582   0.326   6.722   5.428 -0.0984  0.0776  0.2711
  294MOL   O11747583   0.406   6.816   5.426  0.0699 -0.2157  0.5524
  294MOL   H11847584   0.318   6.865   5.650  1.2377  0.2083 -2.6375
  294MOL   H11947585   0.199   6.928   5.543 -0.1188 -0.5112 -1.4134
  294MOL   H12047586   0.134   6.673   5.504  0.7821  0.2407 -1.2407
  294MOL   H12147587   0.274   6.642   5.616  2.7244  0.1069 -1.5823
  294MOL   C12247588   0.325   6.617   5.317 -0.2080  0.6210 -0.4468
  294MOL   C12347589   0.399   6.657   5.191 -0.2981  0.2055 -0.1712
  294MOL   C12447590   0.397   6.554   5.079 -0.2056 -0.0508  0.1580
  294MOL   O12547591   0.311   6.466   5.090 -0.0556  0.6655  0.9501
  294MOL   H12647592   0.223   6.581   5.303  0.5173 -1.7240 -0.0235
  294MOL   H12747593   0.380   6.531   5.357 -0.0556  1.1152  0.4297
  294MOL   H12847594   0.503   6.688   5.204  0.4082 -2.4009  0.5185
  294MOL   H12947595   0.350   6.747   5.154  2.2573  1.0988 -1.4983
  294MOL   C13047596   0.496   6.573   4.973 -0.4053 -0.6102 -0.4470
  294MOL   C13147597   0.447   6.527   4.837 -0.0215 -0.0746 -0.1746
  294MOL   C13247598   0.380   6.647   4.764 -0.0673 -0.2820  0.1731
  294MOL   O13347599   0.331   6.741   4.828 -0.1108 -0.0673  0.1893
  294MOL   H13447600   0.586   6.517   4.995  0.0404  0.5217  0.6640
  294MOL   H13547601   0.525   6.678   4.964  0.8651 -1.1310 -2.6180
  294MOL   H13647602   0.380   6.442   4.845 -0.2271  0.0358 -0.6901
  294MOL   H13747603   0.531   6.488   4.780  0.4946 -1.8139  1.6957
  294MOL   C13847604   0.370   6.631   4.618 -0.5703  0.5486 -0.3251
  294MOL   C13947605   0.298   6.757   4.555 -0.4871 -0.5277  0.4422
  294MOL   C14047606   0.152   6.732   4.535  0.0431  0.3326 -0.0334
  294MOL   O14147607   0.100   6.621   4.524 -0.2597 -0.2387 -0.2710
  294MOL   H14247608   0.326   6.536   4.589  1.6225  0.0796 -2.1674
  294MOL   H14347609   0.475   6.628   4.591 -0.5440 -0.3983 -0.1346
  294MOL   H14447610   0.350   6.774   4.461 -0.1801 -1.3290  0.4640
  294MOL   H14547611   0.308   6.845   4.619  2.3115 -1.1901  0.9972
  294MOL   C14647612   0.077   6.866   4.510  0.0448  0.6961 -0.1951
  294MOL   C14747613   7.795   6.850   4.535 -0.1724  0.0910 -0.2608
  294MOL   C14847614   7.724   6.989   4.537  0.3513 -0.3327 -0.2882
  294MOL   O14947615   7.724   7.069   4.445  0.0586  0.4911 -0.1015
  294MOL   H15047616   0.104   6.888   4.407 -1.1950 -0.3548 -0.7508
  294MOL   H15147617   0.114   6.951   4.569  0.5310 -0.2791  0.9130
  294MOL   H15247618   7.775   6.803   4.631  1.9445 -1.6582 -0.6347
  294MOL   H15347619   7.743   6.788   4.461  1.2839  0.5435 -1.7015
  294MOL   C15447620   7.656   7.021   4.674 -0.0292 -0.6682  0.5066
  294MOL   C15547621   7.735   7.140   4.734  0.1572 -0.1300 -0.4624
  294MOL   C15647622   7.654   7.241   4.807  0.6064  0.2741 -0.2238
  294MOL   O15747623   7.576   7.314   4.746  0.3243  0.3894 -0.3694
  294MOL   H15847624   7.651   6.930   4.735 -0.4507 -2.5968 -2.2685
  294MOL   H15947625   7.555   7.057   4.656  0.2015  0.1492  0.8616
  294MOL   H16047626   7.786   7.203   4.661  1.9238 -1.8608 -0.7478
  294MOL   H16147627   7.816   7.105   4.798  0.4307  0.1282 -0.6651
  294MOL   H16247628   7.655   7.231   4.915  2.5456 -0.9591 -0.3379
  295MOL     C147629   2.263   2.272   1.054 -0.3376  0.2384 -0.5084
  295MOL     C247630   2.311   2.162   0.960 -0.0765 -0.5387 -0.6104
  295MOL     C347631   2.206   2.094   0.873 -0.4795  0.9395 -0.6185
  295MOL     O447632   2.167   2.154   0.774  0.7078  0.2302  0.2514
  295MOL     H547633   2.309   2.245   1.149 -1.9765 -2.2768 -0.3778
  295MOL     H647634   2.276   2.374   1.017 -3.0735  1.1504  0.8833
  295MOL     H747635   2.362   2.074   1.000  0.9863  0.1511 -0.4376
  295MOL     H847636   2.395   2.190   0.896  0.4966 -1.1826 -0.1529
  295MOL     H947637   2.158   2.259   1.080  0.0508  0.6346  1.3551
  295MOL    C1047638   2.148   1.959   0.923 -0.4940 -0.0398 -0.1186
  295MOL    C1147639   2.021   1.968   1.008  0.2346 -0.0522  0.1571
  295MOL    C1247640   1.898   1.907   0.928 -0.1193 -0.1783  0.3793
  295MOL    O1347641   1.851   1.952   0.822  0.1256 -0.0134  0.3401
  295MOL    H1447642   2.216   1.891   0.975  1.4068  2.3132  0.5639
  295MOL    H1547643   2.124   1.911   0.828  0.2202 -0.1754 -0.2395
  295MOL    H1647644   1.994   2.072   1.025  1.5046  0.2541  0.3601
  295MOL    H1747645   2.038   1.920   1.104  0.4764  1.1443  0.7198
  295MOL    C1847646   1.841   1.775   0.976  0.2478  0.1259 -0.9381
  295MOL    C1947647   1.808   1.679   0.850 -0.8225 -1.0604 -0.1032
  295MOL    C2047648   1.925   1.585   0.807  0.4659 -0.4572 -0.2366
  295MOL    O2147649   2.036   1.608   0.849 -0.3689  0.0761 -0.2062
  295MOL    H2247650   1.745   1.795   1.023 -1.3092 -3.5114 -2.4309
  295MOL    H2347651   1.910   1.728   1.045 -2.3414 -3.1222 -0.4562
  295MOL    H2447652   1.767   1.735   0.766 -2.0090 -0.4044  0.8917
  295MOL    H2547653   1.718   1.623   0.877 -1.2002 -0.8603 -0.9256
  295MOL    C2647654   1.902   1.470   0.715  0.1487  0.0414  0.0274
  295MOL    C2747655   1.788   1.373   0.758 -0.2375  0.0656 -0.4004
  295MOL    C2847656   1.817   1.287   0.881 -0.5538 -0.1028 -0.2752
  295MOL    O2947657   1.936   1.260   0.914 -0.4133 -0.3258 -0.2853
  295MOL    H3047658   1.996   1.414   0.717 -0.7686 -1.5346 -0.0600
  295MOL    H3147659   1.882   1.515   0.618  1.8246  2.0472  0.5599
  295MOL    H3247660   1.751   1.308   0.679 -2.3178  0.3751  0.2808
  295MOL    H3347661   1.700   1.430   0.785 -1.1624 -0.5575 -2.0632
  295MOL    C3447662   1.705   1.213   0.954 -0.7343  0.0624 -0.1951
  295MOL    C3547663   1.761   1.123   1.071  0.4683  0.7455 -0.4727
  295MOL    C3647664   1.656   1.027   1.118 -0.0074  0.3646 -0.3415
  295MOL    O3747665   1.538   1.058   1.098 -0.3588  0.4663 -0.3019
  295MOL    H3847666   1.651   1.154   0.880  1.1598 -0.2375 -1.3811
  295MOL    H3947667   1.642   1.288   1.003  0.6102  0.9160  0.2776
  295MOL    H4047668   1.808   1.182   1.150 -1.2087  1.9429 -0.3442
  295MOL    H4147669   1.837   1.051   1.038 -0.8603 -1.7039  1.6985
  295MOL    C4247670   1.710   0.894   1.168  0.4296 -0.2995 -0.7724
  295MOL    C4347671   1.604   0.785   1.193 -0.2209  1.0030  0.6991
  295MOL    C4447672   1.601   0.681   1.083 -0.0574  0.1153 -1.2529
  295MOL    O4547673   1.621   0.710   0.965 -0.0119  0.1253 -0.4333
  295MOL    H4647674   1.769   0.910   1.259 -0.0196 -2.0553 -0.1393
  295MOL    H4747675   1.792   0.860   1.105  0.9492  1.5407 -1.1294
  295MOL    H4847676   1.504   0.824   1.212  0.3006  3.3160 -1.1004
  295MOL    H4947677   1.622   0.738   1.289  2.9213 -0.4046 -0.4876
  295MOL    C5047678   1.583   0.534   1.124  0.8773  0.6554  0.5734
  295MOL    C5147679   1.596   0.445   0.998  0.3120  0.6562 -0.1315
  295MOL    C5247680   1.480   0.451   0.899  0.4951 -0.4272 -0.2943
  295MOL    O5347681   1.366   0.480   0.928 -0.3076 -0.1616 -0.2153
  295MOL    H5447682   1.487   0.511   1.171 -0.0827  1.1751 -1.0922
  295MOL    H5547683   1.659   0.503   1.196  1.3331  2.1551  0.7526
  295MOL    H5647684   1.596   0.343   1.036  1.3491  1.2796  1.6114
  295MOL    H5747685   1.693   0.451   0.949  0.5217 -0.1815  0.1767
  295MOL    C5847686   1.507   0.403   0.762 -0.6302  0.8446  0.0330
  295MOL    C5947687   1.594   0.497   0.673 -0.7284  0.4418  0.2071
  295MOL    C6047688   1.726   0.440   0.633 -0.0098 -0.0933  0.3452
  295MOL    O6147689   1.815   0.426   0.712 -0.0504 -0.0446 -0.0952
  295MOL    H6247690   1.410   0.397   0.713 -0.1741  1.3517 -0.9525
  295MOL    H6347691   1.568   0.313   0.766 -0.5568  0.7887 -1.8710
  295MOL    H6447692   1.607   0.593   0.723 -2.0622 -0.3713  2.1674
  295MOL    H6547693   1.534   0.525   0.586 -1.9669 -0.8809  0.6199
  295MOL    C6647694   1.743   0.418   0.480 -0.3929 -0.9588 -0.4688
  295MOL    C6747695   1.781   0.267   0.466 -0.2608 -0.5823 -0.4289
  295MOL    C6847696   1.825   0.231   0.322 -0.1664 -0.2283 -0.0289
  295MOL    O6947697   1.746   0.233   0.223  0.0573 -0.3117  0.4529
  295MOL    H7047698   1.832   0.470   0.443 -1.9919  1.4725 -1.0277
  295MOL    H7147699   1.662   0.455   0.417  3.0942  2.6831 -3.1120
  295MOL    H7247700   1.688   0.212   0.479 -0.9375  0.5318 -0.5033
  295MOL    H7347701   1.855   0.233   0.538  0.5541 -0.4316 -1.1956
  295MOL    C7447702   1.974   0.204   0.294  0.1128  0.1478 -0.5711
  295MOL    C7547703   2.027   0.306   0.190  0.1598 -0.2853 -1.1347
  295MOL    C7647704   2.086   0.430   0.257  0.1276 -0.0767  0.5168
  295MOL    O7747705   2.060   0.457   0.372 -0.0028  0.4807  0.3184
  295MOL    H7847706   1.988   0.102   0.257 -1.0609  0.1405 -0.9927
  295MOL    H7947707   2.014   0.213   0.395 -1.3288 -3.1714  0.3627
  295MOL    H8047708   1.952   0.341   0.120  0.1599  0.0457 -0.9744
  295MOL    H8147709   2.115   0.261   0.145  1.3081 -0.6168  1.3511
  295MOL    C8247710   2.185   0.512   0.172  0.0972  0.3197  1.5829
  295MOL    C8347711   2.206   0.657   0.233 -0.8550  0.2449 -0.0495
  295MOL    C8447712   2.326   0.649   0.330  0.3590  0.5605 -0.1651
  295MOL    O8547713   2.442   0.634   0.280  0.1151 -0.3948  0.2151
  295MOL    H8647714   2.146   0.527   0.071  0.2127  0.7174  1.5938
  295MOL    H8747715   2.273   0.449   0.165  0.3441  0.7121  1.1361
  295MOL    H8847716   2.125   0.691   0.297 -0.8257  0.8325 -0.3192
  295MOL    H8947717   2.235   0.724   0.152  0.6045  1.3452  1.3496
  295MOL    C9047718   2.308   0.666   0.483  0.0164 -0.9157  0.0125
  295MOL    C9147719   2.400   0.775   0.530 -0.2282  0.0222  0.0278
  295MOL    C9247720   2.504   0.749   0.634 -0.5514  0.1736  0.3301
  295MOL    O9347721   2.515   0.642   0.698  0.0426  0.4763  0.2514
  295MOL    H9447722   2.337   0.574   0.533 -1.7967 -0.4140  2.0958
  295MOL    H9547723   2.203   0.677   0.511  0.2526 -0.6270  0.8047
  295MOL    H9647724   2.331   0.847   0.575 -0.3919  0.1418 -0.4151
  295MOL    H9747725   2.443   0.838   0.452  1.1886 -2.4794 -1.2707
  295MOL    C9847726   2.599   0.866   0.653 -0.1117 -0.3674  0.4281
  295MOL    C9947727   2.603   0.918   0.803 -0.5316 -0.2894 -0.4727
  295MOL   C10047728   2.471   0.987   0.851  0.1054 -0.2980 -0.5234
  295MOL   O10147729   2.370   0.999   0.780 -0.1770  0.2556 -0.3370
  295MOL   H10247730   2.578   0.942   0.577 -2.1249 -0.5602  0.7659
  295MOL   H10347731   2.702   0.844   0.628 -0.2645 -2.2352  1.3728
  295MOL   H10447732   2.685   0.988   0.816 -0.0581 -1.3284  2.5039
  295MOL   H10547733   2.629   0.835   0.869  0.7550  1.4072  1.1800
  295MOL   C10647734   2.472   1.014   1.002 -0.2139  0.4483  1.0795
  295MOL   C10747735   2.352   0.949   1.071  0.2471  0.7414 -0.1414
  295MOL   C10847736   2.267   1.047   1.156 -0.4532 -0.9736  0.1496
  295MOL   O10947737   2.303   1.164   1.168 -0.1090 -1.0134 -0.6015
  295MOL   H11047738   2.473   1.123   1.010 -0.0009  0.4318  1.2758
  295MOL   H11147739   2.562   0.984   1.054  0.7193 -0.1445 -0.8167
  295MOL   H11247740   2.392   0.868   1.132 -0.2907  0.0511 -0.6987
  295MOL   H11347741   2.278   0.898   1.009  1.8008 -0.7434 -0.8209
  295MOL   C11447742   2.139   0.984   1.215 -0.2595 -0.5049  0.1353
  295MOL   C11547743   2.128   1.007   1.362 -0.4060  0.1813 -0.3586
  295MOL   C11647744   2.134   0.882   1.444 -0.0778 -0.5579 -0.5373
  295MOL   O11747745   2.242   0.827   1.461  0.0959 -0.0952 -0.3460
  295MOL   H11847746   2.126   0.878   1.196  0.2401 -0.9128  1.9953
  295MOL   H11947747   2.051   1.026   1.166 -0.8254 -1.0837  0.6399
  295MOL   H12047748   2.030   1.050   1.384 -1.5963 -1.8123 -1.5545
  295MOL   H12147749   2.193   1.087   1.397 -0.8065  0.1254  0.5168
  295MOL   C12247750   2.002   0.821   1.483  0.4908 -0.0614 -0.1696
  295MOL   C12347751   2.002   0.667   1.476  0.0053  0.9423 -0.4394
  295MOL   C12447752   1.965   0.608   1.339  0.4857  0.3704 -0.4370
  295MOL   O12547753   1.908   0.679   1.255 -0.0228  0.0618 -0.3118
  295MOL   H12647754   1.919   0.852   1.419  0.0669 -0.8053  0.0168
  295MOL   H12747755   1.988   0.859   1.585  0.5219  0.2305 -0.2745
  295MOL   H12847756   1.931   0.626   1.548 -0.0760  0.0398 -1.0192
  295MOL   H12947757   2.099   0.622   1.499 -0.8093 -1.6042 -1.7003
  295MOL   C13047758   1.978   0.457   1.331 -0.0268  0.5037 -0.3378
  295MOL   C13147759   1.929   0.391   1.199 -0.1056  0.2680  1.2985
  295MOL   C13247760   1.845   0.271   1.206 -0.3038 -0.4086 -0.0647
  295MOL   O13347761   1.738   0.269   1.267 -0.2688  0.0675 -0.3482
  295MOL   H13447762   1.916   0.413   1.409 -2.5886  0.9801 -2.0690
  295MOL   H13547763   2.083   0.434   1.349  0.1358  1.5012  0.0144
  295MOL   H13647764   2.015   0.368   1.135 -2.2078 -2.6015 -0.6661
  295MOL   H13747765   1.871   0.461   1.139 -1.6841 -2.0935 -0.0042
  295MOL   C13847766   1.901   0.142   1.141 -0.3495 -0.0310  0.3960
  295MOL   C13947767   1.898   0.159   0.987  0.0430  0.1165  0.0406
  295MOL   C14047768   2.029   0.195   0.916 -1.0674 -0.5693  0.0531
  295MOL   O14147769   2.124   0.247   0.972 -0.5605 -0.5971 -0.4359
  295MOL   H14247770   1.849   0.052   1.174  1.1089 -1.1025 -0.1699
  295MOL   H14347771   2.005   0.132   1.171  0.1701  2.4940 -0.4661
  295MOL   H14447772   1.826   0.238   0.962 -0.7701 -0.6281 -0.0097
  295MOL   H14547773   1.858   0.068   0.942  1.2440 -0.8626  0.9268
  295MOL   C14647774   2.037   0.156   0.770  0.3367 -0.4461 -0.5619
  295MOL   C14747775   2.121   0.268   0.698 -0.4804 -0.6832 -0.4896
  295MOL   C14847776   2.220   0.210   0.599 -0.0720  0.4468  0.3532
  295MOL   O14947777   2.187   0.102   0.551 -0.1914  0.6504  0.0894
  295MOL   H15047778   1.937   0.158   0.729  0.4051  0.9900 -0.7035
  295MOL   H15147779   2.070   0.053   0.764  0.0348 -0.4532 -2.3324
  295MOL   H15247780   2.176   0.335   0.764  0.5156 -0.9982 -0.9896
  295MOL   H15347781   2.058   0.337   0.641 -0.4708 -1.9261 -2.0389
  295MOL   C15447782   2.348   0.291   0.560 -0.2170  0.2202  0.1832
  295MOL   C15547783   2.469   0.221   0.500  0.0598  0.5334 -0.5757
  295MOL   C15647784   2.484   0.219   0.348 -0.0175 -0.1264  0.0112
  295MOL   O15747785   2.437   0.295   0.269  0.8603 -0.1373  0.4371
  295MOL   H15847786   2.371   0.340   0.655 -0.9491 -1.6927  1.3798
  295MOL   H15947787   2.314   0.374   0.497 -0.6764 -1.4442 -1.8237
  295MOL   H16047788   2.463   0.115   0.528 -1.1777  0.5033 -0.9293
  295MOL   H16147789   2.560   0.266   0.540 -0.5917  1.3797 -0.0224
  295MOL   H16247790   2.557   0.145   0.315  0.8216  0.1135  1.2596
  296MOL     C147791   2.679   1.997   1.039  0.0059  0.3834 -0.5107
  296MOL     C247792   2.663   1.848   1.028 -0.2449  0.6334 -0.5721
  296MOL     C347793   2.795   1.782   0.987  0.2109  0.2039 -0.2710
  296MOL     O447794   2.875   1.734   1.067 -0.2154  0.1971 -0.5840
  296MOL     H547795   2.618   2.032   1.123 -0.9235 -1.5729 -0.3475
  296MOL     H647796   2.784   2.025   1.049  0.4185 -0.9791 -1.0356
  296MOL     H747797   2.581   1.835   0.957  0.0815 -0.4298 -0.7729
  296MOL     H847798   2.627   1.809   1.123  1.1711 -2.2701 -1.1464
  296MOL     H947799   2.635   2.043   0.950 -3.0020  1.7405  1.5766
  296MOL    C1047800   2.809   1.775   0.829 -0.6388 -0.1673  0.2160
  296MOL    C1147801   2.952   1.774   0.778  0.9330  0.5684  0.8267
  296MOL    C1247802   2.994   1.897   0.705 -0.1513  0.0237 -0.5489
  296MOL    O1347803   2.915   1.964   0.645  0.2278  0.4241 -0.8759
  296MOL    H1447804   2.759   1.867   0.799  0.4575  0.3253 -0.1158
  296MOL    H1547805   2.751   1.693   0.789 -0.3484 -0.2331 -0.0650
  296MOL    H1647806   2.967   1.691   0.709 -1.2635 -1.5174  2.8121
  296MOL    H1747807   3.017   1.755   0.863 -0.7932  0.0701  2.0610
  296MOL    C1847808   3.140   1.936   0.716  0.2054  0.2607 -0.2049
  296MOL    C1947809   3.178   2.022   0.836  0.0284  0.3369  0.3882
  296MOL    C2047810   3.225   2.164   0.794 -0.0322  0.6323 -0.0661
  296MOL    O2147811   3.281   2.180   0.687 -0.2064 -0.6507  0.1586
  296MOL    H2247812   3.161   1.983   0.620 -1.5701  0.1982 -0.6368
  296MOL    H2347813   3.195   1.842   0.724 -0.5429 -0.3821 -2.3021
  296MOL    H2447814   3.258   1.970   0.889 -1.7351 -1.5705  1.2911
  296MOL    H2547815   3.088   2.025   0.898  0.8892  0.2928  1.6524
  296MOL    C2647816   3.178   2.280   0.880 -0.3394 -0.1305 -0.5019
  296MOL    C2747817   3.266   2.404   0.871 -0.3846 -0.7619  0.1323
  296MOL    C2847818   3.226   2.505   0.760  0.0071 -0.5415 -0.0793
  296MOL    O2947819   3.121   2.571   0.763  0.1830  0.1501 -0.4132
  296MOL    H3047820   3.172   2.251   0.985 -0.8427  2.1352  0.1202
  296MOL    H3147821   3.073   2.291   0.852 -0.1929  2.5329 -0.1151
  296MOL    H3247822   3.371   2.378   0.860 -0.0294  0.7848 -0.2427
  296MOL    H3347823   3.259   2.465   0.961  1.5076 -1.3946  0.7193
  296MOL    C3447824   3.331   2.531   0.656  0.3597  0.3355  0.5900
  296MOL    C3547825   3.281   2.596   0.520  0.1822 -0.6170 -0.6397
  296MOL    C3647826   3.239   2.499   0.416  0.1855  0.5115 -0.2220
  296MOL    O3747827   3.309   2.468   0.325 -0.1130  0.1165  0.3212
  296MOL    H3847828   3.375   2.434   0.633 -0.0518  0.7494 -2.1377
  296MOL    H3947829   3.403   2.601   0.698 -1.2367  0.8431  2.5335
  296MOL    H4047830   3.368   2.649   0.482  0.2877 -1.3760 -1.4616
  296MOL    H4147831   3.199   2.664   0.545  0.8609  0.2080 -0.6364
  296MOL    C4247832   3.096   2.447   0.421  0.1343  0.1156 -0.4195
  296MOL    C4347833   3.047   2.356   0.304 -0.5386 -0.4905  0.2053
  296MOL    C4447834   3.010   2.214   0.350 -0.3944 -0.0780 -0.1118
  296MOL    O4547835   3.046   2.174   0.460  0.5508 -0.3863 -0.1507
  296MOL    H4647836   3.037   2.538   0.410  1.3201  0.7096 -2.0492
  296MOL    H4747837   3.063   2.399   0.513 -0.4575  1.2173 -0.0492
  296MOL    H4847838   3.134   2.345   0.239 -2.3602 -1.9464 -2.0937
  296MOL    H4947839   2.969   2.409   0.249 -0.9473 -0.5617  0.7208
  296MOL    C5047840   2.934   2.125   0.248 -0.1080  0.5598 -0.1292
  296MOL    C5147841   2.960   1.979   0.275 -0.2181  0.0996 -0.5232
  296MOL    C5247842   2.840   1.885   0.252 -0.8631 -0.4059 -0.6080
  296MOL    O5347843   2.726   1.926   0.243 -0.3595  0.0045 -0.2601
  296MOL    H5447844   2.980   2.149   0.152  1.6903  0.2339  0.6415
  296MOL    H5547845   2.826   2.133   0.233 -0.3025 -0.2977  0.7831
  296MOL    H5647846   3.002   1.970   0.375  0.4793  0.2932 -0.7883
  296MOL    H5747847   3.027   1.937   0.200 -2.6469 -2.2660 -1.4295
  296MOL    C5847848   2.881   1.735   0.223  0.1833 -0.2250  0.1130
  296MOL    C5947849   2.800   1.635   0.294 -0.5286 -0.8019  0.1138
  296MOL    C6047850   2.857   1.587   0.429 -0.5093  0.3891  0.2864
  296MOL    O6147851   2.972   1.608   0.456 -0.2796 -0.3375 -0.1337
  296MOL    H6247852   2.983   1.714   0.254 -0.4655  0.0046  2.5475
  296MOL    H6347853   2.875   1.716   0.116  1.7230 -2.6368  0.4124
  296MOL    H6447854   2.775   1.547   0.234 -1.7148 -0.6101  0.3117
  296MOL    H6547855   2.708   1.680   0.330  0.0065  0.4545 -0.0672
  296MOL    C6647856   2.764   1.518   0.530  0.3163 -0.4479 -0.8117
  296MOL    C6747857   2.834   1.447   0.642 -0.2796 -0.6316 -0.5355
  296MOL    C6847858   2.847   1.301   0.619  0.3116  0.3100 -0.4844
  296MOL    O6947859   2.747   1.236   0.596  0.4541 -0.2266 -0.0974
  296MOL    H7047860   2.707   1.443   0.475 -0.2265  0.6170 -1.7380
  296MOL    H7147861   2.704   1.599   0.571  1.8598  0.0935  0.4336
  296MOL    H7247862   2.772   1.448   0.732  0.1674  0.8225 -0.2345
  296MOL    H7347863   2.933   1.490   0.661 -0.4734 -0.2057 -0.4949
  296MOL    C7447864   2.982   1.235   0.604 -0.7609 -0.1780  1.1672
  296MOL    C7547865   2.977   1.123   0.495  0.5021 -0.3756 -0.1827
  296MOL    C7647866   3.115   1.092   0.440 -0.4536 -0.3208 -0.2428
  296MOL    O7747867   3.194   1.186   0.414  0.4976 -0.1053  0.0298
  296MOL    H7847868   3.017   1.189   0.697  0.5804 -0.7160  0.3965
  296MOL    H7947869   3.059   1.306   0.573 -0.4534 -0.4832  1.2351
  296MOL    H8047870   2.904   1.141   0.416  0.8167 -0.7503 -0.5685
  296MOL    H8147871   2.932   1.032   0.535 -1.3485  0.6685  0.1605
  296MOL    C8247872   3.155   0.950   0.423 -0.6974  0.4343  0.4113
  296MOL    C8347873   3.300   0.927   0.469  0.2726 -0.2796  0.0281
  296MOL    C8447874   3.367   0.813   0.395  1.0785 -0.1305  0.7167
  296MOL    O8547875   3.420   0.827   0.286 -0.3809  0.0502 -0.5210
  296MOL    H8647876   3.152   0.934   0.315 -0.3299  0.6946  0.3611
  296MOL    H8747877   3.090   0.877   0.471  2.0294 -1.6693  1.0683
  296MOL    H8847878   3.291   0.899   0.574 -1.3482  0.0112 -0.0323
  296MOL    H8947879   3.363   1.015   0.455 -0.7261  0.1585 -1.8640
  296MOL    C9047880   3.355   0.672   0.457 -0.0960  0.4110  0.2700
  296MOL    C9147881   3.482   0.589   0.441  0.6803 -0.6911  0.2362
  296MOL    C9247882   3.494   0.474   0.535 -0.2292  0.4414 -0.2074
  296MOL    O9347883   3.406   0.449   0.617 -0.7537 -0.7516  0.7897
  296MOL    H9447884   3.284   0.606   0.408  0.7273 -0.1149 -0.2142
  296MOL    H9547885   3.329   0.681   0.563  1.6640 -0.0391  0.7652
  296MOL    H9647886   3.563   0.662   0.451  1.3098 -1.1779 -1.2182
  296MOL    H9747887   3.492   0.558   0.337 -0.3998  3.1184 -1.0788
  296MOL    C9847888   3.610   0.384   0.512 -0.0992  0.3814 -0.0584
  296MOL    C9947889   3.580   0.233   0.535 -0.2215  0.0356  0.0350
  296MOL   C10047890   3.601   0.193   0.683  0.4509 -0.0733 -0.0894
  296MOL   O10147891   3.661   0.259   0.763 -0.1381 -1.1448 -0.6668
  296MOL   H10247892   3.701   0.410   0.567 -0.3683 -0.8907  0.9987
  296MOL   H10347893   3.633   0.409   0.408 -0.3883 -0.4352 -0.3210
  296MOL   H10447894   3.652   0.179   0.474  0.4285  0.0995  0.7400
  296MOL   H10547895   3.479   0.204   0.508 -0.6420  1.6621 -0.2220
  296MOL   C10647896   3.538   0.066   0.729  0.5439  0.2770 -0.5698
  296MOL   C10747897   3.592   0.011   0.863 -0.6395 -0.2324 -0.0967
  296MOL   C10847898   3.505   0.051   0.993  0.2774  1.1237 -0.3197
  296MOL   O10947899   3.393   0.102   0.984 -0.8556  0.2856 -0.3070
  296MOL   H11047900   3.538   7.853   0.648 -2.3111  1.9261 -2.1094
  296MOL   H11147901   3.431   0.087   0.728  0.1559 -1.6581 -2.2170
  296MOL   H11247902   3.699   0.033   0.871 -0.0650 -2.9029 -0.1644
  296MOL   H11347903   3.579   7.762   0.856 -3.1802  0.0996 -1.2596
  296MOL   C11447904   3.558   7.852   1.130 -0.1828  0.1477  0.0047
  296MOL   C11547905   3.637   0.104   1.193  0.2915  0.3580  0.2210
  296MOL   C11647906   3.784   0.075   1.208  0.1740 -0.6890 -0.0097
  296MOL   O11747907   3.855   0.036   1.115 -0.9099  0.8355 -0.4149
  296MOL   H11847908   3.617   7.760   1.130  2.2362  1.6540  2.0556
  296MOL   H11947909   3.470   7.829   1.190  1.0919 -1.3011  1.3692
  296MOL   H12047910   3.596   0.119   1.293  1.3924 -2.1764  1.0787
  296MOL   H12147911   3.622   0.202   1.148 -4.3298 -1.0396 -1.5191
  296MOL   C12247912   3.858   0.099   1.341  0.0751  0.2618  0.3001
  296MOL   C12347913   3.978   0.190   1.316  0.2854  0.3252  0.6954
  296MOL   C12447914   4.016   0.276   1.433 -0.1808 -0.6763 -0.2027
  296MOL   O12547915   3.983   0.247   1.551 -1.2449  0.1498 -0.0550
  296MOL   H12647916   3.887   0.007   1.391 -0.0840  0.5256  0.8785
  296MOL   H12747917   3.791   0.137   1.418 -1.8646 -0.2406 -1.0882
  296MOL   H12847918   3.966   0.242   1.221 -1.6778 -0.8341  0.2893
  296MOL   H12947919   4.063   0.123   1.296 -1.1408 -1.0283 -1.0259
  296MOL   C13047920   4.101   0.397   1.400 -0.2654 -0.2229  0.4288
  296MOL   C13147921   4.243   0.360   1.446  0.6390 -0.1895 -0.6377
  296MOL   C13247922   4.335   0.325   1.330 -0.5479  0.5728  0.4619
  296MOL   O13347923   4.293   0.332   1.215 -0.1350  0.2314 -0.3083
  296MOL   H13447924   4.080   0.486   1.458  0.4525 -1.4099  2.5518
  296MOL   H13547925   4.098   0.413   1.292  0.3458  0.4409  0.5057
  296MOL   H13647926   4.244   0.280   1.521  0.9028  1.1696  0.8327
  296MOL   H13747927   4.285   0.447   1.496 -3.9958  0.8680  1.7612
  296MOL   C13847928   4.478   0.273   1.367  0.1299  0.1583  0.1962
  296MOL   C13947929   4.558   0.221   1.242 -0.3891  0.1681  0.6094
  296MOL   C14047930   4.637   0.096   1.279 -0.2264  0.1148 -0.6051
  296MOL   O14147931   4.683   0.090   1.393  0.2570 -0.3635  0.3398
  296MOL   H14247932   4.465   0.187   1.434  1.4950 -1.7113 -1.8538
  296MOL   H14347933   4.533   0.350   1.421 -0.7563 -0.4453  1.9937
  296MOL   H14447934   4.627   0.300   1.216 -2.4534  1.9327  0.3398
  296MOL   H14547935   4.500   0.198   1.153  1.4096  0.9500 -0.7920
  296MOL   C14647936   4.657   7.845   1.166  0.5903 -0.1434 -0.5266
  296MOL   C14747937   4.755   7.736   1.215  0.0333  0.5144  0.4276
  296MOL   C14847938   4.679   7.633   1.297 -0.1195 -0.4983  0.3966
  296MOL   O14947939   4.585   7.570   1.246 -0.3458  0.3309 -0.1885
  296MOL   H15047940   4.695   0.036   1.077 -1.2260 -0.8676 -1.7451
  296MOL   H15147941   4.567   7.799   1.126 -0.9207  1.4596  0.9183
  296MOL   H15247942   4.849   7.760   1.266  0.9745 -0.0526 -1.0237
  296MOL   H15347943   4.798   7.699   1.122 -0.1756  0.3279  0.4065
  296MOL   C15447944   4.710   7.606   1.441 -0.5201  0.8289 -0.3362
  296MOL   C15547945   4.600   7.626   1.535 -0.1806  0.1001  0.1663
  296MOL   C15647946   4.514   7.509   1.549  0.4585 -0.0360 -0.3264
  296MOL   O15747947   4.557   7.397   1.553  0.6643 -0.2273 -0.2255
  296MOL   H15847948   4.795   7.672   1.458  0.4351 -0.3028 -0.6716
  296MOL   H15947949   4.754   7.506   1.446 -0.0151  1.0883  0.5035
  296MOL   H16047950   4.529   7.706   1.512 -0.2684  0.1953  0.7576
  296MOL   H16147951   4.640   7.643   1.635 -1.1281  2.5363  0.1719
  296MOL   H16247952   4.410   7.540   1.557  0.5234 -0.2845  1.6686
  297MOL     C147953   5.886   1.355   5.597  0.1530  0.5960 -0.3873
  297MOL     C247954   5.966   1.256   5.515  0.3461 -0.3817 -0.3000
  297MOL     C347955   6.116   1.244   5.562  0.8843 -0.0044  0.3505
  297MOL     O447956   6.159   1.273   5.676 -0.4867  0.3080 -0.1315
  297MOL     H547957   5.906   1.330   5.701  0.1742 -0.0420 -0.5448
  297MOL     H647958   5.924   1.456   5.583  1.5826  0.4380  2.0051
  297MOL     H747959   5.968   1.280   5.408  1.6066  2.0991  0.2366
  297MOL     H847960   5.921   1.159   5.539 -1.4897  0.7577  1.0085
  297MOL     H947961   5.779   1.354   5.576  0.0983  0.3382 -0.1007
  297MOL    C1047962   6.217   1.177   5.469 -0.8686 -0.9005  0.5701
  297MOL    C1147963   6.264   1.288   5.374  0.0028 -0.1392  0.3204
  297MOL    C1247964   6.201   1.289   5.241 -0.0288  0.1639  0.1523
  297MOL    O1347965   6.094   1.242   5.211  0.8973 -0.4892 -0.0959
  297MOL    H1447966   6.179   1.090   5.415 -0.7283  0.2997 -1.5500
  297MOL    H1547967   6.304   1.147   5.528 -0.6121 -2.0573 -0.3560
  297MOL    H1647968   6.369   1.268   5.354 -0.1608  0.5359 -1.2683
  297MOL    H1747969   6.268   1.385   5.425  1.7162 -0.4635  0.8261
  297MOL    C1847970   6.286   1.365   5.137  0.1814 -0.4902  0.3262
  297MOL    C1947971   6.219   1.373   4.997 -0.1639  0.0821  0.0361
  297MOL    C2047972   6.251   1.245   4.924  0.4390 -0.1702 -0.1156
  297MOL    O2147973   6.340   1.165   4.956  0.0149 -0.2862 -0.0237
  297MOL    H2247974   6.390   1.333   5.132 -0.1391 -1.3139 -1.4068
  297MOL    H2347975   6.291   1.467   5.173 -1.4738 -0.1087 -0.5174
  297MOL    H2447976   6.243   1.453   4.928  1.4326 -0.6634 -0.3092
  297MOL    H2547977   6.115   1.386   5.026 -0.0236  2.0076 -0.2353
  297MOL    C2647978   6.171   1.227   4.796  0.5283 -0.0753 -0.0708
  297MOL    C2747979   6.171   1.095   4.726  0.3902 -0.0137  0.0617
  297MOL    C2847980   6.300   1.056   4.646 -0.4527 -0.3216  0.3583
  297MOL    O2947981   6.343   1.148   4.575  0.4060 -0.2427 -0.1131
  297MOL    H3047982   6.207   1.295   4.720 -1.1851 -1.4939 -2.2015
  297MOL    H3147983   6.072   1.264   4.824  0.3349 -1.0967  0.6599
  297MOL    H3247984   6.088   1.091   4.655  0.9204 -2.3945 -0.4576
  297MOL    H3347985   6.149   1.014   4.796  3.2702 -1.2101 -0.3541
  297MOL    C3447986   6.371   0.923   4.664  0.2095 -0.1015 -0.1975
  297MOL    C3547987   6.518   0.912   4.620 -0.3253  0.5490  1.1459
  297MOL    C3647988   6.540   0.826   4.496  0.1004 -0.5580  0.3493
  297MOL    O3747989   6.455   0.743   4.463  0.1994 -0.5991 -0.1972
  297MOL    H3847990   6.308   0.846   4.618 -0.3187  0.4231 -0.3545
  297MOL    H3947991   6.368   0.900   4.771  0.5570 -3.3063 -0.8237
  297MOL    H4047992   6.592   0.866   4.685  0.6596 -2.9736 -2.2854
  297MOL    H4147993   6.555   1.011   4.595 -0.5670  0.4192  0.2641
  297MOL    C4247994   6.672   0.831   4.409  0.5066  0.0995  0.5463
  297MOL    C4347995   6.644   0.929   4.298  0.2496  0.4161  0.1720
  297MOL    C4447996   6.705   0.883   4.165  0.4381 -1.0792 -0.1731
  297MOL    O4547997   6.631   0.853   4.070  0.0041  0.0952  0.0999
  297MOL    H4647998   6.698   0.728   4.385 -2.8008 -0.6574 -0.1445
  297MOL    H4747999   6.752   0.875   4.467  1.5330  0.4778 -1.1480
  297MOL    H4848000   6.681   1.029   4.323 -0.6696  1.0378 -0.9592
  297MOL    H4948001   6.537   0.943   4.286 -0.1623 -1.4388  1.4788
  297MOL    C5048002   6.862   0.894   4.160  0.2408 -0.1957  0.9272
  297MOL    C5148003   6.925   0.807   4.047 -0.7359 -0.5134 -0.1840
  297MOL    C5248004   7.077   0.775   4.066 -0.6259 -0.0598  0.4621
  297MOL    O5348005   7.146   0.857   4.124 -0.1583  0.1854 -0.0084
  297MOL    H5448006   6.909   0.863   4.252  1.4387 -2.8029 -0.5198
  297MOL    H5548007   6.879   1.002   4.150 -0.6412 -0.1872 -0.8461
  297MOL    H5648008   6.908   0.847   3.947 -0.8622 -0.5479 -0.1765
  297MOL    H5748009   6.879   0.709   4.055 -0.3562 -0.5198  2.3443
  297MOL    C5848010   7.133   0.643   4.016  0.2218 -0.1458  1.0671
  297MOL    C5948011   7.267   0.665   3.944  0.5470  0.8239  0.2192
  297MOL    C6048012   7.381   0.597   4.014  0.0086  0.1019 -0.8578
  297MOL    O6148013   7.428   0.493   3.972  0.6774  0.5368 -0.0485
  297MOL    H6248014   7.070   0.582   3.950  2.1332 -2.0127  0.9100
  297MOL    H6348015   7.149   0.576   4.101  2.1005  0.2767  1.0540
  297MOL    H6448016   7.304   0.767   3.938  0.3325  0.8758 -0.2044
  297MOL    H6548017   7.267   0.637   3.838  0.8047 -0.4126  0.5312
  297MOL    C6648018   7.425   0.667   4.138 -0.1942  0.4856  1.0987
  297MOL    C6748019   7.547   0.600   4.198 -0.0069 -0.1304  0.3175
  297MOL    C6848020   7.552   0.625   4.349 -0.4028 -0.5953 -0.1108
  297MOL    O6948021   7.451   0.658   4.410  0.5085 -0.0545 -0.2581
  297MOL    H7048022   7.342   0.693   4.204 -0.1830  1.3867  0.7643
  297MOL    H7148023   7.455   0.769   4.116  0.8534  0.1447  0.9281
  297MOL    H7248024   7.639   0.644   4.157 -1.0888  1.2594 -0.6951
  297MOL    H7348025   7.548   0.493   4.176  1.9280 -0.0989  0.1546
  297MOL    C7448026   7.687   0.641   4.420  0.0082 -0.0476 -0.0542
  297MOL    C7548027   7.719   0.529   4.526 -0.6085  0.0621 -0.4930
  297MOL    C7648028   7.752   0.393   4.476  0.7713  0.1188 -0.5148
  297MOL    O7748029   7.717   0.358   4.366 -0.6703  0.4491  0.0656
  297MOL    H7848030   7.688   0.734   4.477  1.0788 -0.9550  1.4448
  297MOL    H7948031   7.757   0.654   4.338 -1.1589  1.7257 -0.8144
  297MOL    H8048032   7.632   0.517   4.590  0.7883 -0.5900  1.3347
  297MOL    H8148033   7.806   0.557   4.587  0.2983 -1.7868 -0.8942
  297MOL    C8248034   7.811   0.285   4.570 -0.1601  0.1417 -0.6011
  297MOL    C8348035   7.789   0.142   4.519  0.4844  0.1850  0.2893
  297MOL    C8448036   7.698   0.063   4.612 -0.3711 -0.1527  0.7963
  297MOL    O8548037   7.668   0.108   4.726 -0.4757  0.0702  0.0362
  297MOL    H8648038   7.752   0.315   4.657  1.0252  0.5755  0.0760
  297MOL    H8748039   0.058   0.286   4.596 -0.1846  1.5994 -0.4977
  297MOL    H8848040   0.023   0.083   4.519  0.8183  0.6908 -2.2394
  297MOL    H8948041   7.747   0.145   4.419 -0.6663 -0.0482  0.7637
  297MOL    C9048042   7.639   7.795   4.551 -0.0837  0.3013 -0.4129
  297MOL    C9148043   7.568   7.705   4.645  0.5054 -0.4821  0.0244
  297MOL    C9248044   7.431   7.671   4.597 -0.0021  0.0679  0.0967
  297MOL    O9348045   7.371   7.725   4.500 -0.0481 -0.0587  0.2074
  297MOL    H9448046   7.710   7.735   4.494  1.1162  0.0948  1.2759
  297MOL    H9548047   7.573   7.836   4.474  0.0231  1.1310 -0.0634
  297MOL    H9648048   7.566   7.751   4.744 -0.0619 -1.9842  0.7155
  297MOL    H9748049   7.623   7.612   4.660  0.2731 -0.4801  0.8982
  297MOL    C9848050   7.360   7.578   4.688  0.4417 -0.7281 -0.0380
  297MOL    C9948051   7.338   7.650   4.821 -0.1896  0.0106 -0.0761
  297MOL   C10048052   7.398   7.576   4.937 -0.3890 -0.5749 -0.5399
  297MOL   O10148053   7.499   7.617   4.995  0.2440 -0.2026 -0.2471
  297MOL   H10248054   7.414   7.484   4.687  1.0164 -0.3901 -1.5152
  297MOL   H10348055   7.256   7.561   4.659  0.0879 -2.0714  1.8810
  297MOL   H10448056   7.232   7.672   4.836 -0.3286 -0.8492  0.2488
  297MOL   H10548057   7.382   7.749   4.834 -1.2435  0.8169 -2.3466
  297MOL   C10648058   7.332   7.441   4.977  0.1515  0.2811  0.1995
  297MOL   C10748059   7.408   7.378   5.088  0.0566  0.0771 -0.0266
  297MOL   C10848060   7.382   7.436   5.226  0.6495  0.7348  0.3208
  297MOL   O10948061   7.314   7.532   5.238 -0.8104  0.8670  0.4118
  297MOL   H11048062   7.328   7.376   4.890  0.1946 -1.4484  1.4802
  297MOL   H11148063   7.231   7.464   5.011 -0.2397  1.0672 -1.4523
  297MOL   H11248064   7.515   7.370   5.066 -0.7974 -2.2389 -3.7728
  297MOL   H11348065   7.374   7.274   5.096  1.5458 -0.2481  3.0026
  297MOL   C11448066   7.459   7.359   5.337 -0.4714  0.5779  0.0755
  297MOL   C11548067   7.444   7.424   5.481  0.4073 -0.3373  0.9061
  297MOL   C11648068   7.423   7.323   5.592  0.3061  0.3664 -0.6207
  297MOL   O11748069   7.493   7.220   5.606  0.0192 -0.3400  0.0608
  297MOL   H11848070   7.565   7.364   5.311 -0.3236 -1.5283  0.2036
  297MOL   H11948071   7.436   7.253   5.333 -1.0431  0.7864 -2.8776
  297MOL   H12048072   7.360   7.493   5.486  0.3434 -0.3663  0.3227
  297MOL   H12148073   7.537   7.478   5.502 -0.6048  1.5416  0.7065
  297MOL   C12248074   7.325   7.359   5.703  0.6263 -0.3811 -0.1116
  297MOL   C12348075   7.392   7.350   5.845  0.4061 -0.3747  0.3105
  297MOL   C12448076   7.410   7.485   5.917 -1.0191  0.0611  0.0944
  297MOL   O12548077   7.332   7.576   5.902  0.1812  0.5494 -0.4451
  297MOL   H12648078   7.235   7.297   5.697  0.0327  0.5243 -0.5412
  297MOL   H12748079   7.287   7.461   5.697 -1.7238 -0.9517  3.1166
  297MOL   H12848080   7.480   7.286   5.852  0.2407 -0.5491  0.8077
  297MOL   H12948081   7.327   7.290   5.910  0.7685 -1.1424 -0.0275
  297MOL   C13048082   7.528   7.500   6.008  0.1838  0.2987  0.2072
  297MOL   C13148083   7.553   7.642   6.065 -0.4630  0.9698 -0.1054
  297MOL   C13248084   7.658   7.651   6.181  0.2120  0.1823 -0.3283
  297MOL   O13348085   7.733   7.558   6.213  0.6018 -0.6351  0.4956
  297MOL   H13448086   7.617   7.468   5.954  1.2628  1.3144  1.3234
  297MOL   H13548087   7.513   7.424   6.084 -2.7677  1.7351  1.1379
  297MOL   H13648088   7.458   7.673   6.109  0.1254 -1.3412  2.9443
  297MOL   H13748089   7.589   7.717   5.994  1.4027  0.9018  0.7357
  297MOL   C13848090   7.675   7.785   6.254  0.1693  0.0471 -0.1152
  297MOL   C13948091   7.661   7.753   6.409  0.1687 -0.0556  0.2782
  297MOL   C14048092   7.794   7.776   6.480  0.6855  0.2823  0.5229
  297MOL   O14148093   0.027   7.835   6.420 -0.5643 -0.1195  0.3300
  297MOL   H14248094   7.585   7.839   6.226  0.7264  0.5925 -0.8727
  297MOL   H14348095   7.756   7.848   6.217 -0.6608  0.8805 -0.5506
  297MOL   H14448096   7.643   7.646   6.425  0.4933  0.0873  1.6388
  297MOL   H14548097   7.590   7.807   6.472 -2.4883  0.8322 -3.3211
  297MOL   C14648098   7.805   7.714   6.617  0.7915 -0.1025 -0.8639
  297MOL   C14748099   0.035   7.589   6.615 -0.3417 -0.6654 -0.0210
  297MOL   C14848100   0.081   7.559   6.754 -0.3020  0.6682 -0.2758
  297MOL   O14948101   0.197   7.583   6.795  0.8641  0.1633 -0.5420
  297MOL   H15048102   7.708   7.673   6.644  0.6608  0.5318 -0.3668
  297MOL   H15148103   7.840   7.792   6.684  0.4333 -1.9749  1.5546
  297MOL   H15248104   0.128   7.613   6.563 -0.3249 -0.9008 -0.0972
  297MOL   H15348105   7.848   7.500   6.573 -1.9800 -0.3690  1.0881
  297MOL   C15448106   7.836   7.500   6.848  0.0427 -0.3791 -0.2273
  297MOL   C15548107   0.040   7.455   6.981  0.2341  0.4372  0.1819
  297MOL   C15648108   7.796   7.415   7.085  0.5764 -0.0222  0.2965
  297MOL   O15748109   7.682   7.463   7.071  0.6198  0.6435 -0.0130
  297MOL   H15848110   7.785   7.415   6.802 -2.1554  0.4675  0.5482
  297MOL   H15948111   7.757   7.576   6.855  0.1866  0.0864 -2.8837
  297MOL   H16048112   0.094   7.538   7.026  1.9716 -0.0427 -0.9764
  297MOL   H16148113   0.109   7.373   6.965 -0.4679  0.3466 -2.7472
  297MOL   H16248114   7.817   7.360   7.177 -0.2907  0.5727  0.8588
  298MOL     C148115   3.182   4.934   1.426 -0.3038 -0.1922 -0.0042
  298MOL     C248116   3.108   4.817   1.490  0.0685  0.1000 -0.3575
  298MOL     C348117   3.109   4.821   1.640 -0.1369  0.1304 -0.3446
  298MOL     O448118   3.090   4.920   1.710  0.2609  0.2567 -0.7643
  298MOL     H548119   3.290   4.925   1.435 -0.4455 -1.2849  0.6581
  298MOL     H648120   3.145   4.952   1.325 -0.2626  2.6383  0.4536
  298MOL     H748121   3.156   4.724   1.461 -0.3310 -0.8129  1.7786
  298MOL     H848122   3.004   4.820   1.457 -0.0554  0.2937  0.0468
  298MOL     H948123   3.170   5.031   1.473  0.1047  0.0758 -0.4508
  298MOL    C1048124   3.120   4.678   1.698 -0.2797  0.0507  0.2635
  298MOL    C1148125   3.272   4.634   1.683 -0.0544  0.2582  0.4816
  298MOL    C1248126   3.303   4.499   1.627  0.1233 -0.2310  0.2868
  298MOL    O1348127   3.218   4.441   1.565 -0.2429 -0.4393  0.4438
  298MOL    H1448128   3.053   4.602   1.657 -0.1326  0.3434 -0.5432
  298MOL    H1548129   3.111   4.695   1.805 -0.1493  1.0931  0.1185
  298MOL    H1648130   3.306   4.621   1.786 -1.4331 -0.0380  0.9052
  298MOL    H1748131   3.341   4.706   1.641 -0.5701  0.2389 -0.3987
  298MOL    C1848132   3.446   4.457   1.644 -0.4117 -0.1176 -0.1015
  298MOL    C1948133   3.480   4.338   1.549 -0.0851 -0.5213  0.4556
  298MOL    C2048134   3.563   4.383   1.424  0.1409  0.2291 -0.1516
  298MOL    O2148135   3.656   4.468   1.424 -0.6359 -0.6692 -0.1523
  298MOL    H2248136   3.446   4.411   1.742 -0.9769  2.1729  1.0120
  298MOL    H2348137   3.513   4.543   1.647 -1.6392  0.7790  2.2197
  298MOL    H2448138   3.391   4.290   1.508 -0.3210  0.6036 -0.3819
  298MOL    H2548139   3.532   4.254   1.595  0.4633 -1.6793 -2.1761
  298MOL    C2648140   3.540   4.303   1.300 -0.4738 -0.2077  0.1387
  298MOL    C2748141   3.640   4.325   1.188 -0.3451  0.7842 -0.4331
  298MOL    C2848142   3.618   4.450   1.101 -0.3344  0.1106  0.1098
  298MOL    O2948143   3.513   4.519   1.112  0.0452  0.1070 -0.4118
  298MOL    H3048144   3.438   4.318   1.264 -0.8344  0.3267  1.3670
  298MOL    H3148145   3.549   4.203   1.342 -2.2360 -0.1098  0.7578
  298MOL    H3248146   3.636   4.233   1.130  1.9092  1.3520 -1.5533
  298MOL    H3348147   3.743   4.330   1.221 -0.3454  0.6789 -0.4164
  298MOL    C3448148   3.728   4.486   1.000 -0.3508  0.0397 -0.0585
  298MOL    C3548149   3.705   4.622   0.928  0.1798 -0.4378 -0.3235
  298MOL    C3648150   3.829   4.715   0.918 -0.0351 -0.0849 -0.1470
  298MOL    O3748151   3.942   4.686   0.955 -0.6188  0.7999 -0.1195
  298MOL    H3848152   3.735   4.403   0.930 -0.6353  0.0197 -0.0645
  298MOL    H3948153   3.815   4.495   1.064 -0.2944  0.0764 -0.1413
  298MOL    H4048154   3.632   4.682   0.982 -0.9985 -1.0427 -1.2461
  298MOL    H4148155   3.676   4.614   0.824 -2.6647 -0.0717  0.4062
  298MOL    C4248156   3.823   4.829   0.814  0.0226  0.0301 -0.1443
  298MOL    C4348157   3.936   4.949   0.825  0.4496 -0.8871  0.6412
  298MOL    C4448158   3.889   5.059   0.922  0.1461 -0.3247 -0.3052
  298MOL    O4548159   3.797   5.032   1.001  0.1602  0.0097  0.3714
  298MOL    H4648160   3.722   4.867   0.802  0.2308  0.0392 -2.0251
  298MOL    H4748161   3.836   4.775   0.720 -1.3443  0.0176 -0.3252
  298MOL    H4848162   3.958   5.006   0.734  2.0036  1.7504  2.6020
  298MOL    H4948163   4.026   4.910   0.871  1.0019 -0.1146  0.2313
  298MOL    C5048164   3.954   5.192   0.926  0.0234  0.5411 -0.5819
  298MOL    C5148165   3.924   5.283   1.046  0.1044  0.7440  0.2051
  298MOL    C5248166   3.843   5.412   1.013 -0.6522 -0.1121 -0.8875
  298MOL    O5348167   3.848   5.466   0.901  0.1759 -0.7048 -0.0558
  298MOL    H5448168   3.927   5.244   0.834 -1.6207  1.0867  0.1890
  298MOL    H5548169   4.062   5.178   0.920  0.0353  0.7121 -0.7707
  298MOL    H5648170   4.016   5.319   1.093  1.7476 -1.6341 -1.0761
  298MOL    H5748171   3.877   5.230   1.128  0.9238 -0.7344 -0.2667
  298MOL    C5848172   3.760   5.469   1.125  0.6944  0.1832 -0.3985
  298MOL    C5948173   3.608   5.475   1.085  1.1469 -0.7012 -0.0176
  298MOL    C6048174   3.557   5.613   1.054 -0.3531 -0.4467 -0.3707
  298MOL    O6148175   3.631   5.708   1.028  0.5004 -0.4146 -0.2627
  298MOL    H6248176   3.809   5.564   1.145  0.1384  0.5456 -0.7347
  298MOL    H6348177   3.775   5.419   1.221 -0.3895  2.6582  1.1357
  298MOL    H6448178   3.565   5.445   1.181 -0.0146 -0.9897 -0.6159
  298MOL    H6548179   3.581   5.395   1.015 -0.4471 -0.8691  0.7671
  298MOL    C6648180   3.414   5.642   1.026  0.7234  0.3821 -0.4539
  298MOL    C6748181   3.389   5.671   0.876  0.1489  1.0695 -0.5199
  298MOL    C6848182   3.332   5.561   0.793 -0.6412 -0.1186  0.2454
  298MOL    O6948183   3.358   5.447   0.821  0.0665  0.0681 -0.6519
  298MOL    H7048184   3.360   5.718   1.082  0.5130 -0.2573  0.2196
  298MOL    H7148185   3.360   5.553   1.058  0.5048  0.2794 -1.0917
  298MOL    H7248186   3.475   5.708   0.820  0.7289 -2.8561 -2.4017
  298MOL    H7348187   3.319   5.752   0.854  0.3349  0.6724 -2.6991
  298MOL    C7448188   3.236   5.599   0.675 -0.7591  0.4332  0.4385
  298MOL    C7548189   3.214   5.479   0.580  0.2082  0.7011 -0.4778
  298MOL    C7648190   3.337   5.454   0.491 -0.1033 -0.0650 -0.0309
  298MOL    O7748191   3.451   5.494   0.524 -0.5971 -0.0683  0.0183
  298MOL    H7848192   3.293   5.668   0.612 -0.3006 -1.5108 -1.3271
  298MOL    H7948193   3.144   5.655   0.692  0.1366  1.8156  0.8297
  298MOL    H8048194   3.126   5.489   0.517 -0.5489  0.5695  0.5360
  298MOL    H8148195   3.207   5.391   0.644  0.5807  0.8187 -0.2715
  298MOL    C8248196   3.321   5.360   0.370  0.5116  0.0873 -0.1095
  298MOL    C8348197   3.361   5.435   0.235  0.2694 -0.1771 -0.5706
  298MOL    C8448198   3.240   5.497   0.162  0.0863 -0.0485  0.6312
  298MOL    O8548199   3.130   5.444   0.163 -0.1657  0.3732 -0.5197
  298MOL    H8648200   3.218   5.324   0.376  0.9019 -1.0118  0.1197
  298MOL    H8748201   3.395   5.285   0.399  2.0149  1.3790 -0.5316
  298MOL    H8848202   3.406   5.357   0.173  0.8197 -1.0332  0.8749
  298MOL    H8948203   3.435   5.515   0.241 -0.2782  0.3835 -1.2348
  298MOL    C9048204   3.265   5.632   0.097 -0.1706 -0.2286  0.4927
  298MOL    C9148205   3.151   5.731   0.126  0.2524  0.1301 -0.1086
  298MOL    C9248206   3.181   5.812   0.249 -1.1721 -0.3281  0.2353
  298MOL    O9348207   3.249   5.762   0.337 -0.1042  0.0741  0.7271
  298MOL    H9448208   3.262   5.605   7.851 -0.8113 -0.6957  0.6267
  298MOL    H9548209   3.361   5.676   0.125  0.1682  0.0715 -1.1217
  298MOL    H9648210   3.052   5.688   0.141 -0.2433  0.8588 -1.1733
  298MOL    H9748211   3.134   5.813   0.055 -0.6240  2.0652  2.2426
  298MOL    C9848212   3.144   5.958   0.256 -0.5475  1.2562  0.0033
  298MOL    C9948213   3.105   5.999   0.400  0.2651  0.0618  1.0090
  298MOL   C10048214   3.212   6.082   0.469  0.2555 -0.3690 -0.5273
  298MOL   O10148215   3.284   6.161   0.411  0.3116  0.6127 -0.0543
  298MOL   H10248216   3.064   5.967   0.183 -2.1950 -2.8034  1.1360
  298MOL   H10348217   3.225   6.021   0.220 -0.8022  2.5578  1.6655
  298MOL   H10448218   3.090   5.909   0.460  0.2693 -1.5299 -1.3269
  298MOL   H10548219   3.006   6.046   0.400  0.4859  0.5647  2.2435
  298MOL   C10648220   3.235   6.055   0.617 -0.5133  0.3950 -0.3013
  298MOL   C10748221   3.304   6.165   0.692 -0.2233  0.4092  0.2034
  298MOL   C10848222   3.353   6.121   0.829 -0.2970 -0.2321 -0.3487
  298MOL   O10948223   3.295   6.031   0.880 -0.0957 -0.1344 -0.2980
  298MOL   H11048224   3.304   5.971   0.626  1.0518  1.6665 -0.2885
  298MOL   H11148225   3.147   6.013   0.667 -1.5284  2.3768 -0.3972
  298MOL   H11248226   3.239   6.250   0.714 -0.8374  0.2358 -0.8902
  298MOL   H11348227   3.389   6.200   0.633  0.6589 -0.5697  0.8838
  298MOL   C11448228   3.474   6.194   0.890 -0.4844 -0.7143  0.1324
  298MOL   C11548229   3.547   6.130   1.007 -0.6880  0.1502 -0.2768
  298MOL   C11648230   3.487   6.137   1.144  0.4964 -0.0194  0.1729
  298MOL   O11748231   3.397   6.220   1.173  0.0326 -0.1094  0.1186
  298MOL   H11848232   3.429   6.290   0.916 -2.8752 -1.3979 -1.3396
  298MOL   H11948233   3.543   6.212   0.807  2.6393  0.6463  2.9179
  298MOL   H12048234   3.641   6.185   1.016 -0.1648 -0.2307 -2.9532
  298MOL   H12148235   3.582   6.030   0.980  1.0988  0.4379  0.8873
  298MOL   C12248236   3.537   6.022   1.233 -0.4233 -0.5459 -0.1986
  298MOL   C12348237   3.472   6.014   1.369  0.3931  0.4510 -0.1529
  298MOL   C12448238   3.531   5.907   1.458 -0.4712 -1.0760 -0.1308
  298MOL   O12548239   3.599   5.943   1.549  0.2533  0.0605 -0.4261
  298MOL   H12648240   3.646   6.023   1.235 -0.4374  0.1738  0.6595
  298MOL   H12748241   3.514   5.931   1.178  2.8742 -1.3951 -0.2642
  298MOL   H12848242   3.365   5.999   1.351  1.1134 -3.2623 -1.6832
  298MOL   H12948243   3.478   6.117   1.406 -0.2472  0.8140 -1.0407
  298MOL   C13048244   3.525   5.764   1.416 -0.3961  0.4744  0.7981
  298MOL   C13148245   3.479   5.686   1.543 -0.0759  0.6628  0.0225
  298MOL   C13248246   3.443   5.539   1.509  0.1278  0.8730 -0.2534
  298MOL   O13348247   3.397   5.513   1.396  0.5081  0.0920  0.4903
  298MOL   H13448248   3.617   5.712   1.389 -1.8363 -0.7714 -1.9879
  298MOL   H13548249   3.454   5.746   1.335 -0.6825  1.8295  0.7430
  298MOL   H13648250   3.393   5.730   1.594 -1.1251  0.6098 -1.6760
  298MOL   H13748251   3.555   5.684   1.622  1.8153  0.1057 -1.7648
  298MOL   C13848252   3.449   5.437   1.624 -0.2992  0.1733 -0.4726
  298MOL   C13948253   3.390   5.296   1.583  0.2270 -0.2852 -0.4978
  298MOL   C14048254   3.429   5.190   1.684 -0.7348 -0.1067  0.7019
  298MOL   O14148255   3.541   5.188   1.731 -0.5253 -0.1751  0.4434
  298MOL   H14248256   3.400   5.478   1.713 -4.4263  2.2048 -3.5168
  298MOL   H14348257   3.553   5.419   1.652 -0.2128 -0.4268 -1.1688
  298MOL   H14448258   3.418   5.267   1.481 -1.3017 -2.8423 -0.2073
  298MOL   H14548259   3.281   5.294   1.591  0.3456  1.1825  1.8919
  298MOL   C14648260   3.330   5.079   1.723  0.2402  0.0656  0.4260
  298MOL   C14748261   3.363   5.013   1.865 -0.0239 -0.1179 -0.0536
  298MOL   C14848262   3.266   5.052   1.970  0.0596  0.8934 -0.2119
  298MOL   O14948263   3.202   5.155   1.953  0.3695 -0.5025  0.6573
  298MOL   H15048264   3.339   4.989   1.663  0.3946 -0.4084  1.1539
  298MOL   H15148265   3.228   5.118   1.719 -0.5410 -2.0152 -0.3987
  298MOL   H15248266   3.459   5.047   1.903 -0.3996  0.0141  0.7810
  298MOL   H15348267   3.374   4.905   1.855  0.0774 -0.0146 -1.0922
  298MOL   C15448268   3.256   4.977   2.110  0.2429  0.4675 -0.9719
  298MOL   C15548269   3.227   5.062   2.232 -0.2776 -0.4380 -0.0653
  298MOL   C15648270   3.274   5.003   2.367  0.2649 -0.4727 -0.0023
  298MOL   O15748271   3.301   4.880   2.385 -0.7165 -0.1778 -0.2796
  298MOL   H15848272   3.357   4.938   2.122 -0.8647 -2.1735  0.0837
  298MOL   H15948273   3.184   4.896   2.103 -1.8297  2.3222 -1.9518
  298MOL   H16048274   3.120   5.080   2.225 -0.5798 -2.3166 -0.4320
  298MOL   H16148275   3.284   5.153   2.212  1.7435 -1.1969  2.0988
  298MOL   H16248276   3.291   5.080   2.443 -0.5759 -0.5141  0.2267
  299MOL     C148277   0.668   1.364   3.003  0.3791 -0.4247  0.4019
  299MOL     C248278   0.522   1.398   3.069  0.2593 -0.2838 -0.4227
  299MOL     C348279   0.530   1.386   3.225 -0.3875  0.4204  0.4479
  299MOL     O448280   0.631   1.413   3.287 -0.1909 -0.2940  0.7420
  299MOL     H548281   0.650   1.344   2.897  0.7182  1.9509 -0.1438
  299MOL     H648282   0.732   1.452   3.013 -1.9983  1.3884  0.1585
  299MOL     H748283   0.452   1.323   3.033 -0.2756 -0.5630  1.1642
  299MOL     H848284   0.495   1.496   3.031  0.0745 -0.4580 -0.7417
  299MOL     H948285   0.718   1.277   3.044 -1.2919 -1.0917  1.0486
  299MOL    C1048286   0.400   1.340   3.289 -0.8799 -0.1113 -0.0327
  299MOL    C1148287   0.382   1.185   3.270 -0.6159 -0.3100 -0.2692
  299MOL    C1248288   0.242   1.148   3.213  0.2389  0.4842  0.0599
  299MOL    O1348289   0.196   1.210   3.119 -0.9014 -0.3209 -0.0603
  299MOL    H1448290   0.319   1.400   3.247 -1.4993 -1.5862 -1.0007
  299MOL    H1548291   0.404   1.366   3.394  0.1745 -0.5287  0.0278
  299MOL    H1648292   0.396   1.136   3.366  0.4700  0.6029  0.0379
  299MOL    H1748293   0.450   1.152   3.191  1.7662  0.7361  1.3099
  299MOL    C1848294   0.158   1.044   3.283 -0.3096 -0.5225  0.3267
  299MOL    C1948295   0.038   1.012   3.194  0.1014 -0.8368  0.0181
  299MOL    C2048296   7.816   0.891   3.246  0.1879  0.3836  0.0066
  299MOL    O2148297   0.015   0.788   3.285  0.1344 -0.4782 -0.0626
  299MOL    H2248298   0.134   1.085   3.381 -0.2104  1.1103 -0.3211
  299MOL    H2348299   0.212   0.953   3.311  0.3493  0.2446  1.6207
  299MOL    H2448300   0.075   0.978   3.098  0.0626  1.3561 -0.8005
  299MOL    H2548301   7.847   1.109   3.183 -0.1768 -1.0917 -1.0371
  299MOL    C2648302   7.672   0.919   3.259 -0.3003  0.0880  0.6057
  299MOL    C2748303   7.598   0.808   3.334  0.1999 -0.4641 -0.7380
  299MOL    C2848304   7.582   0.833   3.482 -0.3581 -0.1109 -0.9443
  299MOL    O2948305   7.501   0.912   3.537  0.5407  0.3819  0.0943
  299MOL    H3048306   7.644   0.936   3.155  2.4600 -1.0405 -0.3788
  299MOL    H3148307   7.662   1.012   3.315 -0.9121  0.7646 -0.6162
  299MOL    H3248308   7.637   0.708   3.314  0.7011 -0.8947  2.1308
  299MOL    H3348309   7.496   0.803   3.298  0.6733 -0.9213 -2.0610
  299MOL    C3448310   7.673   0.747   3.574 -0.1504 -0.5703  0.1512
  299MOL    C3548311   7.605   0.708   3.708 -0.1135  0.9549  0.5449
  299MOL    C3648312   7.688   0.759   3.830 -0.8096 -0.8662 -0.3276
  299MOL    O3748313   7.649   0.861   3.894 -0.2264  0.1689 -0.0315
  299MOL    H3848314   7.763   0.803   3.598 -0.2778 -0.5578  0.6006
  299MOL    H3948315   7.713   0.660   3.522  4.7824  1.7839 -0.1925
  299MOL    H4048316   7.604   0.600   3.703  0.8781  0.9726 -0.1686
  299MOL    H4148317   7.502   0.744   3.719 -0.7900  0.1328 -2.5420
  299MOL    C4248318   7.823   0.687   3.867 -0.0660 -0.1052  0.1360
  299MOL    C4348319   0.081   0.788   3.879  0.3659 -0.1704  0.0431
  299MOL    C4448320   0.101   0.816   4.027 -0.0293 -0.2917  0.5604
  299MOL    O4548321   0.110   0.724   4.113 -0.0808 -0.1603 -0.2659
  299MOL    H4648322   7.846   0.616   3.788  0.3690 -2.5593  2.3985
  299MOL    H4748323   7.801   0.629   3.957  2.5911 -0.6034  0.5137
  299MOL    H4848324   0.087   0.872   3.811  2.6700  0.2301  0.6981
  299MOL    H4948325   0.176   0.736   3.868  0.6562  0.8047 -2.3608
  299MOL    C5048326   0.111   0.967   4.066 -0.3510 -0.1730 -0.5815
  299MOL    C5148327   0.036   0.988   4.197 -0.3461  0.0807  0.5966
  299MOL    C5248328   0.145   0.981   4.308 -0.5300  1.0599  0.0376
  299MOL    O5348329   0.244   1.053   4.312  0.2271 -0.8539  0.0214
  299MOL    H5448330   0.059   1.033   3.996  1.0658  1.2071 -0.3513
  299MOL    H5548331   0.215   0.998   4.062 -1.0264  2.0662 -1.5779
  299MOL    H5648332   7.814   0.916   4.210 -1.0667  0.5688 -1.0422
  299MOL    H5748333   7.853   1.089   4.198  1.7396  1.0031 -1.5890
  299MOL    C5848334   0.132   0.868   4.411  0.1184  0.4129  0.0138
  299MOL    C5948335   0.253   0.833   4.498  0.0426 -0.0570  0.3097
  299MOL    C6048336   0.279   0.681   4.520 -0.4079 -0.0294  0.0170
  299MOL    O6148337   0.189   0.600   4.497 -0.0621  0.2466  0.3397
  299MOL    H6248338   0.099   0.779   4.357 -1.2514 -0.4920  2.2153
  299MOL    H6348339   0.045   0.889   4.474 -1.8695 -0.8449 -2.2445
  299MOL    H6448340   0.237   0.882   4.594  3.3181  1.7445  0.0000
  299MOL    H6548341   0.338   0.886   4.454  1.3741 -2.0216  0.4653
  299MOL    C6648342   0.422   0.640   4.565 -0.9080  0.3349  0.7219
  299MOL    C6748343   0.436   0.512   4.643  0.4546 -0.1418  0.6277
  299MOL    C6848344   0.357   0.496   4.776  0.0362  0.3993 -0.2321
  299MOL    O6948345   0.298   0.591   4.825 -0.6197 -0.1618  0.2245
  299MOL    H7048346   0.454   0.717   4.636 -1.9594  0.0656  1.5081
  299MOL    H7148347   0.494   0.646   4.483 -0.7812 -0.5172  0.7713
  299MOL    H7248348   0.534   0.488   4.685  0.1502 -1.0130  0.8500
  299MOL    H7348349   0.411   0.423   4.585 -0.6153 -0.3710  1.4273
  299MOL    C7448350   0.358   0.357   4.841 -0.1411 -0.0514 -0.1160
  299MOL    C7548351   0.293   0.359   4.977  0.2613 -0.0558  0.3724
  299MOL    C7648352   0.143   0.331   4.977  0.4809 -0.0498  0.0531
  299MOL    O7748353   0.069   0.375   4.887  0.5340  0.4565 -0.1210
  299MOL    H7848354   0.461   0.326   4.856  0.1063  0.7117 -0.2396
  299MOL    H7948355   0.304   0.286   4.779  1.1692 -1.5977  0.4787
  299MOL    H8048356   0.317   0.450   5.032  1.7747 -0.3443  0.2331
  299MOL    H8148357   0.348   0.291   5.041 -1.4352  0.9399  2.9415
  299MOL    C8248358   0.083   0.243   5.094  0.8523  0.0580  0.4068
  299MOL    C8348359   7.814   0.173   5.047  0.0367  0.2801  0.4645
  299MOL    C8448360   7.690   0.213   5.117 -0.2920 -0.5844  0.4882
  299MOL    O8548361   7.687   0.284   5.216  0.0539  0.3382  0.4210
  299MOL    H8648362   0.057   0.317   5.169 -2.2093 -0.0517 -0.4815
  299MOL    H8748363   0.159   0.177   5.137  1.7576  2.0723  1.9695
  299MOL    H8848364   7.815   0.069   5.082  0.0857  0.4232  0.8916
  299MOL    H8948365   7.805   0.170   4.939 -0.4750 -0.1228  0.5124
  299MOL    C9048366   7.561   0.155   5.055  0.3354  0.1125 -0.1000
  299MOL    C9148367   7.439   0.152   5.150  0.0375  0.0457 -1.1969
  299MOL    C9248368   7.307   0.093   5.107 -0.0333 -0.2102 -0.2571
  299MOL    O9348369   7.285   0.060   4.990  0.2547 -0.7121 -0.4258
  299MOL    H9448370   7.581   0.053   5.020  0.5719 -0.2249  1.0066
  299MOL    H9548371   7.542   0.222   4.971  0.9264  0.8175  0.3289
  299MOL    H9648372   7.425   0.259   5.164 -0.5466  0.0463 -1.7833
  299MOL    H9748373   7.460   0.113   5.250 -0.6710 -0.0220 -1.0724
  299MOL    C9848374   7.212   0.042   5.217 -0.5807 -0.3259  0.5620
  299MOL    C9948375   7.062   0.034   5.183 -0.4235  0.0761 -0.0184
  299MOL   C10048376   6.979   0.162   5.208  0.8460 -0.0698  1.1131
  299MOL   O10148377   7.014   0.268   5.161 -0.0318 -0.2456 -0.1390
  299MOL   H10248378   7.232   0.099   5.308 -1.2680  0.5983  0.1445
  299MOL   H10348379   7.246   7.800   5.238 -0.5604 -0.3818  0.2633
  299MOL   H10448380   7.032   7.813   5.251  2.6670 -1.6094 -0.5501
  299MOL   H10548381   7.042   7.851   5.085  0.4716 -1.4335  0.4354
  299MOL   C10648382   6.861   0.148   5.306 -0.4949 -0.3599 -0.3473
  299MOL   C10748383   6.765   0.267   5.293  0.1907  0.4112  1.0799
  299MOL   C10848384   6.628   0.215   5.246 -0.6420  0.0003 -0.0784
  299MOL   O10948385   6.547   0.179   5.333  0.8047  0.1019  0.1241
  299MOL   H11048386   6.894   0.128   5.408 -0.1706  0.1983 -0.3453
  299MOL   H11148387   6.818   0.056   5.265 -0.5274 -0.3926 -0.2415
  299MOL   H11248388   6.794   0.336   5.214  1.9982 -1.9728 -0.4236
  299MOL   H11348389   6.779   0.327   5.383 -0.6266  0.5761  1.1038
  299MOL   C11448390   6.609   0.202   5.093  0.6084  0.1472 -0.5332
  299MOL   C11548391   6.462   0.210   5.040 -0.3234 -0.1578 -0.4676
  299MOL   C11648392   6.362   0.096   5.066 -0.5400 -0.1990  0.5902
  299MOL   O11748393   6.249   0.112   5.090  0.7528  0.0322 -0.4220
  299MOL   H11848394   6.653   0.105   5.067 -0.0604 -1.1061  2.7740
  299MOL   H11948395   6.665   0.279   5.040  1.4165  1.3577  2.0055
  299MOL   H12048396   6.477   0.238   4.936  3.0338 -0.0256 -0.0046
  299MOL   H12148397   6.420   0.300   5.087  0.0528 -0.0959 -0.2501
  299MOL   C12248398   6.426   7.821   5.030  0.2478  0.1101 -0.1714
  299MOL   C12348399   6.356   7.703   5.093  0.5227  0.6458  0.1947
  299MOL   C12448400   6.425   7.567   5.050  0.4271 -0.7735 -0.0115
  299MOL   O12548401   6.517   7.566   4.967  0.5780  0.0167  0.0324
  299MOL   H12648402   6.530   7.811   5.058  0.6335  3.2578 -0.3798
  299MOL   H12748403   6.419   7.811   4.921 -4.0156 -0.3572  0.0330
  299MOL   H12848404   6.248   7.700   5.081  0.3243 -0.1033  1.9036
  299MOL   H12948405   6.375   7.711   5.201  1.5548  2.5143 -0.1058
  299MOL   C13048406   6.375   7.443   5.119  0.3656 -0.0557 -0.5746
  299MOL   C13148407   6.436   7.439   5.256  0.0189  0.1846  0.4547
  299MOL   C13248408   6.466   7.289   5.291 -0.4113 -0.2895 -0.4868
  299MOL   O13348409   6.417   7.196   5.228 -0.1837 -0.3519  0.5314
  299MOL   H13448410   6.393   7.365   5.044  1.8409  0.4808 -0.7804
  299MOL   H13548411   6.267   7.441   5.131  0.5653  1.8592  1.9248
  299MOL   H13648412   6.374   7.496   5.325  0.6021  1.6498 -0.2201
  299MOL   H13748413   6.534   7.485   5.244  0.3406  0.2385  2.9636
  299MOL   C13848414   6.537   7.272   5.419  0.0612  0.3141 -0.8790
  299MOL   C13948415   6.542   7.130   5.469 -0.1731  0.1901 -0.0046
  299MOL   C14048416   6.591   7.128   5.612 -0.2876  0.4837 -0.0296
  299MOL   O14148417   6.576   7.220   5.690  0.0848 -0.2364 -0.6264
  299MOL   H14248418   6.483   7.330   5.494  0.2323 -0.9270  0.2132
  299MOL   H14348419   6.641   7.305   5.423  0.6776 -1.8553  3.4236
  299MOL   H14448420   6.612   7.085   5.398  0.6670 -0.1243  1.0100
  299MOL   H14548421   6.442   7.089   5.463 -0.8480  2.0743 -2.3436
  299MOL   C14648422   6.656   7.003   5.661  0.3523  0.3863  0.3984
  299MOL   C14748423   6.725   7.012   5.791  0.0390 -0.1886  0.4926
  299MOL   C14848424   6.635   6.997   5.913 -0.0032  0.3476 -0.7349
  299MOL   O14948425   6.554   6.902   5.917 -0.6063  0.2287  1.0543
  299MOL   H15048426   6.725   6.976   5.581 -0.0337 -0.5098  0.3591
  299MOL   H15148427   6.584   6.921   5.662  0.1953  0.3864 -3.5324
  299MOL   H15248428   6.779   7.106   5.799 -1.2120  0.2749  5.1052
  299MOL   H15348429   6.794   6.927   5.789  1.0178  0.6241 -1.1849
  299MOL   C15448430   6.639   7.101   6.020  0.4037  0.3865  0.5289
  299MOL   C15548431   6.563   7.060   6.151  0.2389  0.1798 -0.8088
  299MOL   C15648432   6.423   7.113   6.169  0.1061  0.2258  0.9126
  299MOL   O15748433   6.391   7.228   6.131 -0.2982  0.0810 -0.0536
  299MOL   H15848434   6.595   7.193   5.983 -1.6268 -0.3549  1.0353
  299MOL   H15948435   6.747   7.115   6.029  0.1170  1.1912  3.0751
  299MOL   H16048436   6.622   7.109   6.230 -0.2584  0.5893 -0.6876
  299MOL   H16148437   6.546   6.955   6.174 -0.2615  0.7530  1.6333
  299MOL   H16248438   6.355   7.040   6.211 -0.6500  0.8600  0.7957
  300MOL     C148439   5.533   0.628   5.429 -0.2735 -0.0617  0.5887
  300MOL     C248440   5.406   0.659   5.506  0.4273 -0.1684  0.5376
  300MOL     C348441   5.404   0.787   5.592 -0.3404  0.2065 -0.2839
  300MOL     O448442   5.492   0.876   5.578 -0.0995  0.0269  0.2564
  300MOL     H548443   5.619   0.628   5.496  0.2296  0.1948 -0.0492
  300MOL     H648444   5.520   0.548   5.356  0.8904  0.3760 -0.1270
  300MOL     H748445   5.384   0.571   5.567 -2.2761  1.6681  2.2567
  300MOL     H848446   5.319   0.656   5.440  0.7529  0.5673  0.0756
  300MOL     H948447   5.550   0.718   5.369  0.5298 -1.5187 -1.4438
  300MOL    C1048448   5.301   0.787   5.700  0.2862  0.3333  0.0329
  300MOL    C1148449   5.284   0.924   5.770 -0.1229  0.2138 -0.2420
  300MOL    C1248450   5.188   1.019   5.689 -0.3399 -0.3010  0.8531
  300MOL    O1348451   5.111   0.977   5.604 -0.2278 -0.1425  0.7808
  300MOL    H1448452   5.333   0.708   5.767  2.4401 -0.3576 -1.7260
  300MOL    H1548453   5.208   0.753   5.654 -0.0914 -0.4965  1.4084
  300MOL    H1648454   5.383   0.966   5.786  0.1108 -0.2372 -0.4769
  300MOL    H1748455   5.245   0.912   5.871 -2.4831  1.6011 -0.9329
  300MOL    C1848456   5.199   1.166   5.722  0.1007  0.3780  0.2421
  300MOL    C1948457   5.076   1.243   5.669 -0.1464 -0.1699 -0.0168
  300MOL    C2048458   5.088   1.392   5.642  0.0181  0.3201  0.1187
  300MOL    O2148459   5.177   1.462   5.699  0.2332  0.4791  0.0995
  300MOL    H2248460   5.293   1.204   5.684 -0.1203  0.4410 -0.2371
  300MOL    H2348461   5.200   1.170   5.831 -2.0862  0.9628  0.2758
  300MOL    H2448462   4.982   1.218   5.719 -0.8383  1.0625 -0.6543
  300MOL    H2548463   5.040   1.208   5.572 -2.3760  3.6565 -0.6696
  300MOL    C2648464   4.971   1.454   5.561 -0.1410 -0.0626  0.6256
  300MOL    C2748465   4.975   1.604   5.528 -0.4586  0.3001 -0.5424
  300MOL    C2848466   4.950   1.689   5.645 -0.6215  0.1140 -0.6576
  300MOL    O2948467   4.912   1.641   5.754  0.6354  0.1797 -0.5456
  300MOL    H3048468   4.879   1.430   5.613  0.0256 -2.3083 -0.0844
  300MOL    H3148469   4.959   1.397   5.469  0.4729 -0.5036  0.8152
  300MOL    H3248470   4.898   1.622   5.453  1.5503  1.2940 -2.3755
  300MOL    H3348471   5.064   1.641   5.477  0.3746 -1.8666 -0.7137
  300MOL    C3448472   4.982   1.838   5.632  0.3323 -1.1299 -0.7271
  300MOL    C3548473   4.983   1.911   5.769  0.4376  0.3661 -0.7636
  300MOL    C3648474   4.844   1.963   5.815  0.1680 -0.3872  0.3852
  300MOL    O3748475   4.788   2.057   5.756 -0.2043  0.0782  0.1541
  300MOL    H3848476   4.894   1.874   5.579  1.7956 -1.5023 -3.5032
  300MOL    H3948477   5.069   1.853   5.567 -2.3076 -0.7601 -4.3596
  300MOL    H4048478   5.050   1.997   5.773  0.2847  0.3670  3.0425
  300MOL    H4148479   5.027   1.850   5.847  2.1046  2.0962 -0.3031
  300MOL    C4248480   4.784   1.895   5.935  0.9633 -0.2733 -0.3631
  300MOL    C4348481   4.649   1.955   5.990  0.3028  0.2507 -0.0881
  300MOL    C4448482   4.521   1.869   5.969  0.2379  0.7780 -0.5727
  300MOL    O4548483   4.534   1.757   5.931  0.1607  1.2348  0.3722
  300MOL    H4648484   4.857   1.909   6.014 -0.4088  1.7642  0.5926
  300MOL    H4748485   4.783   1.790   5.907  1.3309 -0.0738 -1.1294
  300MOL    H4848486   4.641   2.049   5.935  0.0218  0.7670  0.8313
  300MOL    H4948487   4.654   1.991   6.093  3.1998  2.6890 -0.9899
  300MOL    C5048488   4.382   1.924   5.995  0.5938 -0.0023 -0.3481
  300MOL    C5148489   4.273   1.818   6.036  0.4866 -0.0561 -0.4051
  300MOL    C5248490   4.154   1.831   5.940 -0.4580  0.0373  0.2911
  300MOL    O5348491   4.103   1.940   5.921 -0.1584 -0.2475  0.4973
  300MOL    H5448492   4.354   1.969   5.899 -0.2334  2.3360  0.9409
  300MOL    H5548493   4.376   2.013   6.058 -0.0199 -0.6200  0.4625
  300MOL    H5648494   4.241   1.835   6.139  0.3759  0.5795 -0.5428
  300MOL    H5748495   4.317   1.719   6.025  1.2604  0.3687 -1.1998
  300MOL    C5848496   4.111   1.704   5.876  0.6515 -0.1937 -0.2013
  300MOL    C5948497   4.024   1.723   5.749 -0.6149  0.1630 -0.2046
  300MOL    C6048498   3.872   1.694   5.775 -0.1889 -0.4425  0.5139
  300MOL    O6148499   3.832   1.691   5.890 -0.1435  0.4526 -0.1274
  300MOL    H6248500   4.065   1.650   5.960  2.9232 -0.6364  0.8091
  300MOL    H6348501   4.196   1.640   5.851 -0.4407 -2.1800  0.9996
  300MOL    H6448502   4.054   1.662   5.663 -0.6464  0.7888 -0.6678
  300MOL    H6548503   4.028   1.829   5.722  0.8654  0.4294  1.0063
  300MOL    C6648504   3.782   1.692   5.656  1.0743  0.5909 -0.4421
  300MOL    C6748505   3.648   1.624   5.691  0.0149  0.0725 -0.2925
  300MOL    C6848506   3.528   1.714   5.725 -0.1051  0.3577 -0.4120
  300MOL    O6948507   3.524   1.836   5.694  0.2654 -0.0018 -0.0667
  300MOL    H7048508   3.820   1.628   5.576 -0.1027 -0.1304 -0.4299
  300MOL    H7148509   3.760   1.794   5.627 -0.8581 -0.3581 -2.4803
  300MOL    H7248510   3.664   1.556   5.774 -0.8405  1.5688  1.1417
  300MOL    H7348511   3.614   1.555   5.614 -0.4152  0.0527 -0.0852
  300MOL    C7448512   3.405   1.647   5.787 -0.3180  0.4250  0.7356
  300MOL    C7548513   3.315   1.742   5.863  0.4347  0.1356 -0.1449
  300MOL    C7648514   3.176   1.688   5.883 -0.6849  0.1785 -0.0527
  300MOL    O7748515   3.115   1.693   5.991  0.5071  0.1952  0.5609
  300MOL    H7848516   3.443   1.561   5.842 -0.4861  0.0985  0.3476
  300MOL    H7948517   3.358   1.601   5.700  0.8922 -0.5489  0.5718
  300MOL    H8048518   3.304   1.835   5.807  1.3509 -0.5866 -1.5296
  300MOL    H8148519   3.360   1.795   5.947  0.2149  2.3003 -1.3663
  300MOL    C8248520   3.114   1.614   5.767  0.4894 -0.6056 -0.1300
  300MOL    C8348521   2.963   1.582   5.793 -0.1092 -0.5504  1.0176
  300MOL    C8448522   2.879   1.600   5.665  0.6410  0.0085  0.0157
  300MOL    O8548523   2.890   1.510   5.583  0.2324 -0.4710 -0.4115
  300MOL    H8648524   3.160   1.516   5.758  0.1914 -0.8702  1.1850
  300MOL    H8748525   3.117   1.674   5.676  1.1775  0.3774  0.5333
  300MOL    H8848526   2.918   1.648   5.867 -3.2079 -1.7920  0.3141
  300MOL    H8948527   2.954   1.476   5.816  2.8902 -1.5107 -1.7626
  300MOL    C9048528   2.795   1.734   5.642 -0.5530 -0.1085  0.2678
  300MOL    C9148529   2.802   1.789   5.503  0.0793  0.9450  0.0268
  300MOL    C9248530   2.659   1.809   5.447 -0.1562 -0.2811 -0.2040
  300MOL    O9348531   2.564   1.855   5.513  0.1229  0.6374  0.4536
  300MOL    H9448532   2.829   1.807   5.715 -0.0059  1.1514 -1.1996
  300MOL    H9548533   2.700   1.704   5.685 -0.3916 -2.1333 -0.7202
  300MOL    H9648534   2.863   1.727   5.437 -2.8454  1.1544 -3.0739
  300MOL    H9748535   2.833   1.893   5.507 -1.9247  1.6411 -1.6490
  300MOL    C9848536   2.636   1.785   5.297 -0.6496 -0.4702 -0.0654
  300MOL    C9948537   2.692   1.645   5.252  0.5487  0.6570 -0.1604
  300MOL   C10048538   2.772   1.651   5.130 -0.0271  0.0655 -0.3481
  300MOL   O10148539   2.748   1.732   5.041  0.0174 -0.4991  0.0380
  300MOL   H10248540   2.690   1.868   5.251  0.8540 -0.2994  1.9455
  300MOL   H10348541   2.529   1.806   5.283 -0.5475  0.9417  1.1091
  300MOL   H10448542   2.604   1.584   5.231 -0.6478  2.7596 -1.4266
  300MOL   H10548543   2.745   1.595   5.333  0.5748 -0.2982 -0.7572
  300MOL   C10648544   2.903   1.570   5.132  0.9208 -0.0656 -0.2794
  300MOL   C10748545   2.937   1.518   4.990  0.2642  0.1421  0.4169
  300MOL   C10848546   3.083   1.522   4.951 -0.5178 -0.1753 -0.0061
  300MOL   O10948547   3.160   1.598   5.007  0.0183  0.1273 -0.0704
  300MOL   H11048548   2.901   1.488   5.204 -2.5527 -0.5641 -0.8603
  300MOL   H11148549   2.965   1.649   5.176  0.3768  0.1591  0.0872
  300MOL   H11248550   2.900   1.585   4.913  2.2461  0.9753  0.1483
  300MOL   H11348551   2.896   1.420   4.967 -0.2556  0.2108  1.0325
  300MOL   C11448552   3.133   1.423   4.846 -0.1298  0.0982  0.1315
  300MOL   C11548553   3.253   1.356   4.906 -0.1774  0.3669 -0.0947
  300MOL   C11648554   3.221   1.221   4.976  0.0271  0.5389  0.5612
  300MOL   O11748555   3.107   1.177   4.998 -0.0057 -0.1566  0.1175
  300MOL   H11848556   3.174   1.475   4.760  0.6740  1.1778  1.1467
  300MOL   H11948557   3.066   1.343   4.815 -2.4783  2.1583 -0.2649
  300MOL   H12048558   3.318   1.422   4.964  1.5187 -0.7808 -0.6564
  300MOL   H12148559   3.310   1.324   4.819 -0.8725 -1.2153  0.0187
  300MOL   C12248560   3.343   1.152   5.033  0.1893 -0.0365 -0.1786
  300MOL   C12348561   3.324   1.009   5.046 -0.6506  0.2515 -0.8095
  300MOL   C12448562   3.407   0.924   4.949 -0.2516  0.5820  0.2144
  300MOL   O12548563   3.402   0.938   4.825  0.4204  0.0975  0.1730
  300MOL   H12648564   3.379   1.183   5.132  0.6356  0.4864 -0.5003
  300MOL   H12748565   3.417   1.178   4.958  0.1695 -1.9990 -0.9007
  300MOL   H12848566   3.218   0.982   5.049 -0.3337 -0.9569 -0.3161
  300MOL   H12948567   3.346   0.973   5.147 -0.8298 -0.3307 -0.9763
  300MOL   C13048568   3.495   0.822   5.008  0.4568  0.0767  0.0022
  300MOL   C13148569   3.589   0.751   4.911 -0.1570 -0.5166  0.0644
  300MOL   C13248570   3.544   0.615   4.859  0.4615 -0.6968  0.1944
  300MOL   O13348571   3.451   0.557   4.909  0.2804  0.4647  0.0513
  300MOL   H13448572   3.435   0.743   5.054  3.2322 -2.4349 -0.5401
  300MOL   H13548573   3.548   0.871   5.089  1.2039 -3.1499  1.5568
  300MOL   H13648574   3.685   0.744   4.961 -1.2229 -0.2863  2.2002
  300MOL   H13748575   3.617   0.812   4.825  0.7385  1.4076  1.6768
  300MOL   C13848576   3.612   0.561   4.733 -0.0137  0.4651 -0.0156
  300MOL   C13948577   3.567   0.419   4.680  0.0032 -0.0735  0.0953
  300MOL   C14048578   3.610   0.313   4.784  0.2327 -0.8833  0.4304
  300MOL   O14148579   3.724   0.305   4.817 -0.3395  0.3704 -0.6123
  300MOL   H14248580   3.719   0.554   4.752 -0.3695  1.4198  2.6137
  300MOL   H14348581   3.608   0.632   4.650 -0.8544  0.9335  0.4144
  300MOL   H14448582   3.619   0.397   4.586 -2.2018 -1.5607 -0.8079
  300MOL   H14548583   3.462   0.411   4.652  0.2348  0.3710 -0.9277
  300MOL   C14648584   3.507   0.212   4.832  0.1138  0.0732 -0.0817
  300MOL   C14748585   3.537   0.067   4.780  0.2145 -0.2636  0.4404
  300MOL   C14848586   3.607   7.842   4.879  0.4472  0.2253  1.0515
  300MOL   O14948587   3.673   0.031   4.972 -0.1158  0.0316 -0.3302
  300MOL   H15048588   3.407   0.245   4.804 -1.0576 -1.5755  1.9639
  300MOL   H15148589   3.500   0.212   4.941 -0.2444  2.3344 -0.0877
  300MOL   H15248590   3.603   0.077   4.695 -0.4166 -0.0240 -0.0289
  300MOL   H15348591   3.442   0.025   4.747  1.3942 -1.1736 -1.9190
  300MOL   C15448592   3.598   7.686   4.871  0.1786 -0.3072  0.0444
  300MOL   C15548593   3.736   7.618   4.856 -0.3405 -0.0731 -1.1459
  300MOL   C15648594   3.752   7.508   4.957 -0.3997 -0.3236  0.7067
  300MOL   O15748595   3.775   7.536   5.074  0.5825  0.6555  0.0113
  300MOL   H15848596   3.523   7.654   4.799  0.6570 -0.1208 -0.5361
  300MOL   H15948597   3.564   7.659   4.971  1.4401 -1.3622  0.1953
  300MOL   H16048598   3.817   7.689   4.866 -1.3804  1.0942 -0.8753
  300MOL   H16148599   3.753   7.561   4.765  1.6385 -1.0196 -0.2048
  300MOL   H16248600   3.744   7.404   4.925  1.3327 -0.9789  2.2412
  301MOL     C148601   1.425   2.941   3.660  0.8007  0.2180  0.5946
  301MOL     C248602   1.456   3.028   3.779 -0.3907  0.3373  0.0867
  301MOL     C348603   1.593   3.007   3.834  0.2187  0.2070 -0.5558
  301MOL     O448604   1.660   2.914   3.787  0.7393  0.1124  0.3849
  301MOL     H548605   1.435   2.836   3.686  0.2328  0.2869  1.1074
  301MOL     H648606   1.324   2.949   3.617  0.9724 -1.0180 -0.0470
  301MOL     H748607   1.387   3.002   3.860 -1.2347 -3.8215 -1.8112
  301MOL     H848608   1.442   3.134   3.760 -0.4709  0.3379  0.1468
  301MOL     H948609   1.495   2.954   3.577  2.4529  0.9566  2.0904
  301MOL    C1048610   1.649   3.098   3.942 -0.0104  0.2643 -0.3874
  301MOL    C1148611   1.788   3.072   3.998  0.6722  0.0905 -0.1633
  301MOL    C1248612   1.889   3.160   3.940 -0.4169  0.9079  0.3768
  301MOL    O1348613   1.871   3.274   3.923  0.1300 -0.0605  0.2276
  301MOL    H1448614   1.582   3.116   4.026  0.0501  1.8691 -0.6609
  301MOL    H1548615   1.662   3.194   3.891  0.1148 -0.1889 -1.2051
  301MOL    H1648616   1.819   2.971   3.970 -1.2712 -0.7696  0.6605
  301MOL    H1748617   1.791   3.075   4.107  1.1465  0.1587 -0.1780
  301MOL    C1848618   2.020   3.097   3.896 -0.6277  0.1090  0.0670
  301MOL    C1948619   2.113   3.183   3.827 -0.3684  0.1419 -0.3404
  301MOL    C2048620   2.253   3.174   3.882 -0.0718 -0.0297  0.2997
  301MOL    O2148621   2.267   3.124   3.992 -0.2380 -0.2097 -0.6372
  301MOL    H2248622   1.991   3.006   3.844  0.6881  0.3421 -1.0852
  301MOL    H2348623   2.073   3.056   3.982  0.5849  1.9106  0.1930
  301MOL    H2448624   2.084   3.288   3.832  0.1433  0.2997 -0.6331
  301MOL    H2548625   2.124   3.144   3.726 -0.0999 -0.7925  0.0412
  301MOL    C2648626   2.369   3.220   3.790  0.3303 -0.3592 -0.1860
  301MOL    C2748627   2.511   3.171   3.818  0.5315  0.8235  1.1117
  301MOL    C2848628   2.622   3.240   3.747 -1.1314  0.0033  0.6753
  301MOL    O2948629   2.598   3.314   3.648 -0.5519  0.0414 -0.5829
  301MOL    H3048630   2.360   3.329   3.788  1.1649 -0.2825  0.0131
  301MOL    H3148631   2.337   3.190   3.691  0.6000 -1.2938  0.0054
  301MOL    H3248632   2.516   3.062   3.807 -0.2514  0.9576 -0.7763
  301MOL    H3348633   2.529   3.192   3.923 -1.0247  0.9236  1.3784
  301MOL    C3448634   2.764   3.214   3.807  0.3602 -1.4318 -0.2391
  301MOL    C3548635   2.861   3.329   3.760  0.1510  0.4320  0.8141
  301MOL    C3648636   2.903   3.409   3.878  0.6631  0.0314 -0.3303
  301MOL    O3748637   2.816   3.458   3.955  0.3129 -0.3164 -0.8643
  301MOL    H3848638   2.803   3.122   3.762  0.4752 -1.9601  0.9284
  301MOL    H3948639   2.761   3.206   3.915 -0.0791 -2.0627 -0.2988
  301MOL    H4048640   2.809   3.405   3.702  1.2191 -0.6709 -1.6866
  301MOL    H4148641   2.938   3.290   3.693 -0.3198  2.4405 -0.9420
  301MOL    C4248642   3.049   3.446   3.883 -0.8304 -0.2950 -0.2206
  301MOL    C4348643   3.085   3.561   3.974  0.1635 -0.0879 -0.2275
  301MOL    C4448644   3.216   3.541   4.046 -0.0145 -0.6286  0.2333
  301MOL    O4548645   3.222   3.510   4.167 -0.6871 -0.6894 -0.0305
  301MOL    H4648646   3.077   3.469   3.781  0.1116 -0.0879  0.0831
  301MOL    H4748647   3.099   3.356   3.919  1.2088  0.3486 -1.4296
  301MOL    H4848648   3.008   3.558   4.050 -1.3979  0.7756 -1.7491
  301MOL    H4948649   3.085   3.657   3.922  1.7707  0.8825  1.5208
  301MOL    C5048650   3.345   3.566   3.973  0.2777 -0.7639  0.0797
  301MOL    C5148651   3.473   3.497   4.031 -0.7316  0.1158  0.1274
  301MOL    C5248652   3.460   3.347   4.073 -0.2591  0.3374 -0.4147
  301MOL    O5348653   3.374   3.274   4.024  0.4234 -0.4590 -0.0573
  301MOL    H5448654   3.353   3.674   3.964  1.2976 -0.7520  1.0128
  301MOL    H5548655   3.334   3.522   3.873  1.0135  0.7644 -0.6800
  301MOL    H5648656   3.513   3.558   4.113 -2.1224  1.0227  0.1378
  301MOL    H5748657   3.548   3.509   3.952 -1.0499  0.8694 -0.0588
  301MOL    C5848658   3.562   3.286   4.172  0.6786  0.1599  0.3820
  301MOL    C5948659   3.508   3.276   4.316 -0.1611 -0.4267  0.7397
  301MOL    C6048660   3.510   3.408   4.398 -0.0717 -0.8605 -0.2373
  301MOL    O6148661   3.579   3.499   4.355  0.1508  0.2591  0.5253
  301MOL    H6248662   3.654   3.345   4.169  0.5536  0.4054  1.2876
  301MOL    H6348663   3.584   3.188   4.130  2.3686  0.2613  0.9839
  301MOL    H6448664   3.552   3.188   4.362 -1.1736  0.4202  3.4002
  301MOL    H6548665   3.400   3.258   4.313 -0.5420  1.7772  0.0563
  301MOL    C6648666   3.434   3.420   4.530 -0.7684  0.2678 -0.0663
  301MOL    C6748667   3.314   3.523   4.528 -0.6344  0.3209 -0.3187
  301MOL    C6848668   3.207   3.491   4.633  0.4929  0.6258  0.6232
  301MOL    O6948669   3.221   3.406   4.719  0.4780  0.6385  0.4084
  301MOL    H7048670   3.511   3.443   4.604 -0.6041 -0.2208 -0.0816
  301MOL    H7148671   3.396   3.324   4.565  1.7724 -1.0649 -0.8367
  301MOL    H7248672   3.271   3.531   4.428  1.6932 -0.0426 -1.3969
  301MOL    H7348673   3.357   3.622   4.543  0.5962 -0.4056  1.0598
  301MOL    C7448674   3.084   3.581   4.637  0.4568  0.5532  1.0905
  301MOL    C7548675   3.025   3.607   4.502 -0.3150 -0.0852 -0.1277
  301MOL    C7648676   3.072   3.739   4.443  0.3545 -0.3328  0.5598
  301MOL    O7748677   3.140   3.820   4.502 -0.1207 -0.2072 -0.0372
  301MOL    H7848678   3.086   3.669   4.700  2.1402  0.9292  0.5449
  301MOL    H7948679   3.015   3.519   4.694  0.2549 -0.4458 -0.2095
  301MOL    H8048680   2.917   3.615   4.516 -0.1002  1.5374  0.7522
  301MOL    H8148681   3.031   3.523   4.434  0.6604  0.2308 -0.4279
  301MOL    C8248682   3.041   3.773   4.294  0.2357 -1.2734  0.6301
  301MOL    C8348683   2.967   3.907   4.284 -0.0069  0.0150 -0.5076
  301MOL    C8448684   2.871   3.904   4.162  0.7094  0.2679  0.1790
  301MOL    O8548685   2.901   3.842   4.063 -0.4012 -0.6300 -0.3099
  301MOL    H8648686   2.994   3.689   4.244 -1.1716 -0.8510  1.2219
  301MOL    H8748687   3.132   3.782   4.235  0.1028 -0.4605  0.5398
  301MOL    H8848688   3.036   3.991   4.272  0.7748 -0.6579 -0.7813
  301MOL    H8948689   2.896   3.913   4.366  0.3165 -0.3784 -0.1990
  301MOL    C9048690   2.731   3.979   4.170  0.3387  0.2800  0.1169
  301MOL    C9148691   2.637   3.972   4.041 -0.2442 -0.5147 -0.0049
  301MOL    C9248692   2.523   4.071   4.051  0.4463 -0.5742  0.9681
  301MOL    O9348693   2.489   4.124   4.158 -0.6585  0.4302 -0.0188
  301MOL    H9448694   2.754   4.084   4.186 -0.3792  0.6139 -1.0079
  301MOL    H9548695   2.680   3.946   4.261  1.2806  0.8404  0.8556
  301MOL    H9648696   2.579   3.880   4.026 -2.0512  0.4132  1.0835
  301MOL    H9748697   2.699   3.983   3.953 -0.0952  0.5591  0.2249
  301MOL    C9848698   2.455   4.103   3.923  1.0706 -0.0753  0.2129
  301MOL    C9948699   2.323   4.187   3.956 -1.0489 -1.2679  0.7799
  301MOL   C10048700   2.353   4.341   3.933  0.1488  0.2651 -0.3335
  301MOL   O10148701   2.456   4.377   3.884 -0.1535 -0.5941  0.9064
  301MOL   H10248702   2.420   4.013   3.871  1.0786 -2.0278  3.4578
  301MOL   H10348703   2.526   4.143   3.850  0.7722 -0.7570 -0.4588
  301MOL   H10448704   2.294   4.174   4.060  1.7392 -0.5983  1.6991
  301MOL   H10548705   2.245   4.147   3.892  0.5096 -1.2696 -1.1753
  301MOL   C10648706   2.252   4.441   3.991  0.2019 -0.0886 -0.2478
  301MOL   C10748707   2.256   4.576   3.919 -0.5280 -1.2639  0.2098
  301MOL   C10848708   2.370   4.665   3.959  0.6200 -0.3255 -0.4411
  301MOL   O10948709   2.407   4.668   4.079  0.4128  0.4311  0.4807
  301MOL   H11048710   2.296   4.456   4.090 -0.1573 -1.9537  0.2205
  301MOL   H11148711   2.152   4.398   3.990  0.1909 -0.0497 -0.8007
  301MOL   H11248712   2.170   4.641   3.933  0.6092  0.5765 -1.1729
  301MOL   H11348713   2.270   4.549   3.814 -1.6412 -2.2451  0.3048
  301MOL   C11448714   2.434   4.740   3.846 -0.4922 -0.3188 -0.3078
  301MOL   C11548715   2.538   4.845   3.896  0.5541 -0.5221  0.1893
  301MOL   C11648716   2.673   4.836   3.831  0.6045 -0.7370 -0.9130
  301MOL   O11748717   2.719   4.726   3.791  0.3599  0.0561  0.2549
  301MOL   H11848718   2.358   4.797   3.793 -0.4878 -1.1369 -1.2172
  301MOL   H11948719   2.479   4.668   3.777 -1.3824  0.4503 -1.7132
  301MOL   H12048720   2.558   4.835   4.003 -0.8437 -0.7063  0.4445
  301MOL   H12148721   2.496   4.945   3.884  1.3727 -0.1910  0.0491
  301MOL   C12248722   2.752   4.965   3.796  0.6349  0.4220  0.2328
  301MOL   C12348723   2.902   4.928   3.802 -0.0171 -0.2722  0.9163
  301MOL   C12448724   2.961   4.935   3.942  0.3908 -0.4375  0.2568
  301MOL   O12548725   2.965   5.038   4.011  0.5888  0.4738  0.2018
  301MOL   H12648726   2.721   5.040   3.868 -1.2911  0.4483 -0.6056
  301MOL   H12748727   2.720   5.006   3.701  0.6341  0.6187  0.3182
  301MOL   H12848728   2.955   5.000   3.740 -2.0133 -0.1202 -0.6544
  301MOL   H12948729   2.910   4.830   3.755  0.7622 -0.4306  1.3797
  301MOL   C13048730   2.997   4.793   3.997  0.2740  0.7276  0.0697
  301MOL   C13148731   3.070   4.797   4.135  0.2383  0.4515  0.0928
  301MOL   C13248732   3.193   4.718   4.128 -0.4222  0.3379  0.6244
  301MOL   O13348733   3.274   4.732   4.039 -0.2405  0.9910  0.0415
  301MOL   H13448734   3.048   4.730   3.924  1.7838  0.8760  0.9840
  301MOL   H13548735   2.904   4.745   4.024  0.7370 -1.0873 -1.4601
  301MOL   H13648736   3.009   4.754   4.215  0.5952  0.0997  0.1813
  301MOL   H13748737   3.100   4.899   4.157  1.8067  0.2562 -1.0262
  301MOL   C13848738   3.208   4.593   4.217 -0.1070  0.0235  0.2028
  301MOL   C13948739   3.348   4.597   4.277  0.1135 -0.2278 -0.2862
  301MOL   C14048740   3.420   4.457   4.289 -0.7200  0.2022  0.0279
  301MOL   O14148741   3.365   4.351   4.262 -0.1776 -0.1485 -0.2009
  301MOL   H14248742   3.188   4.509   4.150  0.0187  0.2619 -0.1307
  301MOL   H14348743   3.129   4.598   4.292  0.9427 -0.1396  1.3318
  301MOL   H14448744   3.333   4.629   4.380 -0.0143  0.4577 -0.5179
  301MOL   H14548745   3.408   4.673   4.227 -0.0300  0.4600  0.5956
  301MOL   C14648746   3.566   4.460   4.339 -0.0939  0.0700  0.6037
  301MOL   C14748747   3.665   4.399   4.241 -0.3722 -0.3103 -0.6573
  301MOL   C14848748   3.766   4.306   4.314 -0.4606  0.3063  0.3778
  301MOL   O14948749   3.721   4.221   4.390  0.5922  0.3760  1.2057
  301MOL   H15048750   3.566   4.398   4.429  0.4594  0.8527  1.1459
  301MOL   H15148751   3.596   4.560   4.370  0.4540  0.2343 -0.4273
  301MOL   H15248752   3.703   4.489   4.191  1.3435 -0.8457 -0.3232
  301MOL   H15348753   3.608   4.344   4.166  0.4386 -0.6135 -1.0504
  301MOL   C15448754   3.916   4.319   4.281 -0.3406  0.4514 -0.0786
  301MOL   C15548755   3.993   4.195   4.303 -0.6870  1.0768 -0.5160
  301MOL   C15648756   4.044   4.191   4.448  0.0863 -0.1442  0.2765
  301MOL   O15748757   4.098   4.290   4.499 -0.0247  0.8811 -0.0535
  301MOL   H15848758   3.960   4.405   4.334 -1.5614  1.6257 -0.9428
  301MOL   H15948759   3.927   4.336   4.174 -1.3539 -0.7699 -0.3783
  301MOL   H16048760   4.074   4.194   4.230 -0.2970 -0.6093 -0.0894
  301MOL   H16148761   3.933   4.106   4.287 -0.9678  1.1524  0.1134
  301MOL   H16248762   4.036   4.096   4.500 -0.3101 -2.2409 -3.4751
  302MOL     C148763   0.319   7.301   7.315 -0.3108 -0.5214 -0.2143
  302MOL     C248764   0.279   7.150   7.308  0.0952  0.1309  0.0319
  302MOL     C348765   0.173   7.111   7.196  0.4531 -0.2819 -1.0557
  302MOL     O448766   0.158   7.182   7.097  0.4734  0.4909  0.0297
  302MOL     H548767   0.313   7.341   7.416  0.9858 -0.7455 -0.0437
  302MOL     H648768   0.421   7.314   7.279 -0.6120  2.4559 -0.0953
  302MOL     H748769   0.228   7.123   7.401 -1.3059  0.3757 -0.6451
  302MOL     H848770   0.367   7.087   7.313  0.9219  1.3264  0.7778
  302MOL     H948771   0.253   7.360   7.251  0.9372  0.4970 -0.5918
  302MOL    C1048772   0.123   6.965   7.186 -0.1874  0.1297  0.1598
  302MOL    C1148773   0.227   6.864   7.128  0.5245 -0.4100  0.0538
  302MOL    C1248774   0.159   6.721   7.110  0.5957 -0.1966 -0.8774
  302MOL    O1348775   0.048   6.699   7.164  0.2346 -0.2257 -0.2500
  302MOL    H1448776   0.037   6.973   7.119  0.5504  0.8562 -0.7260
  302MOL    H1548777   0.106   6.942   7.291  0.0210  0.5537  0.2869
  302MOL    H1648778   0.311   6.857   7.197  0.6543 -2.8695 -0.3131
  302MOL    H1748779   0.279   6.895   7.037 -0.9656  0.2405 -0.6069
  302MOL    C1848780   0.223   6.613   7.031  0.3970  0.2273  0.2643
  302MOL    C1948781   0.168   6.477   7.063 -0.3645  0.8415 -0.2992
  302MOL    C2048782   0.235   6.360   6.982 -0.2249 -0.9703  0.6793
  302MOL    O2148783   0.321   6.382   6.895 -0.2212 -0.1561  0.1626
  302MOL    H2248784   0.329   6.618   7.057 -0.0160  1.6004  1.8140
  302MOL    H2348785   0.214   6.632   6.924 -1.3894  1.5901  0.6345
  302MOL    H2448786   0.063   6.474   7.033 -0.8426  0.6502  1.3520
  302MOL    H2548787   0.173   6.459   7.170  0.3295 -0.2962 -0.5137
  302MOL    C2648788   0.199   6.219   7.025  0.5530 -0.4522  0.3324
  302MOL    C2748789   0.240   6.111   6.920 -0.0905  0.2899 -0.0808
  302MOL    C2848790   0.141   6.081   6.814  0.1478 -0.4387 -0.8525
  302MOL    O2948791   0.064   6.165   6.772  0.0804  0.4186 -0.3853
  302MOL    H3048792   0.090   6.216   7.029  0.3346 -1.1790 -4.1372
  302MOL    H3148793   0.232   6.202   7.128 -2.1025 -1.1217  1.1235
  302MOL    H3248794   0.262   6.025   6.984  0.6012  1.1043  0.8102
  302MOL    H3348795   0.340   6.129   6.880  0.0605  1.8141  0.8959
  302MOL    C3448796   0.136   5.935   6.766 -0.1586  0.3756  0.4723
  302MOL    C3548797   7.857   5.902   6.707  0.1193  0.0675 -0.5174
  302MOL    C3648798   7.819   5.752   6.715  0.3279  0.2584 -0.1305
  302MOL    O3748799   0.048   5.678   6.742 -0.6711 -0.1025 -0.4318
  302MOL    H3848800   0.173   5.863   6.839 -0.6957 -0.6073 -0.2118
  302MOL    H3948801   0.213   5.925   6.689  3.1395  1.2151  3.5414
  302MOL    H4048802   0.002   5.941   6.605  0.9596  1.1522 -0.0839
  302MOL    H4148803   7.780   5.960   6.757  2.9714  1.1489  2.8486
  302MOL    C4248804   7.677   5.716   6.684  0.2625 -0.4009  0.0033
  302MOL    C4348805   7.641   5.578   6.739 -0.6636 -0.4210  0.5356
  302MOL    C4448806   7.558   5.581   6.864  0.0308 -0.4430 -0.3340
  302MOL    O4548807   7.518   5.682   6.921  0.7853  0.3099  0.3979
  302MOL    H4648808   7.668   5.713   6.575  0.6007 -0.4159 -0.0240
  302MOL    H4748809   7.600   5.778   6.729 -0.1133 -1.2723  0.5746
  302MOL    H4848810   7.736   5.532   6.767  0.6633  2.2559  0.6134
  302MOL    H4948811   7.584   5.516   6.670  0.9703  1.2841 -2.4618
  302MOL    C5048812   7.509   5.445   6.908 -0.0004 -0.1062  0.5561
  302MOL    C5148813   7.432   5.454   7.044 -0.9498 -0.0704 -0.2105
  302MOL    C5248814   7.282   5.426   7.016  0.0320  0.3532 -0.3475
  302MOL    O5348815   7.237   5.432   6.904  0.4763 -0.0945  0.0820
  302MOL    H5448816   7.597   5.384   6.928  1.3679  1.6243 -0.0889
  302MOL    H5548817   7.456   5.405   6.822  0.5662 -0.3105  0.2969
  302MOL    H5648818   7.449   5.549   7.094  1.3076  0.0109 -1.0565
  302MOL    H5748819   7.473   5.381   7.113 -2.1410 -0.5118  0.0334
  302MOL    C5848820   7.191   5.400   7.132  0.1760 -0.4529 -0.6149
  302MOL    C5948821   7.039   5.381   7.110  0.0728 -0.3263  0.3817
  302MOL    C6048822   6.982   5.301   7.219 -0.3591  0.1961  0.6600
  302MOL    O6148823   7.041   5.285   7.327  0.1197 -0.3303  0.1858
  302MOL    H6248824   7.206   5.492   7.187  0.4472 -0.6202 -0.4100
  302MOL    H6348825   7.228   5.319   7.195 -0.6312 -0.7840 -0.5669
  302MOL    H6448826   7.022   5.328   7.016 -0.5052  0.6404 -0.0647
  302MOL    H6548827   6.983   5.474   7.109  1.0713  0.2756 -0.3847
  302MOL    C6648828   6.849   5.225   7.188 -0.4526  0.1986  0.0657
  302MOL    C6748829   6.758   5.211   7.313 -0.4366 -0.1707  0.0631
  302MOL    C6848830   6.693   5.338   7.358  0.2841 -0.5515  0.6632
  302MOL    O6948831   6.740   5.448   7.335 -0.1413  0.4821 -0.4033
  302MOL    H7048832   6.875   5.126   7.152  0.6078  0.5425 -0.1325
  302MOL    H7148833   6.798   5.275   7.105 -0.5968 -3.0447 -1.8693
  302MOL    H7248834   6.811   5.164   7.396  2.7660 -0.4684 -2.0594
  302MOL    H7348835   6.677   5.142   7.289  0.5857 -0.8555 -1.4694
  302MOL    C7448836   6.568   5.326   7.451 -0.1227  0.0663 -0.1577
  302MOL    C7548837   6.440   5.357   7.383  0.3202 -0.2990  0.3665
  302MOL    C7648838   6.316   5.293   7.435  0.2841 -0.2405  0.5736
  302MOL    O7748839   6.290   5.276   7.554  0.0827  0.0815 -0.0206
  302MOL    H7848840   6.583   5.382   7.543 -2.0778  0.4814 -0.0755
  302MOL    H7948841   6.556   5.222   7.479 -0.5177  0.1811  0.0982
  302MOL    H8048842   6.444   5.346   7.274  1.5671  0.6098  0.3103
  302MOL    H8148843   6.418   5.461   7.409  1.8479 -0.7541  3.6636
  302MOL    C8248844   6.225   5.231   7.325  0.0987 -0.0912 -0.0675
  302MOL    C8348845   6.097   5.162   7.386  0.2485  1.0930  0.0819
  302MOL    C8448846   6.103   5.013   7.380  0.0455 -0.1256  0.7215
  302MOL    O8548847   6.196   4.950   7.329 -0.5492  0.5334  0.1313
  302MOL    H8648848   6.284   5.160   7.267 -1.7306 -0.8022 -1.0888
  302MOL    H8748849   6.190   5.310   7.258  1.6925 -1.3297 -2.4240
  302MOL    H8848850   6.012   5.202   7.330  0.9684  1.1854 -0.9651
  302MOL    H8948851   6.076   5.176   7.492 -0.8473  1.6789 -0.2128
  302MOL    C9048852   5.982   4.947   7.442 -0.1774 -0.4770 -0.5109
  302MOL    C9148853   5.951   4.807   7.401 -0.3522  0.2203  0.1708
  302MOL    C9248854   5.900   4.732   7.524 -0.1953  0.1766 -0.1043
  302MOL    O9348855   5.801   4.771   7.584 -0.3773  0.3581  0.1679
  302MOL    H9448856   5.902   5.014   7.411  0.4148  0.4045 -0.1569
  302MOL    H9548857   5.995   4.954   7.550  1.2102 -0.3444 -0.6772
  302MOL    H9648858   6.039   4.755   7.362 -1.0916  0.0924 -1.3682
  302MOL    H9748859   5.874   4.819   7.324  0.6252  0.5769 -0.7658
  302MOL    C9848860   5.960   4.603   7.563  0.2986 -0.2007  0.1501
  302MOL    C9948861   5.867   4.487   7.526  0.5144 -0.5363  0.0258
  302MOL   C10048862   5.924   4.380   7.433  0.2298 -0.0526  0.7767
  302MOL   O10148863   6.009   4.410   7.349 -0.0404  0.3362  0.7257
  302MOL   H10248864   5.978   4.612   7.670  1.0536 -1.7972  0.1704
  302MOL   H10348865   6.051   4.604   7.502  0.5930  0.0274  0.5891
  302MOL   H10448866   5.771   4.529   7.496  1.0054  3.2143  3.3870
  302MOL   H10548867   5.841   4.441   7.621  2.7609  0.8324  1.3460
  302MOL   C10648868   5.864   4.239   7.427  1.0847  0.2904 -0.6875
  302MOL   C10748869   5.945   4.142   7.339 -0.0331  0.0413 -0.5720
  302MOL   C10848870   5.958   4.010   7.413  0.1987 -0.2589 -0.0413
  302MOL   O10948871   5.893   3.973   7.512  0.3866 -0.1140 -0.3454
  302MOL   H11048872   5.763   4.251   7.387  1.0217  1.2863 -0.2623
  302MOL   H11148873   5.844   4.201   7.527  0.1310 -0.1169 -1.0252
  302MOL   H11248874   6.049   4.172   7.325  0.2879 -0.6268  0.3076
  302MOL   H11348875   5.888   4.119   7.249  0.2036 -0.6301 -0.5556
  302MOL   C11448876   6.054   3.917   7.341  0.1577 -0.6947  0.3720
  302MOL   C11548877   6.070   3.781   7.407 -0.4630 -0.0008 -0.0683
  302MOL   C11648878   5.948   3.687   7.372 -0.4167  0.7519 -0.0896
  302MOL   O11748879   5.838   3.726   7.325  0.1985  0.2593 -0.0922
  302MOL   H11848880   6.153   3.962   7.339 -0.7779  1.4383  0.1573
  302MOL   H11948881   6.019   3.916   7.238  1.6309  0.4987 -0.1611
  302MOL   H12048882   6.076   3.792   7.515  0.4135 -2.4001  0.1545
  302MOL   H12148883   6.165   3.742   7.369  0.2244  2.2861 -0.7418
  302MOL   C12248884   5.965   3.539   7.396  0.1249  0.4783  0.4132
  302MOL   C12348885   5.831   3.463   7.408 -0.1533 -0.2646 -0.0136
  302MOL   C12448886   5.841   3.312   7.433  0.2168 -0.6431  0.2890
  302MOL   O12548887   5.951   3.263   7.454  0.2812  0.2098  0.6564
  302MOL   H12648888   6.020   3.519   7.488 -0.1571  2.7215  1.1012
  302MOL   H12748889   6.042   3.499   7.330  1.4320 -0.5459  2.5189
  302MOL   H12848890   5.777   3.484   7.316  0.8129 -1.0353 -0.7679
  302MOL   H12948891   5.767   3.501   7.488 -0.1532 -1.8211  0.7471
  302MOL   C13048892   5.709   3.234   7.438 -0.2990  0.2285 -0.1275
  302MOL   C13148893   5.705   3.131   7.325 -0.2968  0.2445 -0.2671
  302MOL   C13248894   5.679   2.991   7.365  0.3874  0.6366 -0.4170
  302MOL   O13348895   5.702   2.946   7.480 -1.0762 -0.2556  0.2144
  302MOL   H13448896   5.622   3.300   7.433 -2.1826 -2.2170 -1.1701
  302MOL   H13548897   5.698   3.196   7.540 -1.2786  1.5238  0.2638
  302MOL   H13648898   5.802   3.119   7.277  0.4533 -0.0289  1.2788
  302MOL   H13748899   5.619   3.160   7.266  0.0651 -0.0664 -0.9449
  302MOL   C13848900   5.629   2.896   7.255 -0.2246  0.0643  0.2459
  302MOL   C13948901   5.745   2.795   7.209  0.1242  0.4971 -0.2116
  302MOL   C14048902   5.715   2.718   7.082  0.3178 -0.0141 -0.7965
  302MOL   O14148903   5.614   2.749   7.022 -0.1560 -0.3538  0.2861
  302MOL   H14248904   5.578   2.949   7.175 -1.2820 -0.4011  0.5943
  302MOL   H14348905   5.557   2.820   7.287 -0.9659  0.1620 -1.1659
  302MOL   H14448906   5.774   2.723   7.286  1.4316 -0.3252 -1.4447
  302MOL   H14548907   5.827   2.865   7.194  1.3189 -0.8165  0.0869
  302MOL   C14648908   5.817   2.616   7.040 -0.1562  0.1516  0.3923
  302MOL   C14748909   5.756   2.498   6.952 -0.2270  0.1843  0.4318
  302MOL   C14848910   5.814   2.506   6.812 -0.5085 -1.0101 -0.3992
  302MOL   O14948911   5.882   2.603   6.777  0.1666 -0.2550  0.1629
  302MOL   H15048912   5.872   2.571   7.124 -1.0513  0.4172  1.1282
  302MOL   H15148913   5.897   2.665   6.985 -0.0117 -0.5414 -0.0157
  302MOL   H15248914   5.647   2.494   6.945 -0.1584 -2.1094  0.3056
  302MOL   H15348915   5.788   2.405   6.999 -2.2126 -0.3586  0.7761
  302MOL   C15448916   5.770   2.398   6.707 -0.4728 -0.1662 -0.0935
  302MOL   C15548917   5.857   2.403   6.573  0.5149  0.3832 -0.6584
  302MOL   C15648918   5.811   2.305   6.473  0.3086  0.0696 -0.6989
  302MOL   O15748919   5.746   2.208   6.515 -0.6070 -0.2874  0.3043
  302MOL   H15848920   5.663   2.408   6.691 -0.6260 -1.7233 -0.0854
  302MOL   H15948921   5.798   2.307   6.760 -0.3979  0.3380  0.7532
  302MOL   H16048922   5.956   2.366   6.601  0.6860 -0.3002 -2.1053
  302MOL   H16148923   5.864   2.502   6.529 -2.5164  0.5035 -0.9825
  302MOL   H16248924   5.842   2.315   6.369 -0.7336 -0.4607 -1.0646
  303MOL     C148925   1.856   0.061   4.546 -0.8850  0.0585 -0.1187
  303MOL     C248926   1.990   7.853   4.502 -0.3316  0.1141 -0.4280
  303MOL     C348927   2.083   0.081   4.423  0.5541 -0.2352 -0.6826
  303MOL     O448928   2.082   0.200   4.435  0.3683 -0.9398  0.4770
  303MOL     H548929   1.781   0.084   4.469  0.3559  0.7448 -1.1443
  303MOL     H648930   1.814   7.855   4.622 -1.8709 -0.1330 -0.8058
  303MOL     H748931   1.972   7.762   4.444  0.4522 -0.6929  0.5679
  303MOL     H848932   2.029   7.811   4.595  0.5308  2.0836  0.1219
  303MOL     H948933   1.884   0.159   4.584 -2.0739  1.8670 -3.7081
  303MOL    C1048934   2.168   0.007   4.318  0.4719  0.8056  1.2099
  303MOL    C1148935   2.233   0.095   4.204 -0.1543  0.2748  0.2752
  303MOL    C1248936   2.144   0.094   4.084 -1.2502 -0.5247  0.6148
  303MOL    O1348937   2.056   0.008   4.062 -0.0684 -0.4316  0.2736
  303MOL    H1448938   2.093   7.799   4.277  1.1456 -1.4711  3.5436
  303MOL    H1548939   2.245   7.802   4.364  1.4082  0.0778 -1.2986
  303MOL    H1648940   2.322   0.047   4.165  0.2841  0.0897  1.4871
  303MOL    H1748941   2.258   0.196   4.234 -0.1726  0.8875 -1.7260
  303MOL    C1848942   2.178   0.192   3.967  0.4125  0.1910  0.1966
  303MOL    C1948943   2.154   0.138   3.829  0.5316 -0.1838  0.1410
  303MOL    C2048944   2.280   0.176   3.741 -0.0183  0.5382  0.1888
  303MOL    O2148945   2.387   0.221   3.784 -0.0203 -0.2737 -0.1140
  303MOL    H2248946   2.279   0.229   3.985  0.7484 -1.9734  3.0075
  303MOL    H2348947   2.101   0.268   3.983  1.1395  1.1730 -0.8733
  303MOL    H2448948   2.072   0.195   3.784  1.6046  1.6095  0.3852
  303MOL    H2548949   2.124   0.034   3.833 -0.9778  0.2676  1.2200
  303MOL    C2648950   2.252   0.155   3.590  0.0005 -0.9402  1.0786
  303MOL    C2748951   2.382   0.135   3.506  1.0079 -0.3656 -0.2764
  303MOL    C2848952   2.393   0.217   3.377 -0.1436 -0.1124 -0.0886
  303MOL    O2948953   2.292   0.261   3.326 -1.0126 -0.2254  0.7671
  303MOL    H3048954   2.186   0.232   3.551 -0.6066 -2.3914 -0.8004
  303MOL    H3148955   2.205   0.057   3.586  0.7207 -1.2717  0.5359
  303MOL    H3248956   2.384   0.032   3.472  3.7208 -0.8169  1.0801
  303MOL    H3348957   2.468   0.159   3.569  0.0294  0.0100  0.9433
  303MOL    C3448958   2.535   0.218   3.317  0.5384  0.5050 -0.1319
  303MOL    C3548959   2.541   0.325   3.203 -0.0225 -0.7747 -0.0508
  303MOL    C3648960   2.608   0.455   3.243  0.2491 -0.2722 -0.4514
  303MOL    O3748961   2.721   0.458   3.282 -0.2989  0.8131  0.3512
  303MOL    H3848962   2.568   0.124   3.271  0.0813 -0.9304  2.3680
  303MOL    H3948963   2.605   0.237   3.398 -0.8096  0.4560  1.0612
  303MOL    H4048964   2.450   0.351   3.150 -0.5532  1.2023  1.7557
  303MOL    H4148965   2.602   0.267   3.134 -1.2434 -2.4650  0.2464
  303MOL    C4248966   2.531   0.580   3.220  0.4469  0.0190 -0.5251
  303MOL    C4348967   2.435   0.607   3.341  0.4483 -0.3199 -0.4874
  303MOL    C4448968   2.375   0.750   3.328 -0.8007 -0.6646  0.5736
  303MOL    O4548969   2.421   0.834   3.256 -0.5906  0.0147  0.0658
  303MOL    H4648970   2.463   0.572   3.135  1.5798 -0.2461 -1.4270
  303MOL    H4748971   2.607   0.655   3.199  1.2251 -0.3395  0.9389
  303MOL    H4848972   2.482   0.608   3.439  0.2239 -0.3458 -0.3784
  303MOL    H4948973   2.348   0.541   3.342 -1.1075  1.6816  0.9632
  303MOL    C5048974   2.254   0.784   3.407  0.7306 -0.2664 -0.2583
  303MOL    C5148975   2.127   0.708   3.361 -0.2731  0.6867  0.5517
  303MOL    C5248976   2.092   0.589   3.442 -0.0387  0.5675  1.1006
  303MOL    O5348977   2.159   0.545   3.539 -0.3044 -0.2048 -0.4364
  303MOL    H5448978   2.223   0.888   3.397  0.7291 -0.3066 -0.6832
  303MOL    H5548979   2.267   0.757   3.512  1.1945  1.5287  0.1737
  303MOL    H5648980   2.133   0.682   3.256  1.4494  1.6008  0.4021
  303MOL    H5748981   2.040   0.774   3.363  0.7284  2.0370  0.1693
  303MOL    C5848982   1.967   0.512   3.398 -0.2637  0.2748  0.7294
  303MOL    C5948983   1.967   0.364   3.446 -0.3266 -0.2540  0.6953
  303MOL    C6048984   1.882   0.266   3.367 -0.6001 -0.7236 -0.2250
  303MOL    O6148985   1.762   0.260   3.384 -0.2070 -0.2236 -0.2539
  303MOL    H6248986   1.958   0.523   3.290  1.3063  2.5848  0.7968
  303MOL    H6348987   1.889   0.562   3.455 -0.9272  0.4217 -0.2954
  303MOL    H6448988   1.930   0.371   3.548  2.1292  1.4118  1.5330
  303MOL    H6548989   2.071   0.330   3.445 -0.9443 -2.1532 -0.4119
  303MOL    C6648990   1.950   0.192   3.255  0.2797  0.2812 -0.1320
  303MOL    C6748991   1.857   0.119   3.160 -0.5073  0.4886  0.2919
  303MOL    C6848992   1.822   7.835   3.185  0.1474 -0.1333 -0.2048
  303MOL    O6948993   1.867   7.773   3.279 -0.0702 -0.0632 -0.1853
  303MOL    H7048994   2.038   0.129   3.269  0.1624  0.2375  0.4115
  303MOL    H7148995   2.004   0.268   3.198  0.6851 -0.6915 -1.0747
  303MOL    H7248996   1.914   0.122   3.067 -1.9586  0.3169 -0.6301
  303MOL    H7348997   1.768   0.177   3.134  0.7088  2.7476  1.0633
  303MOL    C7448998   1.730   7.768   3.082  0.3127  0.7258 -0.1956
  303MOL    C7548999   1.633   7.660   3.127  0.1569  0.3216 -0.2922
  303MOL    C7649000   1.697   7.512   3.136  1.0876 -0.3295 -0.3442
  303MOL    O7749001   1.816   7.485   3.104 -0.0020 -0.2239  0.8574
  303MOL    H7849002   1.794   7.727   3.004  2.1434  1.3952  0.9111
  303MOL    H7949003   1.676   7.844   3.026 -3.7931 -0.3650  2.0685
  303MOL    H8049004   1.544   7.652   3.064 -0.1310  0.1982  0.1218
  303MOL    H8149005   1.573   7.680   3.216  0.5966  1.3724 -0.2353
  303MOL    C8249006   1.606   7.411   3.211 -0.7181 -0.0969 -0.2000
  303MOL    C8349007   1.680   7.283   3.251 -0.1817 -0.2260  0.4791
  303MOL    C8449008   1.756   7.276   3.374 -0.3130 -0.6767  0.3002
  303MOL    O8549009   1.764   7.379   3.444 -0.2150 -0.3649  0.5094
  303MOL    H8649010   1.538   7.366   3.138 -1.2988  2.1298 -1.0789
  303MOL    H8749011   1.546   7.454   3.292 -0.7584  0.9842 -0.7843
  303MOL    H8849012   1.752   7.264   3.171 -0.8108 -0.8046  0.0418
  303MOL    H8949013   1.605   7.204   3.244  1.5748 -1.8494 -0.8204
  303MOL    C9049014   1.821   7.143   3.409  0.6599  0.3912 -0.1401
  303MOL    C9149015   1.910   7.156   3.534 -0.0896  0.2762  0.6152
  303MOL    C9249016   1.951   7.027   3.602  0.2658 -0.0464 -0.0616
  303MOL    O9349017   1.865   6.949   3.634  0.1618  0.3527 -0.3520
  303MOL    H9449018   1.871   7.112   3.317  0.3741 -1.2203  0.2326
  303MOL    H9549019   1.745   7.067   3.427 -0.9008  2.1762  1.0327
  303MOL    H9649020   1.854   7.210   3.610 -3.1849 -3.1277  0.9367
  303MOL    H9749021   2.000   7.215   3.518  1.9879 -3.2625 -1.6311
  303MOL    C9849022   2.089   7.012   3.657  0.0597 -0.3481  0.3321
  303MOL    C9949023   2.131   6.870   3.654 -0.1585 -0.4306  0.5594
  303MOL   C10049024   2.269   6.852   3.718  0.1941  0.7296  0.1697
  303MOL   O10149025   2.317   6.945   3.783  0.0493  0.4620  0.0393
  303MOL   H10249026   2.098   7.041   3.761 -1.2802 -1.6357  0.8249
  303MOL   H10349027   2.158   7.075   3.600  1.2555 -2.1579 -0.2686
  303MOL   H10449028   2.120   6.822   3.557 -2.0811  0.3152  0.3902
  303MOL   H10549029   2.065   6.806   3.712  1.1001 -2.6150 -0.3777
  303MOL   C10649030   2.343   6.717   3.706  0.1744 -0.0288 -0.2726
  303MOL   C10749031   2.464   6.745   3.620 -0.1040 -0.3832  0.0842
  303MOL   C10849032   2.438   6.697   3.480 -0.4199  0.2249 -0.4707
  303MOL   O10949033   2.320   6.703   3.435  0.0417  0.3921  0.6512
  303MOL   H11049034   2.279   6.640   3.664  1.8358 -1.8183  0.4339
  303MOL   H11149035   2.366   6.689   3.809  1.6345 -0.4620 -0.7032
  303MOL   H11249036   2.541   6.685   3.667  1.6607  2.4305  0.8824
  303MOL   H11349037   2.500   6.847   3.620 -0.6838 -0.1775 -0.2965
  303MOL   C11449038   2.555   6.668   3.387 -0.1429  0.1131 -0.3038
  303MOL   C11549039   2.519   6.608   3.257  0.1921 -0.6605 -0.5542
  303MOL   C11649040   2.501   6.458   3.263 -0.8259  0.2812  0.3864
  303MOL   O11749041   2.479   6.396   3.367  0.1069  0.2071  0.0278
  303MOL   H11849042   2.622   6.603   3.443 -0.0367  1.5582  1.2954
  303MOL   H11949043   2.617   6.758   3.381  0.3295 -0.1703  0.2601
  303MOL   H12049044   2.595   6.645   3.189 -0.6920  1.9318 -0.2003
  303MOL   H12149045   2.419   6.636   3.225  0.6455  0.4479 -1.0215
  303MOL   C12249046   2.499   6.391   3.131  0.0759  0.4639 -0.1537
  303MOL   C12349047   2.445   6.246   3.132  0.5924 -0.5052 -0.5225
  303MOL   C12449048   2.560   6.149   3.153  0.4116  0.1649  0.0579
  303MOL   O12549049   2.647   6.129   3.066  0.7860 -0.3646  0.1710
  303MOL   H12649050   2.605   6.385   3.104 -0.2223  1.6403 -1.6808
  303MOL   H12749051   2.452   6.450   3.052  0.9267  3.4240  1.4790
  303MOL   H12849052   2.395   6.229   3.036 -0.4445  2.1805 -0.4895
  303MOL   H12949053   2.372   6.233   3.212  1.0970 -4.2552 -0.5574
  303MOL   C13049054   2.560   6.077   3.285  0.1947 -0.3493  0.0485
  303MOL   C13149055   2.678   5.978   3.308 -0.1069  0.2235  0.2259
  303MOL   C13249056   2.706   5.940   3.448  1.0467  0.3421 -0.5361
  303MOL   O13349057   2.676   6.018   3.535  0.1734 -0.8839 -0.7198
  303MOL   H13449058   2.461   6.032   3.284  0.9904 -2.1526  1.0757
  303MOL   H13549059   2.572   6.145   3.369  1.7731 -0.9224  0.2943
  303MOL   H13649060   2.764   6.037   3.277 -1.2152  0.9141 -1.6414
  303MOL   H13749061   2.673   5.885   3.251 -1.0811  0.2830  0.1964
  303MOL   C13849062   2.764   5.800   3.471 -0.0653 -0.3050  0.8326
  303MOL   C13949063   2.772   5.762   3.628 -0.2386 -0.1558 -0.8156
  303MOL   C14049064   2.919   5.749   3.673 -0.2152  0.5523  0.2634
  303MOL   O14149065   2.972   5.641   3.649 -0.2649  0.1698 -0.3625
  303MOL   H14249066   2.858   5.801   3.416 -2.2822 -0.0349 -3.1889
  303MOL   H14349067   2.703   5.720   3.430 -1.4660  0.9656  0.3531
  303MOL   H14449068   2.733   5.662   3.649 -1.4734  0.4613 -0.0877
  303MOL   H14549069   2.718   5.831   3.694  1.5771  2.8315 -2.3735
  303MOL   C14649070   2.998   5.860   3.729 -0.6767  0.4833 -0.5461
  303MOL   C14749071   2.995   5.849   3.882 -0.0388  0.3335  0.1609
  303MOL   C14849072   3.022   5.985   3.948  0.9211  0.2356 -0.3519
  303MOL   O14949073   3.081   6.082   3.895 -0.0904  0.2141  0.9547
  303MOL   H15049074   2.952   5.951   3.689 -0.5686  0.4798 -0.6796
  303MOL   H15149075   3.096   5.853   3.682 -0.9354  1.1355 -1.1903
  303MOL   H15249076   3.073   5.786   3.926 -1.0837 -0.9511  0.2184
  303MOL   H15349077   2.895   5.818   3.914  0.4992 -1.2834  0.3514
  303MOL   C15449078   2.942   6.013   4.078  0.3070  0.6897 -0.6599
  303MOL   C15549079   2.864   6.145   4.079  0.2688  0.1475  0.8018
  303MOL   C15649080   2.862   6.208   4.218  0.0534 -0.1393  0.8734
  303MOL   O15749081   2.856   6.137   4.318  0.0329 -0.2065 -0.3149
  303MOL   H15849082   3.019   6.009   4.155 -0.1877  0.3159 -0.1878
  303MOL   H15949083   2.873   5.930   4.089 -0.0035  1.0353 -0.0121
  303MOL   H16049084   2.759   6.132   4.052  0.3472  0.2170  0.4642
  303MOL   H16149085   2.915   6.212   4.010 -1.9061 -0.4303 -1.4785
  303MOL   H16249086   2.873   6.314   4.240  1.6307 -0.5062  1.9357
  304MOL     C149087   3.249   4.405   7.315  0.2894 -0.3161  0.1269
  304MOL     C249088   3.389   4.367   7.369 -0.1488 -0.2115  0.0675
  304MOL     C349089   3.385   4.300   7.510  0.0772  0.0258  0.3050
  304MOL     O449090   3.277   4.295   7.568 -0.3607 -0.3090 -0.0587
  304MOL     H549091   3.184   4.319   7.305 -1.1146  0.6148  1.1474
  304MOL     H649092   3.208   4.473   7.389 -3.3328 -1.1052 -1.0425
  304MOL     H749093   3.453   4.455   7.372 -0.7318  0.2334 -0.1670
  304MOL     H849094   3.425   4.299   7.292 -1.1970 -0.3724 -0.2928
  304MOL     H949095   3.250   4.464   7.223 -1.0623  0.7094  0.7627
  304MOL    C1049096   3.521   4.254   7.565  0.2340  0.8217  0.1488
  304MOL    C1149097   3.520   4.196   7.713 -0.0075  0.3695  0.1782
  304MOL    C1249098   3.641   4.229   7.789  0.1837  0.3898 -0.0050
  304MOL    O1349099   3.726   4.296   7.731  0.5088 -0.5400 -0.4718
  304MOL    H1449100   3.582   4.343   7.549  2.2909 -0.9839 -2.3918
  304MOL    H1549101   3.568   4.185   7.496  0.0648  0.4268  0.4256
  304MOL    H1649102   3.489   4.092   7.701 -0.9297  0.5492  0.9275
  304MOL    H1749103   3.443   4.251   7.767 -3.0067 -0.7246 -2.7987
  304MOL    C1849104   3.651   4.204   0.079  0.1915 -0.4134 -0.0066
  304MOL    C1949105   3.774   4.274   0.153  0.5663  0.4899  0.3441
  304MOL    C2049106   3.793   4.213   0.291  0.6442 -0.0784 -0.5976
  304MOL    O2149107   3.723   4.121   0.339 -0.2282 -0.1655 -0.4363
  304MOL    H2249108   3.665   4.097   0.088 -0.4039 -0.4095  1.1123
  304MOL    H2349109   3.555   4.231   0.124  0.2690  1.0251 -0.6573
  304MOL    H2449110   3.745   4.378   0.170  0.2090  0.5469 -0.5802
  304MOL    H2549111   3.867   4.269   0.095  0.9693  2.3388  0.8014
  304MOL    C2649112   3.911   4.271   0.373 -0.1150 -0.4689  0.2944
  304MOL    C2749113   3.949   4.177   0.493 -0.4427  0.1219 -0.4637
  304MOL    C2849114   3.877   4.215   0.626  0.0440  0.0699 -0.2747
  304MOL    O2949115   3.877   4.333   0.670 -0.5733 -0.3083  0.6561
  304MOL    H3049116   3.890   4.371   0.408  0.3546  0.0980 -0.9949
  304MOL    H3149117   3.999   4.270   0.308  1.1322 -0.0918  1.9368
  304MOL    H3249118   4.055   4.193   0.513 -0.7150  0.2146  0.9857
  304MOL    H3349119   3.937   4.070   0.479 -0.8626  0.0944  0.0828
  304MOL    C3449120   3.818   4.102   0.712  0.0636 -0.1351  0.0559
  304MOL    C3549121   3.716   4.018   0.634 -0.8007  0.3002 -0.6259
  304MOL    C3649122   3.672   3.891   0.714 -1.4492 -0.4378 -0.4423
  304MOL    O3749123   3.761   3.837   0.787 -0.6480 -0.3033  0.6750
  304MOL    H3849124   3.764   4.157   0.789 -1.4216 -0.1066 -0.9816
  304MOL    H3949125   3.901   4.043   0.750 -0.4227 -0.9326 -0.1248
  304MOL    H4049126   3.756   3.982   0.540 -0.8591 -0.8754 -0.2066
  304MOL    H4149127   3.624   4.071   0.610 -0.1654  2.6563  1.7986
  304MOL    C4249128   3.521   3.854   0.706  0.0474 -0.4549  0.4609
  304MOL    C4349129   3.487   3.708   0.756  0.1709 -0.3340 -0.7840
  304MOL    C4449130   3.483   3.610   0.649 -0.5745  0.1221  0.3441
  304MOL    O4549131   3.450   3.645   0.535  0.1049  0.7313  0.5023
  304MOL    H4649132   3.499   3.891   0.606 -0.0725  1.1432  1.0574
  304MOL    H4749133   3.478   3.933   0.768 -2.0155 -0.4814 -0.8979
  304MOL    H4849134   3.384   3.704   0.789  0.1916  0.0962 -0.6627
  304MOL    H4949135   3.561   3.670   0.826 -0.0069 -1.3709 -1.1449
  304MOL    C5049136   3.516   3.468   0.687  0.4149 -0.2066  0.1944
  304MOL    C5149137   3.538   3.365   0.575  0.4173  0.1216  0.4911
  304MOL    C5249138   3.657   3.278   0.609  0.3410  0.6082  0.3417
  304MOL    O5349139   3.662   3.232   0.721 -0.2583 -0.2221  0.1500
  304MOL    H5449140   3.442   3.430   0.757 -0.4378  0.3594 -0.3946
  304MOL    H5549141   3.603   3.462   0.752  0.5628  0.4321  0.0626
  304MOL    H5649142   3.550   3.409   0.476 -1.3553  3.1055  1.5553
  304MOL    H5749143   3.456   3.294   0.565  0.7395 -0.2733  0.5906
  304MOL    C5849144   3.761   3.243   0.495  0.4402  0.8528 -0.0628
  304MOL    C5949145   3.883   3.162   0.540 -0.6581  0.7591  0.0156
  304MOL    C6049146   3.960   3.242   0.652 -0.3168  0.2390  0.0332
  304MOL    O6149147   4.007   3.356   0.627  0.0618 -0.6382  0.6598
  304MOL    H6249148   3.794   3.334   0.446  0.9354  0.9605  0.4684
  304MOL    H6349149   3.699   3.184   0.428  1.4687 -1.6020  1.0759
  304MOL    H6449150   3.947   3.150   0.452  2.4646 -0.9279  2.4168
  304MOL    H6549151   3.864   3.062   0.577 -1.2907  1.3888  1.4336
  304MOL    C6649152   3.965   3.171   0.789  0.1384  0.0133  0.2979
  304MOL    C6749153   3.966   3.280   0.900 -0.7293 -0.1996 -0.2580
  304MOL    C6849154   4.098   3.341   0.935  0.3263 -0.2371 -0.1986
  304MOL    O6949155   4.203   3.298   0.890 -0.2497  0.1801 -0.1958
  304MOL    H7049156   4.052   3.106   0.793  0.7645  0.8205  0.0426
  304MOL    H7149157   3.876   3.109   0.800  0.3775 -0.6065 -1.1007
  304MOL    H7249158   3.918   3.229   0.984  2.5378 -1.7688  0.7603
  304MOL    H7349159   3.898   3.363   0.882  1.3671  1.3161 -1.3600
  304MOL    C7449160   4.080   3.461   1.027 -0.5906  0.1484 -0.5248
  304MOL    C7549161   4.171   3.445   1.152  0.2298 -0.3406 -0.5697
  304MOL    C7649162   4.107   3.479   1.287  0.1155 -0.1029  0.3038
  304MOL    O7749163   3.985   3.460   1.307 -0.0080 -0.5764 -0.5387
  304MOL    H7849164   3.976   3.465   1.059 -1.4889  0.8690 -3.3161
  304MOL    H7949165   4.106   3.550   0.969  2.1636 -0.3897 -0.1564
  304MOL    H8049166   4.255   3.512   1.132 -0.4513  0.5149 -0.6040
  304MOL    H8149167   4.212   3.344   1.161 -1.8871 -1.1644  0.0632
  304MOL    C8249168   4.203   3.525   1.398 -0.8291 -0.7091  0.4772
  304MOL    C8349169   4.147   3.643   1.480  0.7246 -0.5042  0.4082
  304MOL    C8449170   4.144   3.620   1.630  0.3416 -0.2806  0.0073
  304MOL    O8549171   4.130   3.506   1.674  0.2123 -0.6553  0.7486
  304MOL    H8649172   4.302   3.544   1.357 -1.3050 -1.4461 -1.0671
  304MOL    H8749173   4.217   3.433   1.454  1.9664 -0.5041  0.1514
  304MOL    H8849174   4.042   3.651   1.455  0.6281 -1.0171  0.6512
  304MOL    H8949175   4.199   3.737   1.460 -0.7190  0.7213  2.2628
  304MOL    C9049176   4.139   3.742   1.720  0.7126 -0.2597  0.4179
  304MOL    C9149177   4.250   3.745   1.820  0.0504  0.0894 -0.0879
  304MOL    C9249178   4.334   3.875   1.830 -0.1379  0.3586  0.1115
  304MOL    O9349179   4.320   3.970   1.757 -0.5647  0.3280  0.5648
  304MOL    H9449180   4.046   3.754   1.775  0.7921  2.1633  0.0983
  304MOL    H9549181   4.145   3.833   1.659 -0.2778  0.6423  1.6580
  304MOL    H9649182   4.321   3.668   1.791 -1.5289 -1.6166  0.4834
  304MOL    H9749183   4.217   3.717   1.920  0.2345 -0.3347 -0.1435
  304MOL    C9849184   4.451   3.862   1.921 -0.2736  0.3909  0.2080
  304MOL    C9949185   4.556   3.972   1.896 -0.0514  0.2243 -0.0003
  304MOL   C10049186   4.691   3.947   1.964 -0.2822  0.2456  0.4814
  304MOL   O10149187   4.703   3.867   2.055  0.3034 -0.0323  0.8762
  304MOL   H10249188   4.506   3.770   1.903  1.1717  1.5403 -1.3762
  304MOL   H10349189   4.424   3.858   2.026  0.4465 -1.9713  0.3167
  304MOL   H10449190   4.513   4.066   1.932  0.3052 -0.1823  1.4971
  304MOL   H10549191   4.577   3.985   1.790 -1.7854  0.0159 -0.3894
  304MOL   C10649192   4.803   4.032   1.909  0.3450  0.5281 -0.0045
  304MOL   C10749193   4.924   4.033   2.001  0.0703  0.4612  0.5272
  304MOL   C10849194   5.033   3.938   1.976 -0.7065  0.3217  0.5820
  304MOL   O10949195   5.036   3.869   1.873 -0.7322  0.1769  0.4018
  304MOL   H11049196   4.760   4.131   1.895  2.6120  1.6553  0.7438
  304MOL   H11149197   4.830   3.999   1.809  2.0483 -1.9082  1.1849
  304MOL   H11249198   4.887   4.012   2.101  0.8390  2.9020  1.3726
  304MOL   H11349199   4.972   4.131   1.994  0.3876  0.2549 -0.3170
  304MOL   C11449200   5.151   3.946   2.066 -0.3075 -0.4000 -0.5541
  304MOL   C11549201   5.177   3.806   2.123  0.9885 -0.7914  0.1227
  304MOL   C11649202   5.296   3.804   2.227 -0.4474 -0.5927 -0.2489
  304MOL   O11749203   5.356   3.911   2.253 -0.1113 -0.7820  0.0726
  304MOL   H11849204   5.134   4.020   2.144  2.1610  0.5526 -0.8609
  304MOL   H11949205   5.247   3.959   2.015 -0.8403 -0.3719 -1.5620
  304MOL   H12049206   5.226   3.750   2.043  1.3347  0.0965 -0.2960
  304MOL   H12149207   5.085   3.765   2.164  0.9210  0.2935  1.0663
  304MOL   C12249208   5.334   3.673   2.287  0.5615  0.2411 -1.2816
  304MOL   C12349209   5.438   3.681   2.399 -0.2078  0.3485  0.1286
  304MOL   C12449210   5.426   3.567   2.499 -0.9045  0.2350 -0.5438
  304MOL   O12549211   5.335   3.487   2.498  0.1597 -0.3387  0.3983
  304MOL   H12649212   5.363   3.604   2.207  0.2368  0.9144 -1.9909
  304MOL   H12749213   5.240   3.630   2.320  1.3886 -2.5830 -2.4562
  304MOL   H12849214   5.415   3.763   2.467  0.8598 -0.2503  1.2317
  304MOL   H12949215   5.538   3.702   2.360  0.5716 -0.2926  1.6987
  304MOL   C13049216   5.540   3.554   2.608  0.0504 -0.5382  0.0623
  304MOL   C13149217   5.556   3.413   2.674  0.5483  0.1681 -0.3880
  304MOL   C13249218   5.696   3.361   2.670 -0.0520  0.3171  0.4826
  304MOL   O13349219   5.791   3.442   2.665  0.1063 -0.0217  0.3363
  304MOL   H13449220   5.507   3.625   2.684  0.3862 -1.1918  0.8200
  304MOL   H13549221   5.635   3.600   2.583 -0.5854  0.3252 -0.7687
  304MOL   H13649222   5.497   3.347   2.610 -0.2059  1.3970 -0.9836
  304MOL   H13749223   5.505   3.405   2.770 -0.3470  0.8093 -0.7983
  304MOL   C13849224   5.708   3.208   2.699  0.4685  0.6513 -0.2155
  304MOL   C13949225   5.855   3.163   2.692  0.4583  0.5283  0.3905
  304MOL   C14049226   5.896   3.118   2.555 -0.5130  0.6167  0.5813
  304MOL   O14149227   5.820   3.115   2.462  0.6253 -0.2674 -0.2627
  304MOL   H14249228   5.634   3.148   2.647  0.7548 -1.3237  1.5896
  304MOL   H14349229   5.671   3.195   2.801 -1.1970 -0.7412 -0.9728
  304MOL   H14449230   5.874   3.075   2.754  0.9689 -1.0572 -1.9757
  304MOL   H14549231   5.919   3.242   2.733 -1.7480  2.7775 -0.4104
  304MOL   C14649232   6.046   3.094   2.535 -0.0552 -0.7323  0.1098
  304MOL   C14749233   6.094   3.074   2.387  0.5124  0.1522  0.0745
  304MOL   C14849234   6.128   3.197   2.303  0.0015  0.1334 -0.0569
  304MOL   O14949235   6.106   3.312   2.343  0.5700  0.6778  0.5491
  304MOL   H15049236   6.076   3.012   2.601  1.1307  0.3099  0.8684
  304MOL   H15149237   6.091   3.185   2.574 -0.3745 -0.3930 -0.3057
  304MOL   H15249238   6.028   3.003   2.336 -0.7291  2.1059 -1.1111
  304MOL   H15349239   6.190   3.022   2.391  0.6345  0.5274  2.1935
  304MOL   C15449240   6.194   3.182   2.162 -0.2163  0.3273  0.2781
  304MOL   C15549241   6.243   3.317   2.106  0.3671  0.5776 -0.1606
  304MOL   C15649242   6.300   3.301   1.966  0.7902 -0.0289 -0.2949
  304MOL   O15749243   6.411   3.355   1.949  0.9843  0.0225  0.1115
  304MOL   H15849244   6.127   3.132   2.092  2.2237  0.4286 -2.2416
  304MOL   H15949245   6.271   3.105   2.166  1.0145  1.6338  2.5107
  304MOL   H16049246   6.329   3.356   2.159  2.1648 -2.1445 -1.0012
  304MOL   H16149247   6.157   3.381   2.088 -0.7944 -0.6775  0.7448
  304MOL   H16249248   6.252   3.246   1.885  0.8953  1.6326 -1.5005
  305MOL     C149249   4.703   1.266   5.289  0.1493  0.0416 -0.1310
  305MOL     C249250   4.856   1.238   5.297 -0.2976 -0.4294 -0.3110
  305MOL     C349251   4.896   1.110   5.221 -0.4933  0.2236  0.2549
  305MOL     O449252   4.814   1.053   5.144 -0.3804  0.1524 -0.8769
  305MOL     H549253   4.644   1.179   5.317  1.0183 -1.5916 -3.0893
  305MOL     H649254   4.689   1.346   5.361  1.7228 -0.2034  0.4666
  305MOL     H749255   4.888   1.232   5.402  1.0009  1.0030 -0.6086
  305MOL     H849256   4.925   1.316   5.265  1.2576 -1.4979  0.3878
  305MOL     H949257   4.697   1.296   5.184 -0.9118  0.2443 -0.0156
  305MOL    C1049258   5.041   1.067   5.236 -0.2044  0.7529 -0.6618
  305MOL    C1149259   5.073   0.943   5.157 -0.3000  0.2158  0.5886
  305MOL    C1249260   5.221   0.910   5.177  0.0635  0.5064  0.2099
  305MOL    O1349261   5.294   0.968   5.265 -0.2244 -0.1166  0.1888
  305MOL    H1449262   5.071   1.059   5.340  1.3338  2.0010 -0.9965
  305MOL    H1549263   5.105   1.144   5.193  0.9119 -0.2818 -0.8630
  305MOL    H1649264   5.053   0.968   5.052  0.8879  1.8382  0.7246
  305MOL    H1749265   5.015   0.858   5.192 -1.0642  0.5922  0.2648
  305MOL    C1849266   5.259   0.791   5.087 -0.2754 -0.5666  0.7448
  305MOL    C1949267   5.412   0.771   5.079 -0.2016 -0.5746 -0.8423
  305MOL    C2049268   5.446   0.625   5.049 -0.1784  0.3314  0.0917
  305MOL    O2149269   5.361   0.540   5.025  0.2537 -0.3121 -0.1072
  305MOL    H2249270   5.208   0.784   4.991  0.0848 -2.7480  0.6779
  305MOL    H2349271   5.227   0.709   5.150 -0.6903  0.3650  1.7611
  305MOL    H2449272   5.457   0.787   5.177 -0.9330 -0.4568 -0.5221
  305MOL    H2549273   5.464   0.852   5.029 -2.4654  2.2718  1.2142
  305MOL    C2649274   5.599   0.602   5.020 -0.4321  0.2360  0.3479
  305MOL    C2749275   5.632   0.454   5.019  0.4348  0.1365  0.0113
  305MOL    C2849276   5.741   0.431   5.119  0.3546  0.0133 -0.0773
  305MOL    O2949277   5.721   0.469   5.238  0.1912  0.2140  0.2462
  305MOL    H3049278   5.653   0.650   5.101  0.6736  1.4820 -1.1023
  305MOL    H3149279   5.637   0.663   4.939  2.0682  1.2145  2.2112
  305MOL    H3249280   5.654   0.419   4.918  1.5035 -1.2940  0.7190
  305MOL    H3349281   5.547   0.394   5.053 -1.5564  2.2755 -1.0380
  305MOL    C3449282   5.878   0.359   5.073  0.3188  0.5983 -0.7089
  305MOL    C3549283   5.968   0.316   5.189 -0.2266 -0.2964  0.1162
  305MOL    C3649284   6.100   0.390   5.210  0.1269  0.5336  0.0135
  305MOL    O3749285   6.124   0.498   5.163 -0.0662 -1.1571 -0.2054
  305MOL    H3849286   5.926   0.438   5.015 -0.8258  2.4177  0.7847
  305MOL    H3949287   5.862   0.276   5.005  1.9308  0.5704 -1.0717
  305MOL    H4049288   6.016   0.219   5.179  0.1569 -0.6482  4.3682
  305MOL    H4149289   5.909   0.311   5.280  0.9742 -1.1607  0.8685
  305MOL    C4249290   6.190   0.330   5.324 -0.1490 -0.4082 -0.1436
  305MOL    C4349291   6.298   0.424   5.383  0.4932 -0.2223 -0.1300
  305MOL    C4449292   6.337   0.399   5.526 -1.0071 -0.0555  0.4074
  305MOL    O4549293   6.311   0.290   5.577  0.1743  0.2861 -0.4634
  305MOL    H4649294   6.243   0.243   5.285  0.5989  0.2573 -0.6363
  305MOL    H4749295   6.127   0.283   5.399  1.2340 -0.1339  1.2201
  305MOL    H4849296   6.269   0.529   5.387 -2.5319 -1.0208 -0.2044
  305MOL    H4949297   6.379   0.420   5.310 -1.5064  0.7048 -2.4601
  305MOL    C5049298   6.418   0.509   5.595 -0.7369  0.7771 -0.4763
  305MOL    C5149299   6.539   0.461   5.676 -0.8155  0.6268 -0.8184
  305MOL    C5249300   6.673   0.514   5.629  0.0059  0.6279 -0.1433
  305MOL    O5349301   6.680   0.630   5.589  0.1161 -1.0023 -0.1794
  305MOL    H5449302   6.341   0.563   5.650 -1.4957  1.5886 -2.2936
  305MOL    H5549303   6.449   0.581   5.520 -1.0662  1.6591  0.2304
  305MOL    H5649304   6.540   0.353   5.689 -2.4874  0.8172  1.1549
  305MOL    H5749305   6.521   0.494   5.778 -0.0559 -0.6006 -0.2820
  305MOL    C5849306   6.795   0.430   5.658  0.6604  0.4495 -0.5096
  305MOL    C5949307   6.936   0.496   5.643 -0.4472  0.0163 -0.0380
  305MOL    C6049308   7.034   0.427   5.547 -0.1839  0.1356 -0.4457
  305MOL    O6149309   7.001   0.322   5.494 -0.5448  0.1482  0.1229
  305MOL    H6249310   6.788   0.338   5.600 -0.5610 -0.5979  1.2294
  305MOL    H6349311   6.783   0.405   5.763  1.5101 -1.1193 -0.7705
  305MOL    H6449312   6.983   0.505   5.741  0.2850  2.1777 -0.5389
  305MOL    H6549313   6.927   0.601   5.615 -2.1130  0.5917  2.5426
  305MOL    C6649314   7.172   0.484   5.531 -0.0078  0.2585  0.2080
  305MOL    C6749315   7.265   0.381   5.460 -0.1137 -0.5724  0.0159
  305MOL    C6849316   7.392   0.465   5.416  0.6856 -0.0616  0.1266
  305MOL    O6949317   7.410   0.507   5.305  0.0722  0.3101 -0.1684
  305MOL    H7049318   7.212   0.499   5.631 -0.2039 -1.9532  0.6571
  305MOL    H7149319   7.167   0.586   5.494  2.3969  0.5497  0.5524
  305MOL    H7249320   7.212   0.337   5.376 -0.7390  1.7248 -0.8217
  305MOL    H7349321   7.293   0.312   5.539 -2.5846 -0.8179  0.7019
  305MOL    C7449322   7.491   0.494   5.526  0.2489 -0.6035  0.2570
  305MOL    C7549323   7.638   0.474   5.482 -0.3391 -0.0551  0.1694
  305MOL    C7649324   7.683   0.337   5.530 -0.1655 -0.5288 -0.0863
  305MOL    O7749325   7.607   0.234   5.522  0.0833 -0.0079  0.1172
  305MOL    H7849326   7.455   0.452   5.620 -1.6957  1.1795  0.3521
  305MOL    H7949327   7.482   0.602   5.539 -1.3523 -0.4344 -2.0094
  305MOL    H8049328   7.694   0.563   5.512 -1.0607 -0.7685  3.8391
  305MOL    H8149329   7.651   0.464   5.374  0.0016 -0.8254  0.2792
  305MOL    C8249330   7.823   0.328   5.571  0.2534  0.1131  0.3881
  305MOL    C8349331   7.856   0.399   5.704  0.0731 -0.0183 -0.0863
  305MOL    C8449332   0.069   0.535   5.693  0.5860  0.2835 -0.1526
  305MOL    O8549333   0.030   0.628   5.620 -0.4615  0.3546 -0.1628
  305MOL    H8649334   0.023   0.368   5.488 -0.4519  2.5848  1.0307
  305MOL    H8749335   7.850   0.223   5.575 -0.5960 -0.1232  0.1409
  305MOL    H8849336   0.058   0.333   5.766 -1.7367  0.7749  2.6156
  305MOL    H8949337   7.766   0.419   5.763  0.5419  3.1609 -0.3803
  305MOL    C9049338   0.187   0.547   5.796  0.0237  0.3385 -0.3894
  305MOL    C9149339   0.244   0.691   5.793  0.3907  0.0573  0.7077
  305MOL    C9249340   0.329   0.715   5.923 -0.1187 -0.0974 -0.5627
  305MOL    O9349341   0.387   0.628   5.986 -0.5318 -0.1260  0.1574
  305MOL    H9449342   0.267   0.477   5.773  2.5463  3.0926 -0.4185
  305MOL    H9549343   0.158   0.514   5.896 -0.8230 -0.5686 -0.9267
  305MOL    H9649344   0.160   0.761   5.789 -0.2587 -0.8476 -2.2360
  305MOL    H9749345   0.299   0.713   5.702 -0.8239 -0.7855 -0.2412
  305MOL    C9849346   0.323   0.859   5.980 -0.3861 -0.3550 -0.1085
  305MOL    C9949347   0.383   0.882   6.117 -0.3925  0.1299  0.6286
  305MOL   C10049348   0.529   0.926   6.111  0.5204  0.6051  0.6166
  305MOL   O10149349   0.560   1.012   6.196  0.6896  0.2414 -0.0494
  305MOL   H10249350   0.215   0.878   5.978 -0.1662  0.9198 -3.5787
  305MOL   H10349351   0.370   0.911   5.897 -2.3186  3.4391  1.0910
  305MOL   H10449352   0.366   0.804   6.192 -0.3601  0.6773  1.2120
  305MOL   H10549353   0.321   0.964   6.154  1.8237  2.7989 -1.3451
  305MOL   C10649354   0.628   0.862   6.008  0.0577 -0.2031 -0.0026
  305MOL   C10749355   0.765   0.938   5.999 -0.0135  0.5037 -0.0788
  305MOL   C10849356   0.880   0.847   6.038 -0.8210 -0.8390  0.1882
  305MOL   O10949357   0.867   0.761   6.126  0.1024  0.0473  0.3385
  305MOL   H11049358   0.587   0.886   5.910 -0.1601 -1.1063 -0.1366
  305MOL   H11149359   0.643   0.755   6.020  0.7166  0.0071  1.1960
  305MOL   H11249360   0.774   1.030   6.056  2.1657 -0.0743  0.5689
  305MOL   H11349361   0.777   0.972   5.896  0.8407 -2.4645 -1.0334
  305MOL   C11449362   1.012   0.849   5.961  0.2460 -0.0277  0.1776
  305MOL   C11549363   1.104   0.734   5.989  0.1347  0.4075  0.1557
  305MOL   C11649364   1.248   0.758   5.937 -0.0976 -0.0954 -0.0222
  305MOL   O11749365   1.312   0.853   5.975 -0.4213 -0.0803  0.3076
  305MOL   H11849366   1.066   0.942   5.983  0.2666  0.0948 -0.3829
  305MOL   H11949367   0.995   0.866   5.854  1.1667 -2.7387 -0.4158
  305MOL   H12049368   1.050   0.647   5.952  1.2938 -0.7831  1.2224
  305MOL   H12149369   1.107   0.709   6.095  0.9336 -0.9558 -0.1818
  305MOL   C12249370   1.302   0.652   5.833 -0.5838 -0.3612  0.3308
  305MOL   C12349371   1.441   0.687   5.774 -0.2607  0.4873 -0.0508
  305MOL   C12449372   1.438   0.764   5.638 -0.5787  0.7440 -0.7829
  305MOL   O12549373   1.333   0.818   5.602  0.0760 -0.2199  0.6252
  305MOL   H12649374   1.225   0.648   5.756 -2.2050  0.1282  1.8984
  305MOL   H12749375   1.305   0.564   5.898  0.6634 -0.6326 -0.0649
  305MOL   H12849376   1.500   0.598   5.754 -1.6235  0.0124 -2.1710
  305MOL   H12949377   1.498   0.740   5.850  2.4955 -1.0335 -0.9897
  305MOL   C13049378   1.560   0.791   5.562  0.5551  1.3043  0.6358
  305MOL   C13149379   1.539   0.812   5.407  0.3839 -0.4220  0.6245
  305MOL   C13249380   1.665   0.880   5.349  0.3943 -0.0712  0.6387
  305MOL   O13349381   1.775   0.878   5.406  0.6618  0.0501 -0.5429
  305MOL   H13449382   1.617   0.701   5.583  1.9875  2.2474  0.8923
  305MOL   H13549383   1.624   0.868   5.605 -0.1695  1.1764  1.9422
  305MOL   H13649384   1.449   0.869   5.381  0.0158 -0.5008  1.7117
  305MOL   H13749385   1.533   0.712   5.364  0.1453 -0.1679  0.0598
  305MOL   C13849386   1.646   0.934   5.210  0.4409 -0.4526 -0.0448
  305MOL   C13949387   1.722   1.066   5.190  0.8301  0.9785 -0.0479
  305MOL   C14049388   1.635   1.177   5.133  0.3965 -0.2154  0.1320
  305MOL   O14149389   1.517   1.168   5.116 -0.0195  0.4472  0.2458
  305MOL   H14249390   1.539   0.947   5.203  0.1490 -1.9239  1.3054
  305MOL   H14349391   1.668   0.860   5.133 -0.5797  0.7692 -1.5423
  305MOL   H14449392   1.809   1.055   5.125  0.7243 -0.1003 -0.0140
  305MOL   H14549393   1.767   1.103   5.282 -1.7058  3.5780  0.2398
  305MOL   C14649394   1.701   1.315   5.101  0.1833  0.9348 -0.0254
  305MOL   C14749395   1.648   1.361   4.966 -0.4946 -0.5625  0.4296
  305MOL   C14849396   1.715   1.296   4.845 -0.3088 -0.2879  0.4496
  305MOL   O14949397   1.828   1.237   4.851  0.1087 -0.1332  0.2134
  305MOL   H15049398   1.809   1.311   5.108  0.4501  0.5859 -3.3396
  305MOL   H15149399   1.674   1.394   5.170 -2.5849 -0.4360  0.5463
  305MOL   H15249400   1.668   1.466   4.946 -0.3553 -1.1712 -3.0963
  305MOL   H15349401   1.540   1.341   4.965 -0.9289  1.6983 -0.5475
  305MOL   C15449402   1.640   1.307   4.713  0.5599  1.2762 -0.0771
  305MOL   C15549403   1.651   1.454   4.672  0.6817  0.0167  0.5438
  305MOL   C15649404   1.512   1.521   4.652  0.1097  0.4780 -0.4720
  305MOL   O15749405   1.427   1.501   4.734  0.9328 -0.1091  0.1009
  305MOL   H15849406   1.541   1.294   4.755  0.0575  1.1049 -1.3009
  305MOL   H15949407   1.668   1.224   4.648 -0.1788 -0.5261  1.8802
  305MOL   H16049408   1.704   1.443   4.577  0.6675  0.2215  0.5117
  305MOL   H16149409   1.692   1.521   4.747  0.1478  2.5477 -1.3371
  305MOL   H16249410   1.491   1.568   4.556  2.1696 -0.9778 -1.6948
  306MOL     C149411   7.069   2.865   2.839 -0.1804 -0.1424  0.5848
  306MOL     C249412   7.076   2.929   2.981 -0.3232  0.3713  0.0060
  306MOL     C349413   7.155   3.054   2.999  0.2103 -0.0740  0.8840
  306MOL     O449414   7.229   3.101   2.919 -0.3947 -0.0249 -0.4865
  306MOL     H549415   7.167   2.830   2.808  0.7600 -0.5253  3.8846
  306MOL     H649416   6.986   2.793   2.838 -0.3054 -0.0087 -1.0742
  306MOL     H749417   7.116   2.849   3.044 -0.5818  0.3579  0.1551
  306MOL     H849418   6.975   2.949   3.016 -0.1832  1.1323 -0.0337
  306MOL     H949419   7.043   2.935   2.759 -0.8004 -0.4613  0.5013
  306MOL    C1049420   7.131   3.116   3.134  0.5613  0.4564 -0.2399
  306MOL    C1149421   7.052   3.249   3.111 -0.2415 -0.0364  0.1163
  306MOL    C1249422   7.048   3.342   3.229  0.9207  0.4771  0.0521
  306MOL    O1349423   7.074   3.303   3.342 -0.5408 -0.2802  0.6300
  306MOL    H1449424   7.226   3.136   3.183  0.7290  1.2617 -0.8783
  306MOL    H1549425   7.073   3.060   3.207  0.2469 -1.3355 -1.8303
  306MOL    H1649426   6.947   3.225   3.093 -0.3440 -0.2943  1.0046
  306MOL    H1749427   7.082   3.293   3.017 -1.2949  2.5552  0.9542
  306MOL    C1849428   6.996   3.482   3.213 -0.9172 -0.2774 -0.8980
  306MOL    C1949429   7.117   3.574   3.203  0.4172 -0.0422  0.0555
  306MOL    C2049430   7.118   3.657   3.081  0.5226 -0.0324  0.4510
  306MOL    O2149431   7.085   3.779   3.077 -0.4860  0.3927  0.2692
  306MOL    H2249432   6.945   3.518   3.303  0.8111 -0.1439  0.0521
  306MOL    H2349433   6.929   3.485   3.127 -0.1353 -0.9882 -1.5424
  306MOL    H2449434   7.210   3.524   3.229  1.4190  1.7735 -0.0127
  306MOL    H2549435   7.104   3.645   3.284  4.5294  0.2311  0.5678
  306MOL    C2649436   7.161   3.590   2.952  0.0783 -0.4102  1.0399
  306MOL    C2749437   7.203   3.689   2.846  0.3558  0.7673 -0.0450
  306MOL    C2849438   7.248   3.625   2.717 -0.0675 -0.0852  0.1411
  306MOL    O2949439   7.273   3.507   2.715  1.0923  0.2131 -0.4192
  306MOL    H3049440   7.088   3.524   2.905 -0.5813 -0.0196  1.5125
  306MOL    H3149441   7.243   3.521   2.968 -0.6037 -1.3884  0.4110
  306MOL    H3249442   7.280   3.747   2.897  0.5872 -0.7176  1.3341
  306MOL    H3349443   7.123   3.759   2.821  0.5210  1.9233  2.4611
  306MOL    C3449444   7.259   3.709   2.588 -0.3606 -0.3101 -0.5849
  306MOL    C3549445   7.114   3.761   2.549 -0.2132  0.0311  0.6196
  306MOL    C3649446   7.115   3.868   2.444  0.3432  0.8215  0.2159
  306MOL    O3749447   7.208   3.884   2.364  0.0460 -0.7106 -0.7475
  306MOL    H3849448   7.292   3.648   2.504  2.1902  1.7933 -1.1795
  306MOL    H3949449   7.326   3.795   2.595 -2.0555  1.0507 -0.5683
  306MOL    H4049450   7.071   3.823   2.628 -3.4115 -0.6656 -0.4700
  306MOL    H4149451   7.030   3.696   2.523 -1.6503  1.6120  1.2329
  306MOL    C4249452   7.006   3.975   2.441  0.5207  0.3525  0.7715
  306MOL    C4349453   7.017   4.081   2.333 -0.3810  1.4137  0.3307
  306MOL    C4449454   6.984   4.223   2.367 -0.9919 -0.1768 -0.2412
  306MOL    O4549455   7.041   4.280   2.462 -0.0679 -0.1153  0.0838
  306MOL    H4649456   7.014   4.021   2.539 -2.9390 -2.0431  2.2446
  306MOL    H4749457   6.916   3.915   2.446  1.2392 -0.8625 -0.4363
  306MOL    H4849458   6.958   4.043   2.250  1.3044 -1.3113  0.3352
  306MOL    H4949459   7.115   4.092   2.288 -0.5270  2.6967  0.2810
  306MOL    C5049460   6.873   4.281   2.281 -0.0892  0.8457 -0.3819
  306MOL    C5149461   6.791   4.378   2.353  0.0276 -1.2907  0.0799
  306MOL    C5249462   6.741   4.498   2.261  0.4741 -0.1797 -0.5518
  306MOL    O5349463   6.702   4.484   2.143 -0.8192  0.1394  0.1920
  306MOL    H5449464   6.807   4.204   2.241  1.1862  0.3766 -1.6535
  306MOL    H5549465   6.920   4.325   2.193 -1.4242 -0.3370 -1.7199
  306MOL    H5649466   6.847   4.426   2.433 -0.7958  0.0810 -0.1398
  306MOL    H5749467   6.706   4.328   2.400 -1.0422  0.5596  0.1752
  306MOL    C5849468   6.730   4.640   2.325 -0.0211  0.2962 -0.8175
  306MOL    C5949469   6.582   4.698   2.329  0.1902  0.0565 -0.2494
  306MOL    C6049470   6.512   4.650   2.454  0.6655 -0.2365  0.1270
  306MOL    O6149471   6.516   4.527   2.483 -0.1454  0.2102 -0.1271
  306MOL    H6249472   6.792   4.699   2.257 -2.2308  2.8996 -0.6656
  306MOL    H6349473   6.768   4.634   2.427  0.7856  1.7587 -1.0148
  306MOL    H6449474   6.528   4.673   2.237 -0.0824  0.8938 -0.3220
  306MOL    H6549475   6.580   4.807   2.323 -0.4949 -0.0257 -1.9846
  306MOL    C6649476   6.440   4.755   2.536  0.3180 -0.0982  0.2477
  306MOL    C6749477   6.366   4.702   2.661  0.0764  0.1607  0.3903
  306MOL    C6849478   6.375   4.786   2.786 -1.0192  0.2350 -0.5127
  306MOL    O6949479   6.483   4.830   2.819  0.3024  0.2306 -0.2035
  306MOL    H7049480   6.360   4.786   2.468  1.0385 -0.4346 -0.7722
  306MOL    H7149481   6.509   4.840   2.540  1.8101 -1.3097  0.7580
  306MOL    H7249482   6.390   4.596   2.672  0.4040 -0.0751 -2.2279
  306MOL    H7349483   6.259   4.707   2.640  0.0407 -2.4826 -0.2004
  306MOL    C7449484   6.250   4.793   2.869  0.5956  0.5102 -0.4504
  306MOL    C7549485   6.146   4.910   2.835  0.3362 -0.1643  0.3343
  306MOL    C7649486   5.998   4.857   2.839 -0.2618 -1.0285  0.2023
  306MOL    O7749487   5.968   4.752   2.778  0.5344  0.5260 -0.3399
  306MOL    H7849488   6.285   4.793   2.972 -2.4403 -0.4576  0.6409
  306MOL    H7949489   6.196   4.699   2.862  0.7284  0.2670  1.4836
  306MOL    H8049490   6.152   4.943   2.731 -1.4857 -0.5867  0.0684
  306MOL    H8149491   6.165   4.983   2.913  1.3419 -1.4361  1.3030
  306MOL    C8249492   5.892   4.930   2.918 -0.3218  1.0702 -0.7716
  306MOL    C8349493   5.767   4.944   2.830  0.1413 -0.2096 -0.0067
  306MOL    C8449494   5.789   5.018   2.700 -0.2328 -0.0346 -0.3829
  306MOL    O8549495   5.876   5.103   2.681 -0.1297 -0.6478  0.1422
  306MOL    H8649496   5.932   5.029   2.941  1.5826 -0.3041  2.0157
  306MOL    H8749497   5.875   4.885   3.016 -1.7202  0.4225 -1.3111
  306MOL    H8849498   5.690   4.999   2.884  0.0042 -0.1670 -0.2455
  306MOL    H8949499   5.726   4.848   2.799  0.6705  0.0224 -1.4435
  306MOL    C9049500   5.690   4.970   2.589  0.5925  0.2015 -0.2812
  306MOL    C9149501   5.616   5.099   2.537 -0.0410  0.3735 -1.0001
  306MOL    C9249502   5.470   5.086   2.489  0.1861  0.3176  0.6904
  306MOL    O9349503   5.413   4.977   2.512  0.3778  0.3318  0.4088
  306MOL    H9449504   5.613   4.915   2.643 -0.1476  2.0522  0.6046
  306MOL    H9549505   5.741   4.934   2.499 -0.2346  0.5199 -0.8867
  306MOL    H9649506   5.671   5.152   2.459  1.9824 -0.2923 -0.0443
  306MOL    H9749507   5.602   5.175   2.614 -0.1602 -0.8829  0.2253
  306MOL    C9849508   5.412   5.183   2.388 -0.5585 -0.9597  0.0605
  306MOL    C9949509   5.293   5.256   2.450  0.0615  0.0359  0.2096
  306MOL   C10049510   5.158   5.218   2.395 -0.0012  0.2401 -0.1306
  306MOL   O10149511   5.131   5.182   2.276 -0.4010  0.0884  0.0366
  306MOL   H10249512   5.376   5.127   2.301 -0.7281  1.7421 -1.6716
  306MOL   H10349513   5.484   5.261   2.363  1.3767 -1.8724  2.5157
  306MOL   H10449514   5.292   5.363   2.432 -1.6419 -0.1750 -1.0135
  306MOL   H10549515   5.284   5.236   2.557  0.4084  1.7266  0.5582
  306MOL   C10649516   5.037   5.221   2.502 -0.3581 -0.2889 -0.1529
  306MOL   C10749517   4.932   5.120   2.464  0.3606 -0.4956 -0.0471
  306MOL   C10849518   4.883   5.023   2.575  0.5395  0.4255  0.1631
  306MOL   O10949519   4.933   5.016   2.687  0.7288 -0.9434  0.2857
  306MOL   H11049520   4.997   5.322   2.488 -0.5239 -0.3724 -0.2846
  306MOL   H11149521   5.060   5.210   2.608 -1.3053  3.1065  0.4777
  306MOL   H11249522   4.957   5.068   2.372  0.7746  0.0451 -0.2463
  306MOL   H11349523   4.845   5.178   2.432  0.6189  1.0979  2.0295
  306MOL   C11449524   4.785   4.912   2.525  0.6799 -0.4781 -0.8872
  306MOL   C11549525   4.768   4.793   2.622 -1.0538 -0.4736 -0.3267
  306MOL   C11649526   4.641   4.797   2.714  0.0283  0.7668  0.0486
  306MOL   O11749527   4.558   4.708   2.708 -0.4114  0.2607 -0.4461
  306MOL   H11849528   4.832   4.879   2.433  1.2798 -0.0085 -0.7546
  306MOL   H11949529   4.683   4.944   2.503 -0.2025 -0.3608  2.8842
  306MOL   H12049530   4.855   4.773   2.684 -2.1239  0.0041  1.3776
  306MOL   H12149531   4.751   4.706   2.559 -0.3104 -0.2691 -0.8211
  306MOL   C12249532   4.625   4.916   2.802 -0.1239  0.1754 -0.5426
  306MOL   C12349533   4.485   4.980   2.782  0.4663 -0.1968 -0.4419
  306MOL   C12449534   4.485   5.133   2.763  0.3445 -0.3724 -0.3357
  306MOL   O12549535   4.594   5.195   2.739  0.4844  0.1490 -0.3427
  306MOL   H12649536   4.717   4.975   2.798  0.2409 -0.3943 -0.5797
  306MOL   H12749537   4.638   4.876   2.902 -3.2728 -0.3469 -0.2993
  306MOL   H12849538   4.424   4.952   2.868 -0.5413  0.4772 -0.9290
  306MOL   H12949539   4.433   4.945   2.693  0.9211 -2.0119 -0.0093
  306MOL   C13049540   4.350   5.200   2.750  0.2460  0.7631  0.2560
  306MOL   C13149541   4.349   5.341   2.813 -0.5404  0.7069 -0.6554
  306MOL   C13249542   4.283   5.338   2.955  0.0415  0.1697 -0.2065
  306MOL   O13349543   4.354   5.358   3.054 -0.2440  0.1055 -0.3283
  306MOL   H13449544   4.271   5.137   2.792  1.6769 -1.3507 -0.1198
  306MOL   H13549545   4.339   5.217   2.643  0.0806 -1.0865 -0.0493
  306MOL   H13649546   4.299   5.415   2.751 -0.5319  1.7739  0.5728
  306MOL   H13749547   4.449   5.381   2.833 -0.8397 -0.1378  2.9218
  306MOL   C13849548   4.137   5.306   2.964  0.1082  0.0653 -0.3533
  306MOL   C13949549   4.044   5.395   2.873 -0.1754  1.0027  0.5467
  306MOL   C14049550   4.020   5.337   2.740  0.0667 -0.0292 -0.7103
  306MOL   O14149551   4.048   5.226   2.702  0.0021  0.1482  0.3419
  306MOL   H14249552   4.103   5.315   3.068 -2.6087  0.9847 -1.2825
  306MOL   H14349553   4.122   5.202   2.936  0.9183 -0.3834  0.8445
  306MOL   H14449554   4.075   5.499   2.866 -0.7379  0.9954 -2.6067
  306MOL   H14549555   3.942   5.397   2.910 -1.5828  2.2491 -3.2327
  306MOL   C14649556   3.935   5.422   2.642  0.3238 -0.4244  0.8299
  306MOL   C14749557   3.909   5.353   2.505 -0.0835 -0.0016 -0.4033
  306MOL   C14849558   4.038   5.336   2.418  0.0499 -0.1642  0.7660
  306MOL   O14949559   4.150   5.364   2.450  0.0572  0.5083 -0.0274
  306MOL   H15049560   3.975   5.522   2.627 -0.3132 -0.2909  0.0206
  306MOL   H15149561   3.843   5.440   2.697 -0.7478  1.1075 -1.4011
  306MOL   H15249562   3.824   5.403   2.459  0.3832  1.8067  0.6593
  306MOL   H15349563   3.891   5.246   2.518 -0.7564  0.0679 -0.7406
  306MOL   C15449564   4.017   5.280   2.275  0.2437 -0.5657 -0.3626
  306MOL   C15549565   4.153   5.252   2.204  0.5369  0.6169 -0.4754
  306MOL   C15649566   4.179   5.102   2.171  0.0469 -0.4431 -0.1107
  306MOL   O15749567   4.094   5.025   2.132 -0.2223 -0.1358 -0.3254
  306MOL   H15849568   3.965   5.354   2.215 -0.1139  0.2702  0.9399
  306MOL   H15949569   3.957   5.189   2.290  0.7744 -1.0677 -1.2580
  306MOL   H16049570   4.241   5.301   2.245  0.2697 -0.4078  1.3685
  306MOL   H16149571   4.142   5.293   2.103  2.8204 -0.8222 -1.3621
  306MOL   H16249572   4.285   5.081   2.188  0.3377  2.7822  2.8539
  307MOL     C149573   1.811   6.724   0.432 -0.3989 -0.0680  0.2106
  307MOL     C249574   1.952   6.760   0.470 -0.1885  0.2100 -0.2068
  307MOL     C349575   1.965   6.866   0.575 -0.0907 -0.2827  0.3003
  307MOL     O449576   1.882   6.954   0.585  0.3928 -0.0911  0.0816
  307MOL     H549577   1.771   6.806   0.373 -0.0500 -0.2990 -0.3421
  307MOL     H649578   1.818   6.627   0.382 -2.7417 -0.1205 -0.0699
  307MOL     H749579   2.008   6.789   0.381 -1.4809  2.3933 -0.3247
  307MOL     H849580   1.989   6.670   0.519  0.4883  1.5761  1.8587
  307MOL     H949581   1.739   6.716   0.514 -2.1291 -0.0231 -1.2741
  307MOL    C1049582   2.100   6.875   0.642  0.5207 -0.5223  0.2239
  307MOL    C1149583   2.119   6.748   0.724  0.2132 -0.2668  0.8914
  307MOL    C1249584   2.227   6.658   0.681 -0.0759 -0.3902  0.1221
  307MOL    O1349585   2.300   6.686   0.583 -0.9115 -0.1841 -0.9721
  307MOL    H1449586   2.121   6.968   0.694  1.2735 -0.7230  0.2898
  307MOL    H1549587   2.168   6.869   0.557 -0.5840 -1.4603 -0.6099
  307MOL    H1649588   2.024   6.694   0.726 -0.5534  0.7921 -2.4523
  307MOL    H1749589   2.139   6.781   0.826 -0.2018 -0.7053  1.1159
  307MOL    C1849590   2.247   6.528   0.762  0.7182  0.1228 -0.3927
  307MOL    C1949591   2.324   6.409   0.702 -0.2203 -0.4157 -0.2400
  307MOL    C2049592   2.450   6.380   0.785  0.1057 -0.1762 -0.1035
  307MOL    O2149593   2.525   6.474   0.817  0.4513 -0.2837  0.5058
  307MOL    H2249594   2.149   6.494   0.795  2.1931 -1.5510  2.5197
  307MOL    H2349595   2.277   6.547   0.865 -0.2140 -0.4291 -0.0110
  307MOL    H2449596   2.357   6.426   0.600 -0.4585  0.7495 -0.1244
  307MOL    H2549597   2.261   6.320   0.699  0.0808 -0.5887 -1.8279
  307MOL    C2649598   2.466   6.229   0.807  0.1307  0.0329  0.2530
  307MOL    C2749599   2.583   6.187   0.903 -0.1387  0.5668 -0.2971
  307MOL    C2849600   2.529   6.101   1.019  0.3763 -0.0396 -0.1006
  307MOL    O2949601   2.414   6.107   1.049  1.1863 -0.0046  0.3083
  307MOL    H3049602   2.471   6.183   0.708 -0.5981 -0.3309  0.3823
  307MOL    H3149603   2.374   6.196   0.855  0.1560  0.0598  0.3193
  307MOL    H3249604   2.648   6.265   0.944  2.5589 -1.2280 -0.9769
  307MOL    H3349605   2.647   6.118   0.848 -3.2735 -1.6469 -1.3108
  307MOL    C3449606   2.634   6.024   1.108 -0.0711 -0.7308 -0.0964
  307MOL    C3549607   2.574   5.952   1.230  0.1759 -0.3990 -0.0701
  307MOL    C3649608   2.595   5.800   1.218  0.8270 -1.0151  0.1139
  307MOL    O3749609   2.556   5.746   1.118  0.3892  0.4692 -0.6992
  307MOL    H3849610   2.709   6.089   1.152 -0.1667  0.2463 -1.3710
  307MOL    H3949611   2.686   5.954   1.043  0.4849 -0.2331 -0.1898
  307MOL    H4049612   2.468   5.978   1.236  0.9064  3.5002 -2.5146
  307MOL    H4149613   2.619   5.991   1.321 -2.1392  0.6317  0.6794
  307MOL    C4249614   2.700   5.739   1.307  0.4806 -0.2284  0.3009
  307MOL    C4349615   2.725   5.587   1.282  0.0331 -0.1451  0.2334
  307MOL    C4449616   2.710   5.508   1.415  0.3148  0.6376 -0.5612
  307MOL    O4549617   2.764   5.547   1.518  0.3134 -0.5052  0.4410
  307MOL    H4649618   2.667   5.747   1.410  0.7511  2.9488  0.1888
  307MOL    H4749619   2.790   5.793   1.278 -0.4321  0.8422 -0.6537
  307MOL    H4849620   2.833   5.578   1.269  0.2031  0.2115  1.3202
  307MOL    H4949621   2.666   5.547   1.199 -0.3380 -0.4235  0.6292
  307MOL    C5049622   2.633   5.376   1.411 -1.1029  0.6815 -0.6307
  307MOL    C5149623   2.682   5.265   1.514 -0.5983  0.3714  0.6877
  307MOL    C5249624   2.785   5.173   1.439  0.1196 -0.1159  0.0584
  307MOL    O5349625   2.872   5.231   1.374  0.1375  0.1575 -0.6085
  307MOL    H5449626   2.639   5.328   1.313 -0.7660  0.8190 -0.6751
  307MOL    H5549627   2.528   5.391   1.435 -1.5187 -0.3750 -1.6991
  307MOL    H5649628   2.599   5.205   1.552 -0.7262  0.8052  1.0933
  307MOL    H5749629   2.730   5.322   1.594  0.4544  3.2800 -1.9276
  307MOL    C5849630   2.785   5.027   1.467  0.1933  0.4805 -0.0005
  307MOL    C5949631   2.773   4.944   1.335  0.1285 -0.4750  1.2249
  307MOL    C6049632   2.642   4.966   1.253  0.1594 -0.3721  0.2442
  307MOL    O6149633   2.529   4.963   1.301  0.1054 -0.2497  0.8686
  307MOL    H6249634   2.703   4.993   1.532  0.7119 -0.4888  0.1594
  307MOL    H6349635   2.878   5.000   1.516 -0.3011 -0.8981  0.2264
  307MOL    H6449636   2.790   4.837   1.346  1.2299 -0.5832 -1.3103
  307MOL    H6549637   2.859   4.959   1.270 -2.0645 -0.2201 -1.6854
  307MOL    C6649638   2.665   4.995   1.101  0.2854 -0.0360 -0.1036
  307MOL    C6749639   2.547   5.054   1.019 -0.2369 -0.3041 -0.7716
  307MOL    C6849640   2.556   5.211   0.996  0.0240  0.2451 -0.1320
  307MOL    O6949641   2.639   5.283   1.046 -0.1520  0.1397 -0.2015
  307MOL    H7049642   2.713   4.910   1.052  0.3580  0.0284 -0.1445
  307MOL    H7149643   2.740   5.073   1.104  0.9858 -0.6753 -0.8445
  307MOL    H7249644   2.461   5.041   1.084 -0.3724 -0.7271 -1.0298
  307MOL    H7349645   2.532   5.001   0.925  0.9147 -0.3705 -0.9138
  307MOL    C7449646   2.446   5.274   0.910  0.3272  0.6454  0.0537
  307MOL    C7549647   2.499   5.400   0.834  0.0710  0.0882 -1.3851
  307MOL    C7649648   2.416   5.515   0.874 -0.1306 -0.3870  0.7138
  307MOL    O7749649   2.336   5.513   0.966  0.1510  0.3985 -0.5668
  307MOL    H7849650   2.357   5.273   0.973 -1.6288 -3.8213 -2.4954
  307MOL    H7949651   2.427   5.193   0.839  1.2090 -0.4002  0.9845
  307MOL    H8049652   2.491   5.385   0.726 -1.4936  0.2706 -1.3055
  307MOL    H8149653   2.607   5.417   0.841 -0.0330  0.2694 -0.1606
  307MOL    C8249654   2.426   5.646   0.791  0.4688 -0.4248 -0.6004
  307MOL    C8349655   2.287   5.693   0.747  0.3768 -0.1064  0.5848
  307MOL    C8449656   2.253   5.824   0.820 -0.2606  0.1684  0.0734
  307MOL    O8549657   2.306   5.930   0.786 -0.1637 -0.2022  0.4188
  307MOL    H8649658   2.472   5.631   0.693  1.8283  1.8777 -0.3682
  307MOL    H8749659   2.481   5.722   0.846 -1.3537  0.2680  0.2937
  307MOL    H8849660   2.210   5.616   0.752  0.1225  0.1354  0.3913
  307MOL    H8949661   2.290   5.719   0.641 -2.8509 -0.8615  0.2688
  307MOL    C9049662   2.152   5.806   0.935  0.1889 -0.4398  0.4948
  307MOL    C9149663   2.100   5.932   0.992 -0.1263 -0.0134 -0.2198
  307MOL    C9249664   2.007   6.011   0.900 -0.6329 -0.3944  0.5746
  307MOL    O9349665   1.884   5.988   0.912 -0.0520 -0.3048 -0.1057
  307MOL    H9449666   2.198   5.746   1.013  0.9018  1.6207  1.7090
  307MOL    H9549667   2.076   5.750   0.881  0.8887 -0.6330 -0.3050
  307MOL    H9649668   2.181   6.002   1.012  0.5018 -0.3702 -1.4554
  307MOL    H9749669   2.053   5.900   1.085  2.9855 -0.7752  1.1449
  307MOL    C9849670   2.058   6.133   0.832  0.6671 -0.5075 -0.4437
  307MOL    C9949671   1.950   6.248   0.820 -0.9085 -0.5646 -0.0006
  307MOL   C10049672   1.944   6.303   0.680  0.7133  0.7622 -0.1142
  307MOL   O10149673   2.000   6.412   0.653 -0.2451 -0.1853 -0.6676
  307MOL   H10249674   2.097   6.106   0.734 -3.0231 -1.2250 -1.7688
  307MOL   H10349675   2.152   6.169   0.875  2.1880 -1.6468 -2.6810
  307MOL   H10449676   1.964   6.336   0.884 -1.9539 -0.9211  0.7443
  307MOL   H10549677   1.853   6.206   0.847 -2.1368  2.4421  0.4695
  307MOL   C10649678   1.875   6.218   0.569 -0.0901  0.2625  0.2127
  307MOL   C10749679   1.790   6.313   0.482 -0.9011  0.0886 -0.6539
  307MOL   C10849680   1.644   6.276   0.484  0.4066 -0.0422 -0.1466
  307MOL   O10949681   1.579   6.238   0.586  0.3824 -0.3053 -0.6970
  307MOL   H11049682   1.820   6.137   0.618  0.3151 -0.0202  0.2068
  307MOL   H11149683   1.955   6.169   0.513 -0.7424  2.0472 -2.3421
  307MOL   H11249684   1.836   6.311   0.383 -3.6770 -0.1219 -1.9952
  307MOL   H11349685   1.791   6.413   0.523  0.8657 -0.9194  1.8748
  307MOL   C11449686   1.584   6.262   0.347  0.0039  0.0557 -0.7753
  307MOL   C11549687   1.452   6.181   0.354  0.4324  0.3101  0.0793
  307MOL   C11649688   1.351   6.268   0.284 -0.1819 -0.0293 -0.1233
  307MOL   O11749689   1.339   6.387   0.305  0.2798  0.0566 -0.1871
  307MOL   H11849690   1.645   6.215   0.271  1.1260  0.1896  0.0395
  307MOL   H11949691   1.567   6.365   0.316 -2.3926 -0.3677 -0.9837
  307MOL   H12049692   1.416   6.161   0.454  2.7374 -0.6009  0.7621
  307MOL   H12149693   1.460   6.078   0.320 -0.2083 -0.5371  2.4285
  307MOL   C12249694   1.262   6.194   0.180 -0.2782 -1.1326 -0.3155
  307MOL   C12349695   1.204   6.289   0.074  0.1921 -0.4534 -0.6373
  307MOL   C12449696   1.284   6.287   7.803 -0.0372  0.5068  0.4299
  307MOL   O12549697   1.368   6.375   7.779 -0.4434  0.3936 -0.1752
  307MOL   H12649698   1.182   6.153   0.242 -0.2847  0.3459  0.6725
  307MOL   H12749699   1.314   6.104   0.145  1.4684 -0.3609  0.1989
  307MOL   H12849700   1.193   6.389   0.115 -0.9715 -1.3294  1.2656
  307MOL   H12949701   1.105   6.253   0.045  0.9304 -1.0074 -2.5222
  307MOL   C13049702   1.247   6.168   7.711  0.2210  0.1277  0.2600
  307MOL   C13149703   1.366   6.090   7.652 -0.0158 -0.8294  0.8419
  307MOL   C13249704   1.350   6.066   7.503  0.5465  0.2394  0.4965
  307MOL   O13349705   1.251   6.108   7.442 -0.4648 -0.2252  0.0453
  307MOL   H13449706   1.189   6.226   7.640 -0.4788 -1.1161 -0.1967
  307MOL   H13549707   1.174   6.098   7.751  0.0803 -0.3895 -0.8885
  307MOL   H13649708   1.371   5.998   7.710  3.4223 -1.4214 -0.3174
  307MOL   H13749709   1.462   6.142   7.661  0.2059 -0.8435 -1.3344
  307MOL   C13849710   1.473   6.009   7.430 -0.0352 -0.2227  0.6801
  307MOL   C13949711   1.430   5.939   7.298  0.3207 -0.4504 -0.0980
  307MOL   C14049712   1.384   5.792   7.313 -0.3187  0.0081  0.2868
  307MOL   O14149713   1.456   5.721   7.384  0.2376 -0.2604  0.2069
  307MOL   H14249714   1.527   5.935   7.490  0.3668  0.9949  1.8581
  307MOL   H14349715   1.544   6.089   7.412 -0.1057 -0.1574  0.6936
  307MOL   H14449716   1.511   5.941   7.225 -0.2051 -0.4299 -0.6924
  307MOL   H14549717   1.347   5.999   7.260 -0.6513 -0.8864  1.3049
  307MOL   C14649718   1.255   5.752   7.243 -0.1273  0.2391 -0.5241
  307MOL   C14749719   1.197   5.622   7.301 -0.2530  0.0865 -0.0315
  307MOL   C14849720   1.152   5.632   7.448  0.1082 -0.4681  0.6252
  307MOL   O14949721   1.184   5.725   7.521  0.0705  0.5369  0.5705
  307MOL   H15049722   1.278   5.740   7.138  0.3899 -0.8896 -0.2943
  307MOL   H15149723   1.173   5.823   7.248  0.3675  0.7646  0.2537
  307MOL   H15249724   1.276   5.547   7.313  1.5991  1.9571 -0.2465
  307MOL   H15349725   1.120   5.591   7.231  1.3209  1.4681 -2.4766
  307MOL   C15449726   1.067   5.520   7.503  0.4380 -0.4792  0.7160
  307MOL   C15549727   1.036   5.521   7.660  0.2191  0.1084 -0.6119
  307MOL   C15649728   0.965   5.395   7.707  0.5344  0.1908  0.5455
  307MOL   O15749729   1.018   5.283   7.715  0.2813 -0.1842 -0.2601
  307MOL   H15849730   1.111   5.424   7.477  0.0904 -0.4324 -0.0671
  307MOL   H15949731   0.974   5.525   7.446  1.7075  0.1931 -1.3473
  307MOL   H16049732   0.979   5.606   7.697  1.1536  0.3012  0.4125
  307MOL   H16149733   1.130   5.524   7.715  0.5826  0.9364 -1.2611
  307MOL   H16249734   0.859   5.410   7.729  0.1999  1.6917 -1.8579
  308MOL     C149735   0.146   4.197   3.581 -0.7370  0.3112  0.4291
  308MOL     C249736   0.009   4.246   3.618  0.6992  0.2185  0.3067
  308MOL     C349737   7.759   4.193   3.521 -0.1507  0.1541 -0.3849
  308MOL     O449738   7.774   4.095   3.451  0.3419 -0.1128 -0.0935
  308MOL     H549739   0.226   4.228   3.648 -0.5367  2.1625 -0.6347
  308MOL     H649740   0.155   4.088   3.582 -0.4987  0.3152 -0.8351
  308MOL     H749741   7.857   4.354   3.609  1.4088  0.2085 -0.7359
  308MOL     H849742   7.837   4.213   3.717 -0.2993 -2.8832 -0.9790
  308MOL     H949743   0.177   4.240   3.486  0.2706  0.9361  1.0377
  308MOL    C1049744   7.634   4.286   3.505 -0.1651 -0.4320  0.3632
  308MOL    C1149745   7.591   4.300   3.360 -0.6037 -0.5271  0.4469
  308MOL    C1249746   7.501   4.430   3.329 -0.2326  0.9947 -0.0386
  308MOL    O1349747   7.504   4.528   3.400 -0.1717 -0.5924  0.0285
  308MOL    H1449748   7.652   4.384   3.548 -0.3886 -0.0495 -0.4104
  308MOL    H1549749   7.553   4.244   3.566 -1.4793 -0.3397 -1.2988
  308MOL    H1649750   7.535   4.212   3.328 -2.6222  0.2267  1.8032
  308MOL    H1749751   7.683   4.302   3.302 -1.6561 -0.6910 -1.2541
  308MOL    C1849752   7.417   4.422   3.201  0.1299 -0.2204  0.1015
  308MOL    C1949753   7.305   4.528   3.212  0.0361  0.7622 -0.8393
  308MOL    C2049754   7.172   4.477   3.268  0.2383  0.4840 -0.0570
  308MOL    O2149755   7.174   4.365   3.323  0.2868 -0.5456 -0.2483
  308MOL    H2249756   7.374   4.324   3.178  1.3248 -1.1546  1.8193
  308MOL    H2349757   7.468   4.458   3.112  0.8092 -0.3042  0.4596
  308MOL    H2449758   7.268   4.543   3.110  1.1624 -1.1350 -1.5611
  308MOL    H2549759   7.331   4.622   3.260 -1.6969  0.1966  1.3027
  308MOL    C2649760   7.045   4.564   3.274  0.0868 -0.3327  0.6232
  308MOL    C2749761   6.916   4.492   3.336 -0.2841 -0.4239  0.7423
  308MOL    C2849762   6.843   4.414   3.229 -0.4983  0.0396  0.0269
  308MOL    O2949763   6.880   4.413   3.115 -0.2039 -0.7515 -0.0097
  308MOL    H3049764   7.036   4.600   3.171  0.9839  0.0104  0.6658
  308MOL    H3149765   7.073   4.652   3.331  0.7214 -0.3568  0.3581
  308MOL    H3249766   6.839   4.554   3.381  0.6487  1.8612 -0.6988
  308MOL    H3349767   6.961   4.423   3.407  0.9018  0.2638  0.6854
  308MOL    C3449768   6.729   4.329   3.271 -0.1827  0.6596 -0.4139
  308MOL    C3549769   6.604   4.375   3.195 -0.0597 -0.4079  0.2249
  308MOL    C3649770   6.567   4.284   3.075 -0.1173 -0.1920 -0.3793
  308MOL    O3749771   6.580   4.157   3.085  0.6513  0.2716  0.3182
  308MOL    H3849772   6.721   4.336   3.379 -1.0552  0.5407 -0.4671
  308MOL    H3949773   6.753   4.229   3.234 -0.4518  0.8840 -1.2159
  308MOL    H4049774   6.618   4.478   3.164  0.2891 -0.9873 -1.6267
  308MOL    H4149775   6.513   4.384   3.254 -0.3242 -0.1248 -0.2182
  308MOL    C4249776   6.516   4.347   2.953 -0.2772  0.3197  0.0462
  308MOL    C4349777   6.608   4.340   2.839  0.0924 -0.6994  0.3143
  308MOL    C4449778   6.697   4.462   2.832 -0.2303  0.4650  0.8355
  308MOL    O4549779   6.708   4.547   2.915 -0.5605 -0.0520 -0.2087
  308MOL    H4649780   6.488   4.450   2.975 -1.6476 -0.1890  0.7696
  308MOL    H4749781   6.425   4.289   2.933 -0.8150  1.1713  0.0056
  308MOL    H4849782   6.557   4.329   2.743 -0.4927  0.6379  0.4570
  308MOL    H4949783   6.674   4.254   2.830  1.3452  0.3851 -1.4400
  308MOL    C5049784   6.774   4.480   2.701 -0.9152 -0.0461 -0.3320
  308MOL    C5149785   6.926   4.466   2.720  0.2094  0.0524 -0.5959
  308MOL    C5249786   7.030   4.546   2.639 -0.1509 -0.3813  0.7747
  308MOL    O5349787   6.991   4.624   2.550 -0.7314  0.5053 -0.0580
  308MOL    H5449788   6.753   4.575   2.651  0.8001  0.4896 -0.0402
  308MOL    H5549789   6.738   4.405   2.630  0.7956 -1.5944  0.4123
  308MOL    H5649790   6.969   4.366   2.724  3.4571  1.3221 -2.2156
  308MOL    H5749791   6.944   4.497   2.823  2.2823 -1.1617 -0.5554
  308MOL    C5849792   7.169   4.504   2.663 -0.0780  0.1840  0.0157
  308MOL    C5949793   7.270   4.629   2.661  0.5292  0.3316 -0.7977
  308MOL    C6049794   7.373   4.626   2.776 -0.0543 -0.0756  0.0960
  308MOL    O6149795   7.348   4.582   2.891  0.3143  0.3678 -0.3332
  308MOL    H6249796   7.188   4.426   2.588 -0.6991 -1.7677  1.8259
  308MOL    H6349797   7.176   4.462   2.763  2.0687  0.6293  0.0866
  308MOL    H6449798   7.220   4.724   2.675  2.2965  0.8664  2.4069
  308MOL    H6549799   7.322   4.631   2.565  0.2479  1.7015 -0.9294
  308MOL    C6649800   7.502   4.701   2.749 -0.1769 -0.2824  0.0698
  308MOL    C6749801   7.613   4.647   2.834 -0.4970 -0.5192 -0.0093
  308MOL    C6849802   7.650   4.745   2.956  0.2557  1.2588 -0.1370
  308MOL    O6949803   7.685   4.862   2.942 -0.1050 -0.1056  0.1253
  308MOL    H7049804   7.478   4.804   2.777 -1.0782 -0.7035  0.8810
  308MOL    H7149805   7.523   4.704   2.642  0.0525  0.5891  0.1356
  308MOL    H7249806   7.706   4.622   2.783 -0.7395 -1.9218  0.2127
  308MOL    H7349807   7.588   4.550   2.878 -1.7139  0.6795  2.0282
  308MOL    C7449808   7.638   4.681   3.097  0.2929  0.5764 -0.0264
  308MOL    C7549809   7.697   4.763   3.214  0.0997  0.5702  0.1081
  308MOL    C7649810   7.791   4.691   3.310 -0.5304 -0.3711  0.1543
  308MOL    O7749811   7.825   4.573   3.286 -0.2040  0.1449 -0.1921
  308MOL    H7849812   7.671   4.577   3.096  0.7034  0.6359  2.2665
  308MOL    H7949813   7.530   4.685   3.105  0.1895  1.4540 -1.7680
  308MOL    H8049814   7.607   4.787   3.271  2.0585  2.7215  2.4328
  308MOL    H8149815   7.745   4.853   3.177  0.4956  1.1271  1.9174
  308MOL    C8249816   7.834   4.758   3.437 -0.2641 -0.5914  0.5023
  308MOL    C8349817   7.710   4.783   3.528 -0.1331 -0.1799  0.3330
  308MOL    C8449818   7.724   4.744   3.672 -1.0035  0.0238  0.5059
  308MOL    O8549819   7.722   4.620   3.695 -0.0569  0.0854  0.0784
  308MOL    H8649820   0.020   4.855   3.417 -1.2411  0.0081  1.1977
  308MOL    H8749821   0.044   4.683   3.475 -0.7249 -0.8794  0.7758
  308MOL    H8849822   7.631   4.719   3.490 -0.5278  1.0349 -0.9197
  308MOL    H8949823   7.676   4.885   3.511  1.1073  0.3264  0.8442
  308MOL    C9049824   7.792   4.842   3.771  0.4392  0.2947  0.5143
  308MOL    C9149825   7.821   4.764   3.900  0.0037 -0.4352 -0.1623
  308MOL    C9249826   0.096   4.692   3.908 -0.2529 -0.2594  0.1419
  308MOL    O9349827   0.184   4.718   3.826 -0.2162  0.9394  0.8534
  308MOL    H9449828   7.718   4.922   3.777  0.4468  0.4856 -1.3416
  308MOL    H9549829   0.027   4.885   3.734 -0.9243  2.0399 -1.0748
  308MOL    H9649830   7.742   4.691   3.918 -0.6026 -0.2135 -1.8276
  308MOL    H9749831   7.821   4.837   3.981 -1.7657 -1.3201  0.6694
  308MOL    C9849832   0.125   4.597   4.025  0.2256 -0.0211 -0.0213
  308MOL    C9949833   0.125   4.449   3.982  0.4186 -0.1330 -0.1735
  308MOL   C10049834   0.266   4.390   3.976 -0.3135  0.0274 -0.6208
  308MOL   O10149835   0.302   4.307   4.061  0.2776 -0.0501 -0.4314
  308MOL   H10249836   0.051   4.597   4.104  1.3719 -0.9542  1.0809
  308MOL   H10349837   0.219   4.631   4.069  0.7045  0.7925 -1.6355
  308MOL   H10449838   0.063   4.446   3.892 -0.0555 -0.1404  0.1539
  308MOL   H10549839   0.067   4.391   4.054  0.6357  0.3250  0.3687
  308MOL   C10649840   0.345   4.420   3.851  0.0815 -0.0476 -0.0575
  308MOL   C10749841   0.463   4.316   3.829 -0.1520  0.2008  0.2055
  308MOL   C10849842   0.523   4.311   3.693  0.1526  0.4343  0.4208
  308MOL   O10949843   0.487   4.403   3.612  0.5000  0.0369 -0.2297
  308MOL   H11049844   0.386   4.521   3.861  1.6294 -0.8336  1.7661
  308MOL   H11149845   0.278   4.422   3.765  0.6806 -3.9866 -0.6892
  308MOL   H11249846   0.417   4.218   3.844  1.0927 -0.4402 -0.1195
  308MOL   H11349847   0.545   4.328   3.900 -1.5968  3.5348  1.3915
  308MOL   C11449848   0.616   4.202   3.657  0.4131 -0.1071 -0.4825
  308MOL   C11549849   0.761   4.241   3.670 -0.1980 -0.1337 -0.2780
  308MOL   C11649850   0.843   4.128   3.733 -0.0388  0.5834  0.1024
  308MOL   O11749851   0.797   4.047   3.813  0.1474 -0.3353 -0.0673
  308MOL   H11849852   0.597   4.179   3.552 -0.8107 -0.5730 -0.1661
  308MOL   H11949853   0.595   4.112   3.715  0.0703  0.3639  0.1261
  308MOL   H12049854   0.762   4.329   3.735 -0.0344  0.4126 -1.0100
  308MOL   H12149855   0.806   4.267   3.575 -0.4267 -1.5241 -0.7674
  308MOL   C12249856   0.990   4.116   3.688  0.4532 -0.0890 -0.4903
  308MOL   C12349857   1.001   4.042   3.561 -0.8529  0.3356  0.4883
  308MOL   C12449858   0.919   3.912   3.530 -0.1947  0.6549  0.1747
  308MOL   O12549859   0.799   3.920   3.494 -0.5823 -0.4589 -0.2606
  308MOL   H12649860   1.039   4.061   3.768  0.6620 -0.2338 -0.7177
  308MOL   H12749861   1.019   4.221   3.698 -0.9931  0.1583  1.5115
  308MOL   H12849862   1.099   3.996   3.564 -0.7716  0.6076  3.5310
  308MOL   H12949863   0.996   4.107   3.473  0.5592 -0.4924 -0.2080
  308MOL   C13049864   0.990   3.773   3.533  0.0498  0.5194 -0.2145
  308MOL   C13149865   0.939   3.683   3.419  0.3250 -0.4514 -1.0411
  308MOL   C13249866   0.811   3.612   3.466 -0.7491  0.2633 -0.2427
  308MOL   O13349867   0.785   3.578   3.581 -0.3435  0.0767 -0.5078
  308MOL   H13449868   0.983   3.737   3.636 -2.5807  1.9537  0.1299
  308MOL   H13549869   1.096   3.787   3.513 -0.2133 -0.8702 -2.7052
  308MOL   H13649870   1.013   3.605   3.402  0.6557 -0.8583  1.9795
  308MOL   H13749871   0.918   3.750   3.335  1.8598 -0.1820 -1.2164
  308MOL   C13849872   0.724   3.568   3.346 -0.1207  0.2721 -0.0218
  308MOL   C13949873   0.582   3.631   3.326  0.6330  0.3433  0.2705
  308MOL   C14049874   0.590   3.774   3.286  0.1258  0.4325 -0.4677
  308MOL   O14149875   0.685   3.812   3.222  0.0698  0.4832  0.0363
  308MOL   H14249876   0.722   3.463   3.376  0.6716  0.9955  2.7365
  308MOL   H14349877   0.789   3.577   3.259  0.2875 -1.2698  0.1039
  308MOL   H14449878   0.519   3.620   3.415  2.2398  3.4137  1.8532
  308MOL   H14549879   0.534   3.571   3.249  1.6889  1.1218 -1.0123
  308MOL   C14649880   0.466   3.862   3.315  0.0192 -0.2050  0.2978
  308MOL   C14749881   0.461   3.928   3.449 -0.3675  0.3231 -1.1350
  308MOL   C14849882   0.377   3.854   3.553 -0.0413 -0.2790 -0.0453
  308MOL   O14949883   0.318   3.746   3.523  0.1980  0.1724 -0.4140
  308MOL   H15049884   0.382   3.797   3.290  0.2658 -0.2917 -0.3072
  308MOL   H15149885   0.447   3.939   3.241 -0.5843 -1.2078 -0.6183
  308MOL   H15249886   0.439   4.034   3.441 -0.7893  0.4946  1.8032
  308MOL   H15349887   0.567   3.929   3.477 -0.7599  1.7701  0.3823
  308MOL   C15449888   0.359   3.916   3.689  0.2238 -0.2653 -0.4538
  308MOL   C15549889   0.493   3.890   3.769  0.2179  0.1987  0.1614
  308MOL   C15649890   0.497   3.762   3.847 -0.1749  0.5018 -0.2824
  308MOL   O15749891   0.396   3.710   3.888  0.2316 -0.0434 -0.0393
  308MOL   H15849892   0.273   3.875   3.742  1.5483 -2.0917  0.3222
  308MOL   H15949893   0.350   4.024   3.681  0.7274 -0.1911 -0.0296
  308MOL   H16049894   0.499   3.969   3.844  2.2945 -1.4262  1.7553
  308MOL   H16149895   0.582   3.896   3.706 -0.5884 -0.8080 -1.0818
  308MOL   H16249896   0.599   3.724   3.857  1.3504  3.5119 -3.1608
   7.85897   7.85897   7.85897
