;
; Gromacs include topology (itp) file.
; For Molecular Group XYZ
; Force field scheme: opls2005
; Produced from DL_FIELD v4.11
;


[ moleculetype ]
; name    nrexcl
XYZ    3

[ atoms ]
; nr   type   resnr   residu    atom    cgnr    charge    mass
    1        CT    1  MOL      C1     1  -0.1800000   12.0115
    2        CT    1  MOL      C2     2  -0.1200000   12.0115
    3       CO4    1  MOL      C3     3   0.4700000   12.0115
    4         O    1  MOL      O4     4  -0.4700000   15.9994
    5        HC    1  MOL      H5     5   0.0600000    1.0080
    6        HC    1  MOL      H6     6   0.0600000    1.0080
    7       HAE    1  MOL      H7     7   0.0600000    1.0080
    8       HAE    1  MOL      H8     8   0.0600000    1.0080
    9        HC    1  MOL      H9     9   0.0600000    1.0080
   10        CT    1  MOL     C10    10  -0.1200000   12.0115
   11        CT    1  MOL     C11    11  -0.1200000   12.0115
   12       CO4    1  MOL     C12    12   0.4700000   12.0115
   13         O    1  MOL     O13    13  -0.4700000   15.9994
   14       HAE    1  MOL     H14    14   0.0600000    1.0080
   15       HAE    1  MOL     H15    15   0.0600000    1.0080
   16       HAE    1  MOL     H16    16   0.0600000    1.0080
   17       HAE    1  MOL     H17    17   0.0600000    1.0080
   18        CT    1  MOL     C18    18  -0.1200000   12.0115
   19        CT    1  MOL     C19    19  -0.1200000   12.0115
   20       CO4    1  MOL     C20    20   0.4700000   12.0115
   21         O    1  MOL     O21    21  -0.4700000   15.9994
   22       HAE    1  MOL     H22    22   0.0600000    1.0080
   23       HAE    1  MOL     H23    23   0.0600000    1.0080
   24       HAE    1  MOL     H24    24   0.0600000    1.0080
   25       HAE    1  MOL     H25    25   0.0600000    1.0080
   26        CT    1  MOL     C26    26  -0.1200000   12.0115
   27        CT    1  MOL     C27    27  -0.1200000   12.0115
   28       CO4    1  MOL     C28    28   0.4700000   12.0115
   29         O    1  MOL     O29    29  -0.4700000   15.9994
   30       HAE    1  MOL     H30    30   0.0600000    1.0080
   31       HAE    1  MOL     H31    31   0.0600000    1.0080
   32       HAE    1  MOL     H32    32   0.0600000    1.0080
   33       HAE    1  MOL     H33    33   0.0600000    1.0080
   34        CT    1  MOL     C34    34  -0.1200000   12.0115
   35        CT    1  MOL     C35    35  -0.1200000   12.0115
   36       CO4    1  MOL     C36    36   0.4700000   12.0115
   37         O    1  MOL     O37    37  -0.4700000   15.9994
   38       HAE    1  MOL     H38    38   0.0600000    1.0080
   39       HAE    1  MOL     H39    39   0.0600000    1.0080
   40       HAE    1  MOL     H40    40   0.0600000    1.0080
   41       HAE    1  MOL     H41    41   0.0600000    1.0080
   42        CT    1  MOL     C42    42  -0.1200000   12.0115
   43        CT    1  MOL     C43    43  -0.1200000   12.0115
   44       CO4    1  MOL     C44    44   0.4700000   12.0115
   45         O    1  MOL     O45    45  -0.4700000   15.9994
   46       HAE    1  MOL     H46    46   0.0600000    1.0080
   47       HAE    1  MOL     H47    47   0.0600000    1.0080
   48       HAE    1  MOL     H48    48   0.0600000    1.0080
   49       HAE    1  MOL     H49    49   0.0600000    1.0080
   50        CT    1  MOL     C50    50  -0.1200000   12.0115
   51        CT    1  MOL     C51    51  -0.1200000   12.0115
   52       CO4    1  MOL     C52    52   0.4700000   12.0115
   53         O    1  MOL     O53    53  -0.4700000   15.9994
   54       HAE    1  MOL     H54    54   0.0600000    1.0080
   55       HAE    1  MOL     H55    55   0.0600000    1.0080
   56       HAE    1  MOL     H56    56   0.0600000    1.0080
   57       HAE    1  MOL     H57    57   0.0600000    1.0080
   58        CT    1  MOL     C58    58  -0.1200000   12.0115
   59        CT    1  MOL     C59    59  -0.1200000   12.0115
   60       CO4    1  MOL     C60    60   0.4700000   12.0115
   61         O    1  MOL     O61    61  -0.4700000   15.9994
   62       HAE    1  MOL     H62    62   0.0600000    1.0080
   63       HAE    1  MOL     H63    63   0.0600000    1.0080
   64       HAE    1  MOL     H64    64   0.0600000    1.0080
   65       HAE    1  MOL     H65    65   0.0600000    1.0080
   66        CT    1  MOL     C66    66  -0.1200000   12.0115
   67        CT    1  MOL     C67    67  -0.1200000   12.0115
   68       CO4    1  MOL     C68    68   0.4700000   12.0115
   69         O    1  MOL     O69    69  -0.4700000   15.9994
   70       HAE    1  MOL     H70    70   0.0600000    1.0080
   71       HAE    1  MOL     H71    71   0.0600000    1.0080
   72       HAE    1  MOL     H72    72   0.0600000    1.0080
   73       HAE    1  MOL     H73    73   0.0600000    1.0080
   74        CT    1  MOL     C74    74  -0.1200000   12.0115
   75        CT    1  MOL     C75    75  -0.1200000   12.0115
   76       CO4    1  MOL     C76    76   0.4700000   12.0115
   77         O    1  MOL     O77    77  -0.4700000   15.9994
   78       HAE    1  MOL     H78    78   0.0600000    1.0080
   79       HAE    1  MOL     H79    79   0.0600000    1.0080
   80       HAE    1  MOL     H80    80   0.0600000    1.0080
   81       HAE    1  MOL     H81    81   0.0600000    1.0080
   82        CT    1  MOL     C82    82  -0.1200000   12.0115
   83        CT    1  MOL     C83    83  -0.1200000   12.0115
   84       CO4    1  MOL     C84    84   0.4700000   12.0115
   85         O    1  MOL     O85    85  -0.4700000   15.9994
   86       HAE    1  MOL     H86    86   0.0600000    1.0080
   87       HAE    1  MOL     H87    87   0.0600000    1.0080
   88       HAE    1  MOL     H88    88   0.0600000    1.0080
   89       HAE    1  MOL     H89    89   0.0600000    1.0080
   90        CT    1  MOL     C90    90  -0.1200000   12.0115
   91        CT    1  MOL     C91    91  -0.1200000   12.0115
   92       CO4    1  MOL     C92    92   0.4700000   12.0115
   93         O    1  MOL     O93    93  -0.4700000   15.9994
   94       HAE    1  MOL     H94    94   0.0600000    1.0080
   95       HAE    1  MOL     H95    95   0.0600000    1.0080
   96       HAE    1  MOL     H96    96   0.0600000    1.0080
   97       HAE    1  MOL     H97    97   0.0600000    1.0080
   98        CT    1  MOL     C98    98  -0.1200000   12.0115
   99        CT    1  MOL     C99    99  -0.1200000   12.0115
  100       CO4    1  MOL    C100   100   0.4700000   12.0115
  101         O    1  MOL    O101   101  -0.4700000   15.9994
  102       HAE    1  MOL    H102   102   0.0600000    1.0080
  103       HAE    1  MOL    H103   103   0.0600000    1.0080
  104       HAE    1  MOL    H104   104   0.0600000    1.0080
  105       HAE    1  MOL    H105   105   0.0600000    1.0080
  106        CT    1  MOL    C106   106  -0.1200000   12.0115
  107        CT    1  MOL    C107   107  -0.1200000   12.0115
  108       CO4    1  MOL    C108   108   0.4700000   12.0115
  109         O    1  MOL    O109   109  -0.4700000   15.9994
  110       HAE    1  MOL    H110   110   0.0600000    1.0080
  111       HAE    1  MOL    H111   111   0.0600000    1.0080
  112       HAE    1  MOL    H112   112   0.0600000    1.0080
  113       HAE    1  MOL    H113   113   0.0600000    1.0080
  114        CT    1  MOL    C114   114  -0.1200000   12.0115
  115        CT    1  MOL    C115   115  -0.1200000   12.0115
  116       CO4    1  MOL    C116   116   0.4700000   12.0115
  117         O    1  MOL    O117   117  -0.4700000   15.9994
  118       HAE    1  MOL    H118   118   0.0600000    1.0080
  119       HAE    1  MOL    H119   119   0.0600000    1.0080
  120       HAE    1  MOL    H120   120   0.0600000    1.0080
  121       HAE    1  MOL    H121   121   0.0600000    1.0080
  122        CT    1  MOL    C122   122  -0.1200000   12.0115
  123        CT    1  MOL    C123   123  -0.1200000   12.0115
  124       CO4    1  MOL    C124   124   0.4700000   12.0115
  125         O    1  MOL    O125   125  -0.4700000   15.9994
  126       HAE    1  MOL    H126   126   0.0600000    1.0080
  127       HAE    1  MOL    H127   127   0.0600000    1.0080
  128       HAE    1  MOL    H128   128   0.0600000    1.0080
  129       HAE    1  MOL    H129   129   0.0600000    1.0080
  130        CT    1  MOL    C130   130  -0.1200000   12.0115
  131        CT    1  MOL    C131   131  -0.1200000   12.0115
  132       CO4    1  MOL    C132   132   0.4700000   12.0115
  133         O    1  MOL    O133   133  -0.4700000   15.9994
  134       HAE    1  MOL    H134   134   0.0600000    1.0080
  135       HAE    1  MOL    H135   135   0.0600000    1.0080
  136       HAE    1  MOL    H136   136   0.0600000    1.0080
  137       HAE    1  MOL    H137   137   0.0600000    1.0080
  138        CT    1  MOL    C138   138  -0.1200000   12.0115
  139        CT    1  MOL    C139   139  -0.1200000   12.0115
  140       CO4    1  MOL    C140   140   0.4700000   12.0115
  141         O    1  MOL    O141   141  -0.4700000   15.9994
  142       HAE    1  MOL    H142   142   0.0600000    1.0080
  143       HAE    1  MOL    H143   143   0.0600000    1.0080
  144       HAE    1  MOL    H144   144   0.0600000    1.0080
  145       HAE    1  MOL    H145   145   0.0600000    1.0080
  146        CT    1  MOL    C146   146  -0.1200000   12.0115
  147        CT    1  MOL    C147   147  -0.1200000   12.0115
  148       CO4    1  MOL    C148   148   0.4700000   12.0115
  149         O    1  MOL    O149   149  -0.4700000   15.9994
  150       HAE    1  MOL    H150   150   0.0600000    1.0080
  151       HAE    1  MOL    H151   151   0.0600000    1.0080
  152       HAE    1  MOL    H152   152   0.0600000    1.0080
  153       HAE    1  MOL    H153   153   0.0600000    1.0080
  154        CT    1  MOL    C154   154  -0.1200000   12.0115
  155        CT    1  MOL    C155   155  -0.1200000   12.0115
  156       CO4    1  MOL    C156   156   0.4500000   12.0115
  157         O    1  MOL    O157   157  -0.4500000   15.9994
  158       HAE    1  MOL    H158   158   0.0600000    1.0080
  159       HAE    1  MOL    H159   159   0.0600000    1.0080
  160       HAE    1  MOL    H160   160   0.0600000    1.0080
  161       HAE    1  MOL    H161   161   0.0600000    1.0080
  162       HAE    1  MOL    H162   162   0.0000000    1.0080

[ bonds ]
      1      2   1      0.1529 224262.4000
      1      5   1      0.1090 284512.0000
      1      6   1      0.1090 284512.0000
      1      9   1      0.1090 284512.0000
      2      3   1      0.1522 265265.6000
      2      7   1      0.1090 284512.0000
      2      8   1      0.1090 284512.0000
      3      4   1      0.1229 476976.0000
      3     10   1      0.1522 265265.6000
     10     11   1      0.1529 224262.4000
     10     14   1      0.1090 284512.0000
     10     15   1      0.1090 284512.0000
     11     12   1      0.1522 265265.6000
     11     16   1      0.1090 284512.0000
     11     17   1      0.1090 284512.0000
     12     13   1      0.1229 476976.0000
     12     18   1      0.1522 265265.6000
     18     19   1      0.1529 224262.4000
     18     22   1      0.1090 284512.0000
     18     23   1      0.1090 284512.0000
     19     20   1      0.1522 265265.6000
     19     24   1      0.1090 284512.0000
     19     25   1      0.1090 284512.0000
     20     21   1      0.1229 476976.0000
     20     26   1      0.1522 265265.6000
     26     27   1      0.1529 224262.4000
     26     30   1      0.1090 284512.0000
     26     31   1      0.1090 284512.0000
     27     28   1      0.1522 265265.6000
     27     32   1      0.1090 284512.0000
     27     33   1      0.1090 284512.0000
     28     29   1      0.1229 476976.0000
     28     34   1      0.1522 265265.6000
     34     35   1      0.1529 224262.4000
     34     38   1      0.1090 284512.0000
     34     39   1      0.1090 284512.0000
     35     36   1      0.1522 265265.6000
     35     40   1      0.1090 284512.0000
     35     41   1      0.1090 284512.0000
     36     37   1      0.1229 476976.0000
     36     42   1      0.1522 265265.6000
     42     43   1      0.1529 224262.4000
     42     46   1      0.1090 284512.0000
     42     47   1      0.1090 284512.0000
     43     44   1      0.1522 265265.6000
     43     48   1      0.1090 284512.0000
     43     49   1      0.1090 284512.0000
     44     45   1      0.1229 476976.0000
     44     50   1      0.1522 265265.6000
     50     51   1      0.1529 224262.4000
     50     54   1      0.1090 284512.0000
     50     55   1      0.1090 284512.0000
     51     52   1      0.1522 265265.6000
     51     56   1      0.1090 284512.0000
     51     57   1      0.1090 284512.0000
     52     53   1      0.1229 476976.0000
     52     58   1      0.1522 265265.6000
     58     59   1      0.1529 224262.4000
     58     62   1      0.1090 284512.0000
     58     63   1      0.1090 284512.0000
     59     60   1      0.1522 265265.6000
     59     64   1      0.1090 284512.0000
     59     65   1      0.1090 284512.0000
     60     61   1      0.1229 476976.0000
     60     66   1      0.1522 265265.6000
     66     67   1      0.1529 224262.4000
     66     70   1      0.1090 284512.0000
     66     71   1      0.1090 284512.0000
     67     68   1      0.1522 265265.6000
     67     72   1      0.1090 284512.0000
     67     73   1      0.1090 284512.0000
     68     69   1      0.1229 476976.0000
     68     74   1      0.1522 265265.6000
     74     75   1      0.1529 224262.4000
     74     78   1      0.1090 284512.0000
     74     79   1      0.1090 284512.0000
     75     76   1      0.1522 265265.6000
     75     80   1      0.1090 284512.0000
     75     81   1      0.1090 284512.0000
     76     77   1      0.1229 476976.0000
     76     82   1      0.1522 265265.6000
     82     83   1      0.1529 224262.4000
     82     86   1      0.1090 284512.0000
     82     87   1      0.1090 284512.0000
     83     84   1      0.1522 265265.6000
     83     88   1      0.1090 284512.0000
     83     89   1      0.1090 284512.0000
     84     85   1      0.1229 476976.0000
     84     90   1      0.1522 265265.6000
     90     91   1      0.1529 224262.4000
     90     94   1      0.1090 284512.0000
     90     95   1      0.1090 284512.0000
     91     92   1      0.1522 265265.6000
     91     96   1      0.1090 284512.0000
     91     97   1      0.1090 284512.0000
     92     93   1      0.1229 476976.0000
     92     98   1      0.1522 265265.6000
     98     99   1      0.1529 224262.4000
     98    102   1      0.1090 284512.0000
     98    103   1      0.1090 284512.0000
     99    100   1      0.1522 265265.6000
     99    104   1      0.1090 284512.0000
     99    105   1      0.1090 284512.0000
    100    101   1      0.1229 476976.0000
    100    106   1      0.1522 265265.6000
    106    107   1      0.1529 224262.4000
    106    110   1      0.1090 284512.0000
    106    111   1      0.1090 284512.0000
    107    108   1      0.1522 265265.6000
    107    112   1      0.1090 284512.0000
    107    113   1      0.1090 284512.0000
    108    109   1      0.1229 476976.0000
    108    114   1      0.1522 265265.6000
    114    115   1      0.1529 224262.4000
    114    118   1      0.1090 284512.0000
    114    119   1      0.1090 284512.0000
    115    116   1      0.1522 265265.6000
    115    120   1      0.1090 284512.0000
    115    121   1      0.1090 284512.0000
    116    117   1      0.1229 476976.0000
    116    122   1      0.1522 265265.6000
    122    123   1      0.1529 224262.4000
    122    126   1      0.1090 284512.0000
    122    127   1      0.1090 284512.0000
    123    124   1      0.1522 265265.6000
    123    128   1      0.1090 284512.0000
    123    129   1      0.1090 284512.0000
    124    125   1      0.1229 476976.0000
    124    130   1      0.1522 265265.6000
    130    131   1      0.1529 224262.4000
    130    134   1      0.1090 284512.0000
    130    135   1      0.1090 284512.0000
    131    132   1      0.1522 265265.6000
    131    136   1      0.1090 284512.0000
    131    137   1      0.1090 284512.0000
    132    133   1      0.1229 476976.0000
    132    138   1      0.1522 265265.6000
    138    139   1      0.1529 224262.4000
    138    142   1      0.1090 284512.0000
    138    143   1      0.1090 284512.0000
    139    140   1      0.1522 265265.6000
    139    144   1      0.1090 284512.0000
    139    145   1      0.1090 284512.0000
    140    141   1      0.1229 476976.0000
    140    146   1      0.1522 265265.6000
    146    147   1      0.1529 224262.4000
    146    150   1      0.1090 284512.0000
    146    151   1      0.1090 284512.0000
    147    148   1      0.1522 265265.6000
    147    152   1      0.1090 284512.0000
    147    153   1      0.1090 284512.0000
    148    149   1      0.1229 476976.0000
    148    154   1      0.1522 265265.6000
    154    155   1      0.1529 224262.4000
    154    158   1      0.1090 284512.0000
    154    159   1      0.1090 284512.0000
    155    156   1      0.1522 265265.6000
    155    160   1      0.1090 284512.0000
    155    161   1      0.1090 284512.0000
    156    157   1      0.1229 476976.0000
    156    162   1      0.1090 284512.0000

[ pairs ]
; ai   aj   funct   fudge_QQ  charge_i   charge_j   c6    c12
      5      3   2   0.50000     0.0600000    0.4700000   3.869820e-04  3.188634e-07
      5      7   2   0.50000     0.0600000    0.0600000   3.930919e-05  8.704828e-09
      5      8   2   0.50000     0.0600000    0.0600000   3.930919e-05  8.704828e-09
      6      3   2   0.50000     0.0600000    0.4700000   3.869820e-04  3.188634e-07
      6      7   2   0.50000     0.0600000    0.0600000   3.930919e-05  8.704828e-09
      6      8   2   0.50000     0.0600000    0.0600000   3.930919e-05  8.704828e-09
      9      3   2   0.50000     0.0600000    0.4700000   3.869820e-04  3.188634e-07
      9      7   2   0.50000     0.0600000    0.0600000   3.930919e-05  8.704828e-09
      9      8   2   0.50000     0.0600000    0.0600000   3.930919e-05  8.704828e-09
      1      4   2   0.50000    -0.1800000   -0.4700000   1.095425e-03  1.218041e-06
      1     10   2   0.50000    -0.1800000   -0.1200000   1.015252e-03  1.866303e-06
      7      4   2   0.50000     0.0600000   -0.4700000   1.726228e-04  6.344822e-08
      7     10   2   0.50000     0.0600000   -0.1200000   1.599888e-04  9.721644e-08
      8      4   2   0.50000     0.0600000   -0.4700000   1.726228e-04  6.344822e-08
      8     10   2   0.50000     0.0600000   -0.1200000   1.599888e-04  9.721644e-08
      2     11   2   0.50000    -0.1200000   -0.1200000   1.015252e-03  1.866303e-06
      2     14   2   0.50000    -0.1200000    0.0600000   1.599888e-04  9.721644e-08
      2     15   2   0.50000    -0.1200000    0.0600000   1.599888e-04  9.721644e-08
      4     11   2   0.50000    -0.4700000   -0.1200000   1.095425e-03  1.218041e-06
      4     14   2   0.50000    -0.4700000    0.0600000   1.726228e-04  6.344822e-08
      4     15   2   0.50000    -0.4700000    0.0600000   1.726228e-04  6.344822e-08
      3     12   2   0.50000     0.4700000    0.4700000   2.443423e-03  6.794949e-06
      3     16   2   0.50000     0.4700000    0.0600000   2.482000e-04  1.854991e-07
      3     17   2   0.50000     0.4700000    0.0600000   2.482000e-04  1.854991e-07
     14     12   2   0.50000     0.0600000    0.4700000   2.482000e-04  1.854991e-07
     14     16   2   0.50000     0.0600000    0.0600000   2.521187e-05  5.064042e-09
     14     17   2   0.50000     0.0600000    0.0600000   2.521187e-05  5.064042e-09
     15     12   2   0.50000     0.0600000    0.4700000   2.482000e-04  1.854991e-07
     15     16   2   0.50000     0.0600000    0.0600000   2.521187e-05  5.064042e-09
     15     17   2   0.50000     0.0600000    0.0600000   2.521187e-05  5.064042e-09
     10     13   2   0.50000    -0.1200000   -0.4700000   1.095425e-03  1.218041e-06
     10     18   2   0.50000    -0.1200000   -0.1200000   1.015252e-03  1.866303e-06
     16     13   2   0.50000     0.0600000   -0.4700000   1.726228e-04  6.344822e-08
     16     18   2   0.50000     0.0600000   -0.1200000   1.599888e-04  9.721644e-08
     17     13   2   0.50000     0.0600000   -0.4700000   1.726228e-04  6.344822e-08
     17     18   2   0.50000     0.0600000   -0.1200000   1.599888e-04  9.721644e-08
     11     19   2   0.50000    -0.1200000   -0.1200000   1.015252e-03  1.866303e-06
     11     22   2   0.50000    -0.1200000    0.0600000   1.599888e-04  9.721644e-08
     11     23   2   0.50000    -0.1200000    0.0600000   1.599888e-04  9.721644e-08
     13     19   2   0.50000    -0.4700000   -0.1200000   1.095425e-03  1.218041e-06
     13     22   2   0.50000    -0.4700000    0.0600000   1.726228e-04  6.344822e-08
     13     23   2   0.50000    -0.4700000    0.0600000   1.726228e-04  6.344822e-08
     12     20   2   0.50000     0.4700000    0.4700000   2.443423e-03  6.794949e-06
     12     24   2   0.50000     0.4700000    0.0600000   2.482000e-04  1.854991e-07
     12     25   2   0.50000     0.4700000    0.0600000   2.482000e-04  1.854991e-07
     22     20   2   0.50000     0.0600000    0.4700000   2.482000e-04  1.854991e-07
     22     24   2   0.50000     0.0600000    0.0600000   2.521187e-05  5.064042e-09
     22     25   2   0.50000     0.0600000    0.0600000   2.521187e-05  5.064042e-09
     23     20   2   0.50000     0.0600000    0.4700000   2.482000e-04  1.854991e-07
     23     24   2   0.50000     0.0600000    0.0600000   2.521187e-05  5.064042e-09
     23     25   2   0.50000     0.0600000    0.0600000   2.521187e-05  5.064042e-09
     18     21   2   0.50000    -0.1200000   -0.4700000   1.095425e-03  1.218041e-06
     18     26   2   0.50000    -0.1200000   -0.1200000   1.015252e-03  1.866303e-06
     24     21   2   0.50000     0.0600000   -0.4700000   1.726228e-04  6.344822e-08
     24     26   2   0.50000     0.0600000   -0.1200000   1.599888e-04  9.721644e-08
     25     21   2   0.50000     0.0600000   -0.4700000   1.726228e-04  6.344822e-08
     25     26   2   0.50000     0.0600000   -0.1200000   1.599888e-04  9.721644e-08
     19     27   2   0.50000    -0.1200000   -0.1200000   1.015252e-03  1.866303e-06
     19     30   2   0.50000    -0.1200000    0.0600000   1.599888e-04  9.721644e-08
     19     31   2   0.50000    -0.1200000    0.0600000   1.599888e-04  9.721644e-08
     21     27   2   0.50000    -0.4700000   -0.1200000   1.095425e-03  1.218041e-06
     21     30   2   0.50000    -0.4700000    0.0600000   1.726228e-04  6.344822e-08
     21     31   2   0.50000    -0.4700000    0.0600000   1.726228e-04  6.344822e-08
     20     28   2   0.50000     0.4700000    0.4700000   2.443423e-03  6.794949e-06
     20     32   2   0.50000     0.4700000    0.0600000   2.482000e-04  1.854991e-07
     20     33   2   0.50000     0.4700000    0.0600000   2.482000e-04  1.854991e-07
     30     28   2   0.50000     0.0600000    0.4700000   2.482000e-04  1.854991e-07
     30     32   2   0.50000     0.0600000    0.0600000   2.521187e-05  5.064042e-09
     30     33   2   0.50000     0.0600000    0.0600000   2.521187e-05  5.064042e-09
     31     28   2   0.50000     0.0600000    0.4700000   2.482000e-04  1.854991e-07
     31     32   2   0.50000     0.0600000    0.0600000   2.521187e-05  5.064042e-09
     31     33   2   0.50000     0.0600000    0.0600000   2.521187e-05  5.064042e-09
     26     29   2   0.50000    -0.1200000   -0.4700000   1.095425e-03  1.218041e-06
     26     34   2   0.50000    -0.1200000   -0.1200000   1.015252e-03  1.866303e-06
     32     29   2   0.50000     0.0600000   -0.4700000   1.726228e-04  6.344822e-08
     32     34   2   0.50000     0.0600000   -0.1200000   1.599888e-04  9.721644e-08
     33     29   2   0.50000     0.0600000   -0.4700000   1.726228e-04  6.344822e-08
     33     34   2   0.50000     0.0600000   -0.1200000   1.599888e-04  9.721644e-08
     27     35   2   0.50000    -0.1200000   -0.1200000   1.015252e-03  1.866303e-06
     27     38   2   0.50000    -0.1200000    0.0600000   1.599888e-04  9.721644e-08
     27     39   2   0.50000    -0.1200000    0.0600000   1.599888e-04  9.721644e-08
     29     35   2   0.50000    -0.4700000   -0.1200000   1.095425e-03  1.218041e-06
     29     38   2   0.50000    -0.4700000    0.0600000   1.726228e-04  6.344822e-08
     29     39   2   0.50000    -0.4700000    0.0600000   1.726228e-04  6.344822e-08
     28     36   2   0.50000     0.4700000    0.4700000   2.443423e-03  6.794949e-06
     28     40   2   0.50000     0.4700000    0.0600000   2.482000e-04  1.854991e-07
     28     41   2   0.50000     0.4700000    0.0600000   2.482000e-04  1.854991e-07
     38     36   2   0.50000     0.0600000    0.4700000   2.482000e-04  1.854991e-07
     38     40   2   0.50000     0.0600000    0.0600000   2.521187e-05  5.064042e-09
     38     41   2   0.50000     0.0600000    0.0600000   2.521187e-05  5.064042e-09
     39     36   2   0.50000     0.0600000    0.4700000   2.482000e-04  1.854991e-07
     39     40   2   0.50000     0.0600000    0.0600000   2.521187e-05  5.064042e-09
     39     41   2   0.50000     0.0600000    0.0600000   2.521187e-05  5.064042e-09
     34     37   2   0.50000    -0.1200000   -0.4700000   1.095425e-03  1.218041e-06
     34     42   2   0.50000    -0.1200000   -0.1200000   1.015252e-03  1.866303e-06
     40     37   2   0.50000     0.0600000   -0.4700000   1.726228e-04  6.344822e-08
     40     42   2   0.50000     0.0600000   -0.1200000   1.599888e-04  9.721644e-08
     41     37   2   0.50000     0.0600000   -0.4700000   1.726228e-04  6.344822e-08
     41     42   2   0.50000     0.0600000   -0.1200000   1.599888e-04  9.721644e-08
     35     43   2   0.50000    -0.1200000   -0.1200000   1.015252e-03  1.866303e-06
     35     46   2   0.50000    -0.1200000    0.0600000   1.599888e-04  9.721644e-08
     35     47   2   0.50000    -0.1200000    0.0600000   1.599888e-04  9.721644e-08
     37     43   2   0.50000    -0.4700000   -0.1200000   1.095425e-03  1.218041e-06
     37     46   2   0.50000    -0.4700000    0.0600000   1.726228e-04  6.344822e-08
     37     47   2   0.50000    -0.4700000    0.0600000   1.726228e-04  6.344822e-08
     36     44   2   0.50000     0.4700000    0.4700000   2.443423e-03  6.794949e-06
     36     48   2   0.50000     0.4700000    0.0600000   2.482000e-04  1.854991e-07
     36     49   2   0.50000     0.4700000    0.0600000   2.482000e-04  1.854991e-07
     46     44   2   0.50000     0.0600000    0.4700000   2.482000e-04  1.854991e-07
     46     48   2   0.50000     0.0600000    0.0600000   2.521187e-05  5.064042e-09
     46     49   2   0.50000     0.0600000    0.0600000   2.521187e-05  5.064042e-09
     47     44   2   0.50000     0.0600000    0.4700000   2.482000e-04  1.854991e-07
     47     48   2   0.50000     0.0600000    0.0600000   2.521187e-05  5.064042e-09
     47     49   2   0.50000     0.0600000    0.0600000   2.521187e-05  5.064042e-09
     42     45   2   0.50000    -0.1200000   -0.4700000   1.095425e-03  1.218041e-06
     42     50   2   0.50000    -0.1200000   -0.1200000   1.015252e-03  1.866303e-06
     48     45   2   0.50000     0.0600000   -0.4700000   1.726228e-04  6.344822e-08
     48     50   2   0.50000     0.0600000   -0.1200000   1.599888e-04  9.721644e-08
     49     45   2   0.50000     0.0600000   -0.4700000   1.726228e-04  6.344822e-08
     49     50   2   0.50000     0.0600000   -0.1200000   1.599888e-04  9.721644e-08
     43     51   2   0.50000    -0.1200000   -0.1200000   1.015252e-03  1.866303e-06
     43     54   2   0.50000    -0.1200000    0.0600000   1.599888e-04  9.721644e-08
     43     55   2   0.50000    -0.1200000    0.0600000   1.599888e-04  9.721644e-08
     45     51   2   0.50000    -0.4700000   -0.1200000   1.095425e-03  1.218041e-06
     45     54   2   0.50000    -0.4700000    0.0600000   1.726228e-04  6.344822e-08
     45     55   2   0.50000    -0.4700000    0.0600000   1.726228e-04  6.344822e-08
     44     52   2   0.50000     0.4700000    0.4700000   2.443423e-03  6.794949e-06
     44     56   2   0.50000     0.4700000    0.0600000   2.482000e-04  1.854991e-07
     44     57   2   0.50000     0.4700000    0.0600000   2.482000e-04  1.854991e-07
     54     52   2   0.50000     0.0600000    0.4700000   2.482000e-04  1.854991e-07
     54     56   2   0.50000     0.0600000    0.0600000   2.521187e-05  5.064042e-09
     54     57   2   0.50000     0.0600000    0.0600000   2.521187e-05  5.064042e-09
     55     52   2   0.50000     0.0600000    0.4700000   2.482000e-04  1.854991e-07
     55     56   2   0.50000     0.0600000    0.0600000   2.521187e-05  5.064042e-09
     55     57   2   0.50000     0.0600000    0.0600000   2.521187e-05  5.064042e-09
     50     53   2   0.50000    -0.1200000   -0.4700000   1.095425e-03  1.218041e-06
     50     58   2   0.50000    -0.1200000   -0.1200000   1.015252e-03  1.866303e-06
     56     53   2   0.50000     0.0600000   -0.4700000   1.726228e-04  6.344822e-08
     56     58   2   0.50000     0.0600000   -0.1200000   1.599888e-04  9.721644e-08
     57     53   2   0.50000     0.0600000   -0.4700000   1.726228e-04  6.344822e-08
     57     58   2   0.50000     0.0600000   -0.1200000   1.599888e-04  9.721644e-08
     51     59   2   0.50000    -0.1200000   -0.1200000   1.015252e-03  1.866303e-06
     51     62   2   0.50000    -0.1200000    0.0600000   1.599888e-04  9.721644e-08
     51     63   2   0.50000    -0.1200000    0.0600000   1.599888e-04  9.721644e-08
     53     59   2   0.50000    -0.4700000   -0.1200000   1.095425e-03  1.218041e-06
     53     62   2   0.50000    -0.4700000    0.0600000   1.726228e-04  6.344822e-08
     53     63   2   0.50000    -0.4700000    0.0600000   1.726228e-04  6.344822e-08
     52     60   2   0.50000     0.4700000    0.4700000   2.443423e-03  6.794949e-06
     52     64   2   0.50000     0.4700000    0.0600000   2.482000e-04  1.854991e-07
     52     65   2   0.50000     0.4700000    0.0600000   2.482000e-04  1.854991e-07
     62     60   2   0.50000     0.0600000    0.4700000   2.482000e-04  1.854991e-07
     62     64   2   0.50000     0.0600000    0.0600000   2.521187e-05  5.064042e-09
     62     65   2   0.50000     0.0600000    0.0600000   2.521187e-05  5.064042e-09
     63     60   2   0.50000     0.0600000    0.4700000   2.482000e-04  1.854991e-07
     63     64   2   0.50000     0.0600000    0.0600000   2.521187e-05  5.064042e-09
     63     65   2   0.50000     0.0600000    0.0600000   2.521187e-05  5.064042e-09
     58     61   2   0.50000    -0.1200000   -0.4700000   1.095425e-03  1.218041e-06
     58     66   2   0.50000    -0.1200000   -0.1200000   1.015252e-03  1.866303e-06
     64     61   2   0.50000     0.0600000   -0.4700000   1.726228e-04  6.344822e-08
     64     66   2   0.50000     0.0600000   -0.1200000   1.599888e-04  9.721644e-08
     65     61   2   0.50000     0.0600000   -0.4700000   1.726228e-04  6.344822e-08
     65     66   2   0.50000     0.0600000   -0.1200000   1.599888e-04  9.721644e-08
     59     67   2   0.50000    -0.1200000   -0.1200000   1.015252e-03  1.866303e-06
     59     70   2   0.50000    -0.1200000    0.0600000   1.599888e-04  9.721644e-08
     59     71   2   0.50000    -0.1200000    0.0600000   1.599888e-04  9.721644e-08
     61     67   2   0.50000    -0.4700000   -0.1200000   1.095425e-03  1.218041e-06
     61     70   2   0.50000    -0.4700000    0.0600000   1.726228e-04  6.344822e-08
     61     71   2   0.50000    -0.4700000    0.0600000   1.726228e-04  6.344822e-08
     60     68   2   0.50000     0.4700000    0.4700000   2.443423e-03  6.794949e-06
     60     72   2   0.50000     0.4700000    0.0600000   2.482000e-04  1.854991e-07
     60     73   2   0.50000     0.4700000    0.0600000   2.482000e-04  1.854991e-07
     70     68   2   0.50000     0.0600000    0.4700000   2.482000e-04  1.854991e-07
     70     72   2   0.50000     0.0600000    0.0600000   2.521187e-05  5.064042e-09
     70     73   2   0.50000     0.0600000    0.0600000   2.521187e-05  5.064042e-09
     71     68   2   0.50000     0.0600000    0.4700000   2.482000e-04  1.854991e-07
     71     72   2   0.50000     0.0600000    0.0600000   2.521187e-05  5.064042e-09
     71     73   2   0.50000     0.0600000    0.0600000   2.521187e-05  5.064042e-09
     66     69   2   0.50000    -0.1200000   -0.4700000   1.095425e-03  1.218041e-06
     66     74   2   0.50000    -0.1200000   -0.1200000   1.015252e-03  1.866303e-06
     72     69   2   0.50000     0.0600000   -0.4700000   1.726228e-04  6.344822e-08
     72     74   2   0.50000     0.0600000   -0.1200000   1.599888e-04  9.721644e-08
     73     69   2   0.50000     0.0600000   -0.4700000   1.726228e-04  6.344822e-08
     73     74   2   0.50000     0.0600000   -0.1200000   1.599888e-04  9.721644e-08
     67     75   2   0.50000    -0.1200000   -0.1200000   1.015252e-03  1.866303e-06
     67     78   2   0.50000    -0.1200000    0.0600000   1.599888e-04  9.721644e-08
     67     79   2   0.50000    -0.1200000    0.0600000   1.599888e-04  9.721644e-08
     69     75   2   0.50000    -0.4700000   -0.1200000   1.095425e-03  1.218041e-06
     69     78   2   0.50000    -0.4700000    0.0600000   1.726228e-04  6.344822e-08
     69     79   2   0.50000    -0.4700000    0.0600000   1.726228e-04  6.344822e-08
     68     76   2   0.50000     0.4700000    0.4700000   2.443423e-03  6.794949e-06
     68     80   2   0.50000     0.4700000    0.0600000   2.482000e-04  1.854991e-07
     68     81   2   0.50000     0.4700000    0.0600000   2.482000e-04  1.854991e-07
     78     76   2   0.50000     0.0600000    0.4700000   2.482000e-04  1.854991e-07
     78     80   2   0.50000     0.0600000    0.0600000   2.521187e-05  5.064042e-09
     78     81   2   0.50000     0.0600000    0.0600000   2.521187e-05  5.064042e-09
     79     76   2   0.50000     0.0600000    0.4700000   2.482000e-04  1.854991e-07
     79     80   2   0.50000     0.0600000    0.0600000   2.521187e-05  5.064042e-09
     79     81   2   0.50000     0.0600000    0.0600000   2.521187e-05  5.064042e-09
     74     77   2   0.50000    -0.1200000   -0.4700000   1.095425e-03  1.218041e-06
     74     82   2   0.50000    -0.1200000   -0.1200000   1.015252e-03  1.866303e-06
     80     77   2   0.50000     0.0600000   -0.4700000   1.726228e-04  6.344822e-08
     80     82   2   0.50000     0.0600000   -0.1200000   1.599888e-04  9.721644e-08
     81     77   2   0.50000     0.0600000   -0.4700000   1.726228e-04  6.344822e-08
     81     82   2   0.50000     0.0600000   -0.1200000   1.599888e-04  9.721644e-08
     75     83   2   0.50000    -0.1200000   -0.1200000   1.015252e-03  1.866303e-06
     75     86   2   0.50000    -0.1200000    0.0600000   1.599888e-04  9.721644e-08
     75     87   2   0.50000    -0.1200000    0.0600000   1.599888e-04  9.721644e-08
     77     83   2   0.50000    -0.4700000   -0.1200000   1.095425e-03  1.218041e-06
     77     86   2   0.50000    -0.4700000    0.0600000   1.726228e-04  6.344822e-08
     77     87   2   0.50000    -0.4700000    0.0600000   1.726228e-04  6.344822e-08
     76     84   2   0.50000     0.4700000    0.4700000   2.443423e-03  6.794949e-06
     76     88   2   0.50000     0.4700000    0.0600000   2.482000e-04  1.854991e-07
     76     89   2   0.50000     0.4700000    0.0600000   2.482000e-04  1.854991e-07
     86     84   2   0.50000     0.0600000    0.4700000   2.482000e-04  1.854991e-07
     86     88   2   0.50000     0.0600000    0.0600000   2.521187e-05  5.064042e-09
     86     89   2   0.50000     0.0600000    0.0600000   2.521187e-05  5.064042e-09
     87     84   2   0.50000     0.0600000    0.4700000   2.482000e-04  1.854991e-07
     87     88   2   0.50000     0.0600000    0.0600000   2.521187e-05  5.064042e-09
     87     89   2   0.50000     0.0600000    0.0600000   2.521187e-05  5.064042e-09
     82     85   2   0.50000    -0.1200000   -0.4700000   1.095425e-03  1.218041e-06
     82     90   2   0.50000    -0.1200000   -0.1200000   1.015252e-03  1.866303e-06
     88     85   2   0.50000     0.0600000   -0.4700000   1.726228e-04  6.344822e-08
     88     90   2   0.50000     0.0600000   -0.1200000   1.599888e-04  9.721644e-08
     89     85   2   0.50000     0.0600000   -0.4700000   1.726228e-04  6.344822e-08
     89     90   2   0.50000     0.0600000   -0.1200000   1.599888e-04  9.721644e-08
     83     91   2   0.50000    -0.1200000   -0.1200000   1.015252e-03  1.866303e-06
     83     94   2   0.50000    -0.1200000    0.0600000   1.599888e-04  9.721644e-08
     83     95   2   0.50000    -0.1200000    0.0600000   1.599888e-04  9.721644e-08
     85     91   2   0.50000    -0.4700000   -0.1200000   1.095425e-03  1.218041e-06
     85     94   2   0.50000    -0.4700000    0.0600000   1.726228e-04  6.344822e-08
     85     95   2   0.50000    -0.4700000    0.0600000   1.726228e-04  6.344822e-08
     84     92   2   0.50000     0.4700000    0.4700000   2.443423e-03  6.794949e-06
     84     96   2   0.50000     0.4700000    0.0600000   2.482000e-04  1.854991e-07
     84     97   2   0.50000     0.4700000    0.0600000   2.482000e-04  1.854991e-07
     94     92   2   0.50000     0.0600000    0.4700000   2.482000e-04  1.854991e-07
     94     96   2   0.50000     0.0600000    0.0600000   2.521187e-05  5.064042e-09
     94     97   2   0.50000     0.0600000    0.0600000   2.521187e-05  5.064042e-09
     95     92   2   0.50000     0.0600000    0.4700000   2.482000e-04  1.854991e-07
     95     96   2   0.50000     0.0600000    0.0600000   2.521187e-05  5.064042e-09
     95     97   2   0.50000     0.0600000    0.0600000   2.521187e-05  5.064042e-09
     90     93   2   0.50000    -0.1200000   -0.4700000   1.095425e-03  1.218041e-06
     90     98   2   0.50000    -0.1200000   -0.1200000   1.015252e-03  1.866303e-06
     96     93   2   0.50000     0.0600000   -0.4700000   1.726228e-04  6.344822e-08
     96     98   2   0.50000     0.0600000   -0.1200000   1.599888e-04  9.721644e-08
     97     93   2   0.50000     0.0600000   -0.4700000   1.726228e-04  6.344822e-08
     97     98   2   0.50000     0.0600000   -0.1200000   1.599888e-04  9.721644e-08
     91     99   2   0.50000    -0.1200000   -0.1200000   1.015252e-03  1.866303e-06
     91    102   2   0.50000    -0.1200000    0.0600000   1.599888e-04  9.721644e-08
     91    103   2   0.50000    -0.1200000    0.0600000   1.599888e-04  9.721644e-08
     93     99   2   0.50000    -0.4700000   -0.1200000   1.095425e-03  1.218041e-06
     93    102   2   0.50000    -0.4700000    0.0600000   1.726228e-04  6.344822e-08
     93    103   2   0.50000    -0.4700000    0.0600000   1.726228e-04  6.344822e-08
     92    100   2   0.50000     0.4700000    0.4700000   2.443423e-03  6.794949e-06
     92    104   2   0.50000     0.4700000    0.0600000   2.482000e-04  1.854991e-07
     92    105   2   0.50000     0.4700000    0.0600000   2.482000e-04  1.854991e-07
    102    100   2   0.50000     0.0600000    0.4700000   2.482000e-04  1.854991e-07
    102    104   2   0.50000     0.0600000    0.0600000   2.521187e-05  5.064042e-09
    102    105   2   0.50000     0.0600000    0.0600000   2.521187e-05  5.064042e-09
    103    100   2   0.50000     0.0600000    0.4700000   2.482000e-04  1.854991e-07
    103    104   2   0.50000     0.0600000    0.0600000   2.521187e-05  5.064042e-09
    103    105   2   0.50000     0.0600000    0.0600000   2.521187e-05  5.064042e-09
     98    101   2   0.50000    -0.1200000   -0.4700000   1.095425e-03  1.218041e-06
     98    106   2   0.50000    -0.1200000   -0.1200000   1.015252e-03  1.866303e-06
    104    101   2   0.50000     0.0600000   -0.4700000   1.726228e-04  6.344822e-08
    104    106   2   0.50000     0.0600000   -0.1200000   1.599888e-04  9.721644e-08
    105    101   2   0.50000     0.0600000   -0.4700000   1.726228e-04  6.344822e-08
    105    106   2   0.50000     0.0600000   -0.1200000   1.599888e-04  9.721644e-08
     99    107   2   0.50000    -0.1200000   -0.1200000   1.015252e-03  1.866303e-06
     99    110   2   0.50000    -0.1200000    0.0600000   1.599888e-04  9.721644e-08
     99    111   2   0.50000    -0.1200000    0.0600000   1.599888e-04  9.721644e-08
    101    107   2   0.50000    -0.4700000   -0.1200000   1.095425e-03  1.218041e-06
    101    110   2   0.50000    -0.4700000    0.0600000   1.726228e-04  6.344822e-08
    101    111   2   0.50000    -0.4700000    0.0600000   1.726228e-04  6.344822e-08
    100    108   2   0.50000     0.4700000    0.4700000   2.443423e-03  6.794949e-06
    100    112   2   0.50000     0.4700000    0.0600000   2.482000e-04  1.854991e-07
    100    113   2   0.50000     0.4700000    0.0600000   2.482000e-04  1.854991e-07
    110    108   2   0.50000     0.0600000    0.4700000   2.482000e-04  1.854991e-07
    110    112   2   0.50000     0.0600000    0.0600000   2.521187e-05  5.064042e-09
    110    113   2   0.50000     0.0600000    0.0600000   2.521187e-05  5.064042e-09
    111    108   2   0.50000     0.0600000    0.4700000   2.482000e-04  1.854991e-07
    111    112   2   0.50000     0.0600000    0.0600000   2.521187e-05  5.064042e-09
    111    113   2   0.50000     0.0600000    0.0600000   2.521187e-05  5.064042e-09
    106    109   2   0.50000    -0.1200000   -0.4700000   1.095425e-03  1.218041e-06
    106    114   2   0.50000    -0.1200000   -0.1200000   1.015252e-03  1.866303e-06
    112    109   2   0.50000     0.0600000   -0.4700000   1.726228e-04  6.344822e-08
    112    114   2   0.50000     0.0600000   -0.1200000   1.599888e-04  9.721644e-08
    113    109   2   0.50000     0.0600000   -0.4700000   1.726228e-04  6.344822e-08
    113    114   2   0.50000     0.0600000   -0.1200000   1.599888e-04  9.721644e-08
    107    115   2   0.50000    -0.1200000   -0.1200000   1.015252e-03  1.866303e-06
    107    118   2   0.50000    -0.1200000    0.0600000   1.599888e-04  9.721644e-08
    107    119   2   0.50000    -0.1200000    0.0600000   1.599888e-04  9.721644e-08
    109    115   2   0.50000    -0.4700000   -0.1200000   1.095425e-03  1.218041e-06
    109    118   2   0.50000    -0.4700000    0.0600000   1.726228e-04  6.344822e-08
    109    119   2   0.50000    -0.4700000    0.0600000   1.726228e-04  6.344822e-08
    108    116   2   0.50000     0.4700000    0.4700000   2.443423e-03  6.794949e-06
    108    120   2   0.50000     0.4700000    0.0600000   2.482000e-04  1.854991e-07
    108    121   2   0.50000     0.4700000    0.0600000   2.482000e-04  1.854991e-07
    118    116   2   0.50000     0.0600000    0.4700000   2.482000e-04  1.854991e-07
    118    120   2   0.50000     0.0600000    0.0600000   2.521187e-05  5.064042e-09
    118    121   2   0.50000     0.0600000    0.0600000   2.521187e-05  5.064042e-09
    119    116   2   0.50000     0.0600000    0.4700000   2.482000e-04  1.854991e-07
    119    120   2   0.50000     0.0600000    0.0600000   2.521187e-05  5.064042e-09
    119    121   2   0.50000     0.0600000    0.0600000   2.521187e-05  5.064042e-09
    114    117   2   0.50000    -0.1200000   -0.4700000   1.095425e-03  1.218041e-06
    114    122   2   0.50000    -0.1200000   -0.1200000   1.015252e-03  1.866303e-06
    120    117   2   0.50000     0.0600000   -0.4700000   1.726228e-04  6.344822e-08
    120    122   2   0.50000     0.0600000   -0.1200000   1.599888e-04  9.721644e-08
    121    117   2   0.50000     0.0600000   -0.4700000   1.726228e-04  6.344822e-08
    121    122   2   0.50000     0.0600000   -0.1200000   1.599888e-04  9.721644e-08
    115    123   2   0.50000    -0.1200000   -0.1200000   1.015252e-03  1.866303e-06
    115    126   2   0.50000    -0.1200000    0.0600000   1.599888e-04  9.721644e-08
    115    127   2   0.50000    -0.1200000    0.0600000   1.599888e-04  9.721644e-08
    117    123   2   0.50000    -0.4700000   -0.1200000   1.095425e-03  1.218041e-06
    117    126   2   0.50000    -0.4700000    0.0600000   1.726228e-04  6.344822e-08
    117    127   2   0.50000    -0.4700000    0.0600000   1.726228e-04  6.344822e-08
    116    124   2   0.50000     0.4700000    0.4700000   2.443423e-03  6.794949e-06
    116    128   2   0.50000     0.4700000    0.0600000   2.482000e-04  1.854991e-07
    116    129   2   0.50000     0.4700000    0.0600000   2.482000e-04  1.854991e-07
    126    124   2   0.50000     0.0600000    0.4700000   2.482000e-04  1.854991e-07
    126    128   2   0.50000     0.0600000    0.0600000   2.521187e-05  5.064042e-09
    126    129   2   0.50000     0.0600000    0.0600000   2.521187e-05  5.064042e-09
    127    124   2   0.50000     0.0600000    0.4700000   2.482000e-04  1.854991e-07
    127    128   2   0.50000     0.0600000    0.0600000   2.521187e-05  5.064042e-09
    127    129   2   0.50000     0.0600000    0.0600000   2.521187e-05  5.064042e-09
    122    125   2   0.50000    -0.1200000   -0.4700000   1.095425e-03  1.218041e-06
    122    130   2   0.50000    -0.1200000   -0.1200000   1.015252e-03  1.866303e-06
    128    125   2   0.50000     0.0600000   -0.4700000   1.726228e-04  6.344822e-08
    128    130   2   0.50000     0.0600000   -0.1200000   1.599888e-04  9.721644e-08
    129    125   2   0.50000     0.0600000   -0.4700000   1.726228e-04  6.344822e-08
    129    130   2   0.50000     0.0600000   -0.1200000   1.599888e-04  9.721644e-08
    123    131   2   0.50000    -0.1200000   -0.1200000   1.015252e-03  1.866303e-06
    123    134   2   0.50000    -0.1200000    0.0600000   1.599888e-04  9.721644e-08
    123    135   2   0.50000    -0.1200000    0.0600000   1.599888e-04  9.721644e-08
    125    131   2   0.50000    -0.4700000   -0.1200000   1.095425e-03  1.218041e-06
    125    134   2   0.50000    -0.4700000    0.0600000   1.726228e-04  6.344822e-08
    125    135   2   0.50000    -0.4700000    0.0600000   1.726228e-04  6.344822e-08
    124    132   2   0.50000     0.4700000    0.4700000   2.443423e-03  6.794949e-06
    124    136   2   0.50000     0.4700000    0.0600000   2.482000e-04  1.854991e-07
    124    137   2   0.50000     0.4700000    0.0600000   2.482000e-04  1.854991e-07
    134    132   2   0.50000     0.0600000    0.4700000   2.482000e-04  1.854991e-07
    134    136   2   0.50000     0.0600000    0.0600000   2.521187e-05  5.064042e-09
    134    137   2   0.50000     0.0600000    0.0600000   2.521187e-05  5.064042e-09
    135    132   2   0.50000     0.0600000    0.4700000   2.482000e-04  1.854991e-07
    135    136   2   0.50000     0.0600000    0.0600000   2.521187e-05  5.064042e-09
    135    137   2   0.50000     0.0600000    0.0600000   2.521187e-05  5.064042e-09
    130    133   2   0.50000    -0.1200000   -0.4700000   1.095425e-03  1.218041e-06
    130    138   2   0.50000    -0.1200000   -0.1200000   1.015252e-03  1.866303e-06
    136    133   2   0.50000     0.0600000   -0.4700000   1.726228e-04  6.344822e-08
    136    138   2   0.50000     0.0600000   -0.1200000   1.599888e-04  9.721644e-08
    137    133   2   0.50000     0.0600000   -0.4700000   1.726228e-04  6.344822e-08
    137    138   2   0.50000     0.0600000   -0.1200000   1.599888e-04  9.721644e-08
    131    139   2   0.50000    -0.1200000   -0.1200000   1.015252e-03  1.866303e-06
    131    142   2   0.50000    -0.1200000    0.0600000   1.599888e-04  9.721644e-08
    131    143   2   0.50000    -0.1200000    0.0600000   1.599888e-04  9.721644e-08
    133    139   2   0.50000    -0.4700000   -0.1200000   1.095425e-03  1.218041e-06
    133    142   2   0.50000    -0.4700000    0.0600000   1.726228e-04  6.344822e-08
    133    143   2   0.50000    -0.4700000    0.0600000   1.726228e-04  6.344822e-08
    132    140   2   0.50000     0.4700000    0.4700000   2.443423e-03  6.794949e-06
    132    144   2   0.50000     0.4700000    0.0600000   2.482000e-04  1.854991e-07
    132    145   2   0.50000     0.4700000    0.0600000   2.482000e-04  1.854991e-07
    142    140   2   0.50000     0.0600000    0.4700000   2.482000e-04  1.854991e-07
    142    144   2   0.50000     0.0600000    0.0600000   2.521187e-05  5.064042e-09
    142    145   2   0.50000     0.0600000    0.0600000   2.521187e-05  5.064042e-09
    143    140   2   0.50000     0.0600000    0.4700000   2.482000e-04  1.854991e-07
    143    144   2   0.50000     0.0600000    0.0600000   2.521187e-05  5.064042e-09
    143    145   2   0.50000     0.0600000    0.0600000   2.521187e-05  5.064042e-09
    138    141   2   0.50000    -0.1200000   -0.4700000   1.095425e-03  1.218041e-06
    138    146   2   0.50000    -0.1200000   -0.1200000   1.015252e-03  1.866303e-06
    144    141   2   0.50000     0.0600000   -0.4700000   1.726228e-04  6.344822e-08
    144    146   2   0.50000     0.0600000   -0.1200000   1.599888e-04  9.721644e-08
    145    141   2   0.50000     0.0600000   -0.4700000   1.726228e-04  6.344822e-08
    145    146   2   0.50000     0.0600000   -0.1200000   1.599888e-04  9.721644e-08
    139    147   2   0.50000    -0.1200000   -0.1200000   1.015252e-03  1.866303e-06
    139    150   2   0.50000    -0.1200000    0.0600000   1.599888e-04  9.721644e-08
    139    151   2   0.50000    -0.1200000    0.0600000   1.599888e-04  9.721644e-08
    141    147   2   0.50000    -0.4700000   -0.1200000   1.095425e-03  1.218041e-06
    141    150   2   0.50000    -0.4700000    0.0600000   1.726228e-04  6.344822e-08
    141    151   2   0.50000    -0.4700000    0.0600000   1.726228e-04  6.344822e-08
    140    148   2   0.50000     0.4700000    0.4700000   2.443423e-03  6.794949e-06
    140    152   2   0.50000     0.4700000    0.0600000   2.482000e-04  1.854991e-07
    140    153   2   0.50000     0.4700000    0.0600000   2.482000e-04  1.854991e-07
    150    148   2   0.50000     0.0600000    0.4700000   2.482000e-04  1.854991e-07
    150    152   2   0.50000     0.0600000    0.0600000   2.521187e-05  5.064042e-09
    150    153   2   0.50000     0.0600000    0.0600000   2.521187e-05  5.064042e-09
    151    148   2   0.50000     0.0600000    0.4700000   2.482000e-04  1.854991e-07
    151    152   2   0.50000     0.0600000    0.0600000   2.521187e-05  5.064042e-09
    151    153   2   0.50000     0.0600000    0.0600000   2.521187e-05  5.064042e-09
    146    149   2   0.50000    -0.1200000   -0.4700000   1.095425e-03  1.218041e-06
    146    154   2   0.50000    -0.1200000   -0.1200000   1.015252e-03  1.866303e-06
    152    149   2   0.50000     0.0600000   -0.4700000   1.726228e-04  6.344822e-08
    152    154   2   0.50000     0.0600000   -0.1200000   1.599888e-04  9.721644e-08
    153    149   2   0.50000     0.0600000   -0.4700000   1.726228e-04  6.344822e-08
    153    154   2   0.50000     0.0600000   -0.1200000   1.599888e-04  9.721644e-08
    147    155   2   0.50000    -0.1200000   -0.1200000   1.015252e-03  1.866303e-06
    147    158   2   0.50000    -0.1200000    0.0600000   1.599888e-04  9.721644e-08
    147    159   2   0.50000    -0.1200000    0.0600000   1.599888e-04  9.721644e-08
    149    155   2   0.50000    -0.4700000   -0.1200000   1.095425e-03  1.218041e-06
    149    158   2   0.50000    -0.4700000    0.0600000   1.726228e-04  6.344822e-08
    149    159   2   0.50000    -0.4700000    0.0600000   1.726228e-04  6.344822e-08
    148    156   2   0.50000     0.4700000    0.4500000   2.443423e-03  6.794949e-06
    148    160   2   0.50000     0.4700000    0.0600000   2.482000e-04  1.854991e-07
    148    161   2   0.50000     0.4700000    0.0600000   2.482000e-04  1.854991e-07
    158    156   2   0.50000     0.0600000    0.4500000   2.482000e-04  1.854991e-07
    158    160   2   0.50000     0.0600000    0.0600000   2.521187e-05  5.064042e-09
    158    161   2   0.50000     0.0600000    0.0600000   2.521187e-05  5.064042e-09
    159    156   2   0.50000     0.0600000    0.4500000   2.482000e-04  1.854991e-07
    159    160   2   0.50000     0.0600000    0.0600000   2.521187e-05  5.064042e-09
    159    161   2   0.50000     0.0600000    0.0600000   2.521187e-05  5.064042e-09
    154    157   2   0.50000    -0.1200000   -0.4500000   1.095425e-03  1.218041e-06
    154    162   2   0.50000    -0.1200000    0.0000000   1.599888e-04  9.721644e-08
    160    157   2   0.50000     0.0600000   -0.4500000   1.726228e-04  6.344822e-08
    160    162   2   0.50000     0.0600000    0.0000000   2.521187e-05  5.064042e-09
    161    157   2   0.50000     0.0600000   -0.4500000   1.726228e-04  6.344822e-08
    161    162   2   0.50000     0.0600000    0.0000000   2.521187e-05  5.064042e-09

[ angles ]
; ai  aj  ak
      2      1      5   1    110.7000    313.8000
      2      1      6   1    110.7000    313.8000
      2      1      9   1    110.7000    313.8000
      5      1      6   1    107.8000    276.1440
      5      1      9   1    107.8000    276.1440
      6      1      9   1    107.8000    276.1440
      1      2      3   1    111.1000    527.1840
      1      2      7   1    110.7000    313.8000
      1      2      8   1    110.7000    313.8000
      3      2      7   1    109.5000    292.8800
      3      2      8   1    109.5000    292.8800
      7      2      8   1    107.8000    276.1440
      2      3      4   1    120.4000    669.4400
      2      3     10   1    116.0000    585.7600
      4      3     10   1    120.4000    669.4400
      3     10     11   1    111.1000    527.1840
      3     10     14   1    109.5000    292.8800
      3     10     15   1    109.5000    292.8800
     11     10     14   1    110.7000    313.8000
     11     10     15   1    110.7000    313.8000
     14     10     15   1    107.8000    276.1440
     10     11     12   1    111.1000    527.1840
     10     11     16   1    110.7000    313.8000
     10     11     17   1    110.7000    313.8000
     12     11     16   1    109.5000    292.8800
     12     11     17   1    109.5000    292.8800
     16     11     17   1    107.8000    276.1440
     11     12     13   1    120.4000    669.4400
     11     12     18   1    116.0000    585.7600
     13     12     18   1    120.4000    669.4400
     12     18     19   1    111.1000    527.1840
     12     18     22   1    109.5000    292.8800
     12     18     23   1    109.5000    292.8800
     19     18     22   1    110.7000    313.8000
     19     18     23   1    110.7000    313.8000
     22     18     23   1    107.8000    276.1440
     18     19     20   1    111.1000    527.1840
     18     19     24   1    110.7000    313.8000
     18     19     25   1    110.7000    313.8000
     20     19     24   1    109.5000    292.8800
     20     19     25   1    109.5000    292.8800
     24     19     25   1    107.8000    276.1440
     19     20     21   1    120.4000    669.4400
     19     20     26   1    116.0000    585.7600
     21     20     26   1    120.4000    669.4400
     20     26     27   1    111.1000    527.1840
     20     26     30   1    109.5000    292.8800
     20     26     31   1    109.5000    292.8800
     27     26     30   1    110.7000    313.8000
     27     26     31   1    110.7000    313.8000
     30     26     31   1    107.8000    276.1440
     26     27     28   1    111.1000    527.1840
     26     27     32   1    110.7000    313.8000
     26     27     33   1    110.7000    313.8000
     28     27     32   1    109.5000    292.8800
     28     27     33   1    109.5000    292.8800
     32     27     33   1    107.8000    276.1440
     27     28     29   1    120.4000    669.4400
     27     28     34   1    116.0000    585.7600
     29     28     34   1    120.4000    669.4400
     28     34     35   1    111.1000    527.1840
     28     34     38   1    109.5000    292.8800
     28     34     39   1    109.5000    292.8800
     35     34     38   1    110.7000    313.8000
     35     34     39   1    110.7000    313.8000
     38     34     39   1    107.8000    276.1440
     34     35     36   1    111.1000    527.1840
     34     35     40   1    110.7000    313.8000
     34     35     41   1    110.7000    313.8000
     36     35     40   1    109.5000    292.8800
     36     35     41   1    109.5000    292.8800
     40     35     41   1    107.8000    276.1440
     35     36     37   1    120.4000    669.4400
     35     36     42   1    116.0000    585.7600
     37     36     42   1    120.4000    669.4400
     36     42     43   1    111.1000    527.1840
     36     42     46   1    109.5000    292.8800
     36     42     47   1    109.5000    292.8800
     43     42     46   1    110.7000    313.8000
     43     42     47   1    110.7000    313.8000
     46     42     47   1    107.8000    276.1440
     42     43     44   1    111.1000    527.1840
     42     43     48   1    110.7000    313.8000
     42     43     49   1    110.7000    313.8000
     44     43     48   1    109.5000    292.8800
     44     43     49   1    109.5000    292.8800
     48     43     49   1    107.8000    276.1440
     43     44     45   1    120.4000    669.4400
     43     44     50   1    116.0000    585.7600
     45     44     50   1    120.4000    669.4400
     44     50     51   1    111.1000    527.1840
     44     50     54   1    109.5000    292.8800
     44     50     55   1    109.5000    292.8800
     51     50     54   1    110.7000    313.8000
     51     50     55   1    110.7000    313.8000
     54     50     55   1    107.8000    276.1440
     50     51     52   1    111.1000    527.1840
     50     51     56   1    110.7000    313.8000
     50     51     57   1    110.7000    313.8000
     52     51     56   1    109.5000    292.8800
     52     51     57   1    109.5000    292.8800
     56     51     57   1    107.8000    276.1440
     51     52     53   1    120.4000    669.4400
     51     52     58   1    116.0000    585.7600
     53     52     58   1    120.4000    669.4400
     52     58     59   1    111.1000    527.1840
     52     58     62   1    109.5000    292.8800
     52     58     63   1    109.5000    292.8800
     59     58     62   1    110.7000    313.8000
     59     58     63   1    110.7000    313.8000
     62     58     63   1    107.8000    276.1440
     58     59     60   1    111.1000    527.1840
     58     59     64   1    110.7000    313.8000
     58     59     65   1    110.7000    313.8000
     60     59     64   1    109.5000    292.8800
     60     59     65   1    109.5000    292.8800
     64     59     65   1    107.8000    276.1440
     59     60     61   1    120.4000    669.4400
     59     60     66   1    116.0000    585.7600
     61     60     66   1    120.4000    669.4400
     60     66     67   1    111.1000    527.1840
     60     66     70   1    109.5000    292.8800
     60     66     71   1    109.5000    292.8800
     67     66     70   1    110.7000    313.8000
     67     66     71   1    110.7000    313.8000
     70     66     71   1    107.8000    276.1440
     66     67     68   1    111.1000    527.1840
     66     67     72   1    110.7000    313.8000
     66     67     73   1    110.7000    313.8000
     68     67     72   1    109.5000    292.8800
     68     67     73   1    109.5000    292.8800
     72     67     73   1    107.8000    276.1440
     67     68     69   1    120.4000    669.4400
     67     68     74   1    116.0000    585.7600
     69     68     74   1    120.4000    669.4400
     68     74     75   1    111.1000    527.1840
     68     74     78   1    109.5000    292.8800
     68     74     79   1    109.5000    292.8800
     75     74     78   1    110.7000    313.8000
     75     74     79   1    110.7000    313.8000
     78     74     79   1    107.8000    276.1440
     74     75     76   1    111.1000    527.1840
     74     75     80   1    110.7000    313.8000
     74     75     81   1    110.7000    313.8000
     76     75     80   1    109.5000    292.8800
     76     75     81   1    109.5000    292.8800
     80     75     81   1    107.8000    276.1440
     75     76     77   1    120.4000    669.4400
     75     76     82   1    116.0000    585.7600
     77     76     82   1    120.4000    669.4400
     76     82     83   1    111.1000    527.1840
     76     82     86   1    109.5000    292.8800
     76     82     87   1    109.5000    292.8800
     83     82     86   1    110.7000    313.8000
     83     82     87   1    110.7000    313.8000
     86     82     87   1    107.8000    276.1440
     82     83     84   1    111.1000    527.1840
     82     83     88   1    110.7000    313.8000
     82     83     89   1    110.7000    313.8000
     84     83     88   1    109.5000    292.8800
     84     83     89   1    109.5000    292.8800
     88     83     89   1    107.8000    276.1440
     83     84     85   1    120.4000    669.4400
     83     84     90   1    116.0000    585.7600
     85     84     90   1    120.4000    669.4400
     84     90     91   1    111.1000    527.1840
     84     90     94   1    109.5000    292.8800
     84     90     95   1    109.5000    292.8800
     91     90     94   1    110.7000    313.8000
     91     90     95   1    110.7000    313.8000
     94     90     95   1    107.8000    276.1440
     90     91     92   1    111.1000    527.1840
     90     91     96   1    110.7000    313.8000
     90     91     97   1    110.7000    313.8000
     92     91     96   1    109.5000    292.8800
     92     91     97   1    109.5000    292.8800
     96     91     97   1    107.8000    276.1440
     91     92     93   1    120.4000    669.4400
     91     92     98   1    116.0000    585.7600
     93     92     98   1    120.4000    669.4400
     92     98     99   1    111.1000    527.1840
     92     98    102   1    109.5000    292.8800
     92     98    103   1    109.5000    292.8800
     99     98    102   1    110.7000    313.8000
     99     98    103   1    110.7000    313.8000
    102     98    103   1    107.8000    276.1440
     98     99    100   1    111.1000    527.1840
     98     99    104   1    110.7000    313.8000
     98     99    105   1    110.7000    313.8000
    100     99    104   1    109.5000    292.8800
    100     99    105   1    109.5000    292.8800
    104     99    105   1    107.8000    276.1440
     99    100    101   1    120.4000    669.4400
     99    100    106   1    116.0000    585.7600
    101    100    106   1    120.4000    669.4400
    100    106    107   1    111.1000    527.1840
    100    106    110   1    109.5000    292.8800
    100    106    111   1    109.5000    292.8800
    107    106    110   1    110.7000    313.8000
    107    106    111   1    110.7000    313.8000
    110    106    111   1    107.8000    276.1440
    106    107    108   1    111.1000    527.1840
    106    107    112   1    110.7000    313.8000
    106    107    113   1    110.7000    313.8000
    108    107    112   1    109.5000    292.8800
    108    107    113   1    109.5000    292.8800
    112    107    113   1    107.8000    276.1440
    107    108    109   1    120.4000    669.4400
    107    108    114   1    116.0000    585.7600
    109    108    114   1    120.4000    669.4400
    108    114    115   1    111.1000    527.1840
    108    114    118   1    109.5000    292.8800
    108    114    119   1    109.5000    292.8800
    115    114    118   1    110.7000    313.8000
    115    114    119   1    110.7000    313.8000
    118    114    119   1    107.8000    276.1440
    114    115    116   1    111.1000    527.1840
    114    115    120   1    110.7000    313.8000
    114    115    121   1    110.7000    313.8000
    116    115    120   1    109.5000    292.8800
    116    115    121   1    109.5000    292.8800
    120    115    121   1    107.8000    276.1440
    115    116    117   1    120.4000    669.4400
    115    116    122   1    116.0000    585.7600
    117    116    122   1    120.4000    669.4400
    116    122    123   1    111.1000    527.1840
    116    122    126   1    109.5000    292.8800
    116    122    127   1    109.5000    292.8800
    123    122    126   1    110.7000    313.8000
    123    122    127   1    110.7000    313.8000
    126    122    127   1    107.8000    276.1440
    122    123    124   1    111.1000    527.1840
    122    123    128   1    110.7000    313.8000
    122    123    129   1    110.7000    313.8000
    124    123    128   1    109.5000    292.8800
    124    123    129   1    109.5000    292.8800
    128    123    129   1    107.8000    276.1440
    123    124    125   1    120.4000    669.4400
    123    124    130   1    116.0000    585.7600
    125    124    130   1    120.4000    669.4400
    124    130    131   1    111.1000    527.1840
    124    130    134   1    109.5000    292.8800
    124    130    135   1    109.5000    292.8800
    131    130    134   1    110.7000    313.8000
    131    130    135   1    110.7000    313.8000
    134    130    135   1    107.8000    276.1440
    130    131    132   1    111.1000    527.1840
    130    131    136   1    110.7000    313.8000
    130    131    137   1    110.7000    313.8000
    132    131    136   1    109.5000    292.8800
    132    131    137   1    109.5000    292.8800
    136    131    137   1    107.8000    276.1440
    131    132    133   1    120.4000    669.4400
    131    132    138   1    116.0000    585.7600
    133    132    138   1    120.4000    669.4400
    132    138    139   1    111.1000    527.1840
    132    138    142   1    109.5000    292.8800
    132    138    143   1    109.5000    292.8800
    139    138    142   1    110.7000    313.8000
    139    138    143   1    110.7000    313.8000
    142    138    143   1    107.8000    276.1440
    138    139    140   1    111.1000    527.1840
    138    139    144   1    110.7000    313.8000
    138    139    145   1    110.7000    313.8000
    140    139    144   1    109.5000    292.8800
    140    139    145   1    109.5000    292.8800
    144    139    145   1    107.8000    276.1440
    139    140    141   1    120.4000    669.4400
    139    140    146   1    116.0000    585.7600
    141    140    146   1    120.4000    669.4400
    140    146    147   1    111.1000    527.1840
    140    146    150   1    109.5000    292.8800
    140    146    151   1    109.5000    292.8800
    147    146    150   1    110.7000    313.8000
    147    146    151   1    110.7000    313.8000
    150    146    151   1    107.8000    276.1440
    146    147    148   1    111.1000    527.1840
    146    147    152   1    110.7000    313.8000
    146    147    153   1    110.7000    313.8000
    148    147    152   1    109.5000    292.8800
    148    147    153   1    109.5000    292.8800
    152    147    153   1    107.8000    276.1440
    147    148    149   1    120.4000    669.4400
    147    148    154   1    116.0000    585.7600
    149    148    154   1    120.4000    669.4400
    148    154    155   1    111.1000    527.1840
    148    154    158   1    109.5000    292.8800
    148    154    159   1    109.5000    292.8800
    155    154    158   1    110.7000    313.8000
    155    154    159   1    110.7000    313.8000
    158    154    159   1    107.8000    276.1440
    154    155    156   1    111.1000    527.1840
    154    155    160   1    110.7000    313.8000
    154    155    161   1    110.7000    313.8000
    156    155    160   1    109.5000    292.8800
    156    155    161   1    109.5000    292.8800
    160    155    161   1    107.8000    276.1440
    155    156    157   1    120.4000    669.4400
    155    156    162   1    115.0000    292.8800
    157    156    162   1    123.0000    292.8800

[ dihedrals ]
; Proper dihedrals
      5      1      2      3   5     0.00000     0.00000    -0.94140  0.0
      5      1      2      7   5     0.00000     0.00000     1.25520  0.0
      5      1      2      8   5     0.00000     0.00000     1.25520  0.0
      6      1      2      3   5     0.00000     0.00000    -0.94140  0.0
      6      1      2      7   5     0.00000     0.00000     1.25520  0.0
      6      1      2      8   5     0.00000     0.00000     1.25520  0.0
      9      1      2      3   5     0.00000     0.00000    -0.94140  0.0
      9      1      2      7   5     0.00000     0.00000     1.25520  0.0
      9      1      2      8   5     0.00000     0.00000     1.25520  0.0
      1      2      3      4   5     0.00000     2.52295     0.00000  0.0
      1      2      3     10   5     5.02498     0.46861     2.18823  0.0
      7      2      3      4   5     0.00000     0.00000     0.00000  0.0
      7      2      3     10   5     0.00000     0.00000     0.00000  0.0
      8      2      3      4   5     0.00000     0.00000     0.00000  0.0
      8      2      3     10   5     0.00000     0.00000     0.00000  0.0
      2      3     10     11   5     5.02498     0.46861     2.18823  0.0
      2      3     10     14   5     0.00000     0.00000     0.00000  0.0
      2      3     10     15   5     0.00000     0.00000     0.00000  0.0
      4      3     10     11   5     0.00000     2.52295     0.00000  0.0
      4      3     10     14   5     0.00000     0.00000     0.00000  0.0
      4      3     10     15   5     0.00000     0.00000     0.00000  0.0
      3     10     11     12   5     0.99998     1.69870    -5.92454  0.0
      3     10     11     16   5     0.00000     0.00000    -0.94140  0.0
      3     10     11     17   5     0.00000     0.00000    -0.94140  0.0
     14     10     11     12   5     0.00000     0.00000    -0.94140  0.0
     14     10     11     16   5     0.00000     0.00000     1.25520  0.0
     14     10     11     17   5     0.00000     0.00000     1.25520  0.0
     15     10     11     12   5     0.00000     0.00000    -0.94140  0.0
     15     10     11     16   5     0.00000     0.00000     1.25520  0.0
     15     10     11     17   5     0.00000     0.00000     1.25520  0.0
     10     11     12     13   5     0.00000     2.52295     0.00000  0.0
     10     11     12     18   5     5.02498     0.46861     2.18823  0.0
     16     11     12     13   5     0.00000     0.00000     0.00000  0.0
     16     11     12     18   5     0.00000     0.00000     0.00000  0.0
     17     11     12     13   5     0.00000     0.00000     0.00000  0.0
     17     11     12     18   5     0.00000     0.00000     0.00000  0.0
     11     12     18     19   5     5.02498     0.46861     2.18823  0.0
     11     12     18     22   5     0.00000     0.00000     0.00000  0.0
     11     12     18     23   5     0.00000     0.00000     0.00000  0.0
     13     12     18     19   5     0.00000     2.52295     0.00000  0.0
     13     12     18     22   5     0.00000     0.00000     0.00000  0.0
     13     12     18     23   5     0.00000     0.00000     0.00000  0.0
     12     18     19     20   5     0.99998     1.69870    -5.92454  0.0
     12     18     19     24   5     0.00000     0.00000    -0.94140  0.0
     12     18     19     25   5     0.00000     0.00000    -0.94140  0.0
     22     18     19     20   5     0.00000     0.00000    -0.94140  0.0
     22     18     19     24   5     0.00000     0.00000     1.25520  0.0
     22     18     19     25   5     0.00000     0.00000     1.25520  0.0
     23     18     19     20   5     0.00000     0.00000    -0.94140  0.0
     23     18     19     24   5     0.00000     0.00000     1.25520  0.0
     23     18     19     25   5     0.00000     0.00000     1.25520  0.0
     18     19     20     21   5     0.00000     2.52295     0.00000  0.0
     18     19     20     26   5     5.02498     0.46861     2.18823  0.0
     24     19     20     21   5     0.00000     0.00000     0.00000  0.0
     24     19     20     26   5     0.00000     0.00000     0.00000  0.0
     25     19     20     21   5     0.00000     0.00000     0.00000  0.0
     25     19     20     26   5     0.00000     0.00000     0.00000  0.0
     19     20     26     27   5     5.02498     0.46861     2.18823  0.0
     19     20     26     30   5     0.00000     0.00000     0.00000  0.0
     19     20     26     31   5     0.00000     0.00000     0.00000  0.0
     21     20     26     27   5     0.00000     2.52295     0.00000  0.0
     21     20     26     30   5     0.00000     0.00000     0.00000  0.0
     21     20     26     31   5     0.00000     0.00000     0.00000  0.0
     20     26     27     28   5     0.99998     1.69870    -5.92454  0.0
     20     26     27     32   5     0.00000     0.00000    -0.94140  0.0
     20     26     27     33   5     0.00000     0.00000    -0.94140  0.0
     30     26     27     28   5     0.00000     0.00000    -0.94140  0.0
     30     26     27     32   5     0.00000     0.00000     1.25520  0.0
     30     26     27     33   5     0.00000     0.00000     1.25520  0.0
     31     26     27     28   5     0.00000     0.00000    -0.94140  0.0
     31     26     27     32   5     0.00000     0.00000     1.25520  0.0
     31     26     27     33   5     0.00000     0.00000     1.25520  0.0
     26     27     28     29   5     0.00000     2.52295     0.00000  0.0
     26     27     28     34   5     5.02498     0.46861     2.18823  0.0
     32     27     28     29   5     0.00000     0.00000     0.00000  0.0
     32     27     28     34   5     0.00000     0.00000     0.00000  0.0
     33     27     28     29   5     0.00000     0.00000     0.00000  0.0
     33     27     28     34   5     0.00000     0.00000     0.00000  0.0
     27     28     34     35   5     5.02498     0.46861     2.18823  0.0
     27     28     34     38   5     0.00000     0.00000     0.00000  0.0
     27     28     34     39   5     0.00000     0.00000     0.00000  0.0
     29     28     34     35   5     0.00000     2.52295     0.00000  0.0
     29     28     34     38   5     0.00000     0.00000     0.00000  0.0
     29     28     34     39   5     0.00000     0.00000     0.00000  0.0
     28     34     35     36   5     0.99998     1.69870    -5.92454  0.0
     28     34     35     40   5     0.00000     0.00000    -0.94140  0.0
     28     34     35     41   5     0.00000     0.00000    -0.94140  0.0
     38     34     35     36   5     0.00000     0.00000    -0.94140  0.0
     38     34     35     40   5     0.00000     0.00000     1.25520  0.0
     38     34     35     41   5     0.00000     0.00000     1.25520  0.0
     39     34     35     36   5     0.00000     0.00000    -0.94140  0.0
     39     34     35     40   5     0.00000     0.00000     1.25520  0.0
     39     34     35     41   5     0.00000     0.00000     1.25520  0.0
     34     35     36     37   5     0.00000     2.52295     0.00000  0.0
     34     35     36     42   5     5.02498     0.46861     2.18823  0.0
     40     35     36     37   5     0.00000     0.00000     0.00000  0.0
     40     35     36     42   5     0.00000     0.00000     0.00000  0.0
     41     35     36     37   5     0.00000     0.00000     0.00000  0.0
     41     35     36     42   5     0.00000     0.00000     0.00000  0.0
     35     36     42     43   5     5.02498     0.46861     2.18823  0.0
     35     36     42     46   5     0.00000     0.00000     0.00000  0.0
     35     36     42     47   5     0.00000     0.00000     0.00000  0.0
     37     36     42     43   5     0.00000     2.52295     0.00000  0.0
     37     36     42     46   5     0.00000     0.00000     0.00000  0.0
     37     36     42     47   5     0.00000     0.00000     0.00000  0.0
     36     42     43     44   5     0.99998     1.69870    -5.92454  0.0
     36     42     43     48   5     0.00000     0.00000    -0.94140  0.0
     36     42     43     49   5     0.00000     0.00000    -0.94140  0.0
     46     42     43     44   5     0.00000     0.00000    -0.94140  0.0
     46     42     43     48   5     0.00000     0.00000     1.25520  0.0
     46     42     43     49   5     0.00000     0.00000     1.25520  0.0
     47     42     43     44   5     0.00000     0.00000    -0.94140  0.0
     47     42     43     48   5     0.00000     0.00000     1.25520  0.0
     47     42     43     49   5     0.00000     0.00000     1.25520  0.0
     42     43     44     45   5     0.00000     2.52295     0.00000  0.0
     42     43     44     50   5     5.02498     0.46861     2.18823  0.0
     48     43     44     45   5     0.00000     0.00000     0.00000  0.0
     48     43     44     50   5     0.00000     0.00000     0.00000  0.0
     49     43     44     45   5     0.00000     0.00000     0.00000  0.0
     49     43     44     50   5     0.00000     0.00000     0.00000  0.0
     43     44     50     51   5     5.02498     0.46861     2.18823  0.0
     43     44     50     54   5     0.00000     0.00000     0.00000  0.0
     43     44     50     55   5     0.00000     0.00000     0.00000  0.0
     45     44     50     51   5     0.00000     2.52295     0.00000  0.0
     45     44     50     54   5     0.00000     0.00000     0.00000  0.0
     45     44     50     55   5     0.00000     0.00000     0.00000  0.0
     44     50     51     52   5     0.99998     1.69870    -5.92454  0.0
     44     50     51     56   5     0.00000     0.00000    -0.94140  0.0
     44     50     51     57   5     0.00000     0.00000    -0.94140  0.0
     54     50     51     52   5     0.00000     0.00000    -0.94140  0.0
     54     50     51     56   5     0.00000     0.00000     1.25520  0.0
     54     50     51     57   5     0.00000     0.00000     1.25520  0.0
     55     50     51     52   5     0.00000     0.00000    -0.94140  0.0
     55     50     51     56   5     0.00000     0.00000     1.25520  0.0
     55     50     51     57   5     0.00000     0.00000     1.25520  0.0
     50     51     52     53   5     0.00000     2.52295     0.00000  0.0
     50     51     52     58   5     5.02498     0.46861     2.18823  0.0
     56     51     52     53   5     0.00000     0.00000     0.00000  0.0
     56     51     52     58   5     0.00000     0.00000     0.00000  0.0
     57     51     52     53   5     0.00000     0.00000     0.00000  0.0
     57     51     52     58   5     0.00000     0.00000     0.00000  0.0
     51     52     58     59   5     5.02498     0.46861     2.18823  0.0
     51     52     58     62   5     0.00000     0.00000     0.00000  0.0
     51     52     58     63   5     0.00000     0.00000     0.00000  0.0
     53     52     58     59   5     0.00000     2.52295     0.00000  0.0
     53     52     58     62   5     0.00000     0.00000     0.00000  0.0
     53     52     58     63   5     0.00000     0.00000     0.00000  0.0
     52     58     59     60   5     0.99998     1.69870    -5.92454  0.0
     52     58     59     64   5     0.00000     0.00000    -0.94140  0.0
     52     58     59     65   5     0.00000     0.00000    -0.94140  0.0
     62     58     59     60   5     0.00000     0.00000    -0.94140  0.0
     62     58     59     64   5     0.00000     0.00000     1.25520  0.0
     62     58     59     65   5     0.00000     0.00000     1.25520  0.0
     63     58     59     60   5     0.00000     0.00000    -0.94140  0.0
     63     58     59     64   5     0.00000     0.00000     1.25520  0.0
     63     58     59     65   5     0.00000     0.00000     1.25520  0.0
     58     59     60     61   5     0.00000     2.52295     0.00000  0.0
     58     59     60     66   5     5.02498     0.46861     2.18823  0.0
     64     59     60     61   5     0.00000     0.00000     0.00000  0.0
     64     59     60     66   5     0.00000     0.00000     0.00000  0.0
     65     59     60     61   5     0.00000     0.00000     0.00000  0.0
     65     59     60     66   5     0.00000     0.00000     0.00000  0.0
     59     60     66     67   5     5.02498     0.46861     2.18823  0.0
     59     60     66     70   5     0.00000     0.00000     0.00000  0.0
     59     60     66     71   5     0.00000     0.00000     0.00000  0.0
     61     60     66     67   5     0.00000     2.52295     0.00000  0.0
     61     60     66     70   5     0.00000     0.00000     0.00000  0.0
     61     60     66     71   5     0.00000     0.00000     0.00000  0.0
     60     66     67     68   5     0.99998     1.69870    -5.92454  0.0
     60     66     67     72   5     0.00000     0.00000    -0.94140  0.0
     60     66     67     73   5     0.00000     0.00000    -0.94140  0.0
     70     66     67     68   5     0.00000     0.00000    -0.94140  0.0
     70     66     67     72   5     0.00000     0.00000     1.25520  0.0
     70     66     67     73   5     0.00000     0.00000     1.25520  0.0
     71     66     67     68   5     0.00000     0.00000    -0.94140  0.0
     71     66     67     72   5     0.00000     0.00000     1.25520  0.0
     71     66     67     73   5     0.00000     0.00000     1.25520  0.0
     66     67     68     69   5     0.00000     2.52295     0.00000  0.0
     66     67     68     74   5     5.02498     0.46861     2.18823  0.0
     72     67     68     69   5     0.00000     0.00000     0.00000  0.0
     72     67     68     74   5     0.00000     0.00000     0.00000  0.0
     73     67     68     69   5     0.00000     0.00000     0.00000  0.0
     73     67     68     74   5     0.00000     0.00000     0.00000  0.0
     67     68     74     75   5     5.02498     0.46861     2.18823  0.0
     67     68     74     78   5     0.00000     0.00000     0.00000  0.0
     67     68     74     79   5     0.00000     0.00000     0.00000  0.0
     69     68     74     75   5     0.00000     2.52295     0.00000  0.0
     69     68     74     78   5     0.00000     0.00000     0.00000  0.0
     69     68     74     79   5     0.00000     0.00000     0.00000  0.0
     68     74     75     76   5     0.99998     1.69870    -5.92454  0.0
     68     74     75     80   5     0.00000     0.00000    -0.94140  0.0
     68     74     75     81   5     0.00000     0.00000    -0.94140  0.0
     78     74     75     76   5     0.00000     0.00000    -0.94140  0.0
     78     74     75     80   5     0.00000     0.00000     1.25520  0.0
     78     74     75     81   5     0.00000     0.00000     1.25520  0.0
     79     74     75     76   5     0.00000     0.00000    -0.94140  0.0
     79     74     75     80   5     0.00000     0.00000     1.25520  0.0
     79     74     75     81   5     0.00000     0.00000     1.25520  0.0
     74     75     76     77   5     0.00000     2.52295     0.00000  0.0
     74     75     76     82   5     5.02498     0.46861     2.18823  0.0
     80     75     76     77   5     0.00000     0.00000     0.00000  0.0
     80     75     76     82   5     0.00000     0.00000     0.00000  0.0
     81     75     76     77   5     0.00000     0.00000     0.00000  0.0
     81     75     76     82   5     0.00000     0.00000     0.00000  0.0
     75     76     82     83   5     5.02498     0.46861     2.18823  0.0
     75     76     82     86   5     0.00000     0.00000     0.00000  0.0
     75     76     82     87   5     0.00000     0.00000     0.00000  0.0
     77     76     82     83   5     0.00000     2.52295     0.00000  0.0
     77     76     82     86   5     0.00000     0.00000     0.00000  0.0
     77     76     82     87   5     0.00000     0.00000     0.00000  0.0
     76     82     83     84   5     0.99998     1.69870    -5.92454  0.0
     76     82     83     88   5     0.00000     0.00000    -0.94140  0.0
     76     82     83     89   5     0.00000     0.00000    -0.94140  0.0
     86     82     83     84   5     0.00000     0.00000    -0.94140  0.0
     86     82     83     88   5     0.00000     0.00000     1.25520  0.0
     86     82     83     89   5     0.00000     0.00000     1.25520  0.0
     87     82     83     84   5     0.00000     0.00000    -0.94140  0.0
     87     82     83     88   5     0.00000     0.00000     1.25520  0.0
     87     82     83     89   5     0.00000     0.00000     1.25520  0.0
     82     83     84     85   5     0.00000     2.52295     0.00000  0.0
     82     83     84     90   5     5.02498     0.46861     2.18823  0.0
     88     83     84     85   5     0.00000     0.00000     0.00000  0.0
     88     83     84     90   5     0.00000     0.00000     0.00000  0.0
     89     83     84     85   5     0.00000     0.00000     0.00000  0.0
     89     83     84     90   5     0.00000     0.00000     0.00000  0.0
     83     84     90     91   5     5.02498     0.46861     2.18823  0.0
     83     84     90     94   5     0.00000     0.00000     0.00000  0.0
     83     84     90     95   5     0.00000     0.00000     0.00000  0.0
     85     84     90     91   5     0.00000     2.52295     0.00000  0.0
     85     84     90     94   5     0.00000     0.00000     0.00000  0.0
     85     84     90     95   5     0.00000     0.00000     0.00000  0.0
     84     90     91     92   5     0.99998     1.69870    -5.92454  0.0
     84     90     91     96   5     0.00000     0.00000    -0.94140  0.0
     84     90     91     97   5     0.00000     0.00000    -0.94140  0.0
     94     90     91     92   5     0.00000     0.00000    -0.94140  0.0
     94     90     91     96   5     0.00000     0.00000     1.25520  0.0
     94     90     91     97   5     0.00000     0.00000     1.25520  0.0
     95     90     91     92   5     0.00000     0.00000    -0.94140  0.0
     95     90     91     96   5     0.00000     0.00000     1.25520  0.0
     95     90     91     97   5     0.00000     0.00000     1.25520  0.0
     90     91     92     93   5     0.00000     2.52295     0.00000  0.0
     90     91     92     98   5     5.02498     0.46861     2.18823  0.0
     96     91     92     93   5     0.00000     0.00000     0.00000  0.0
     96     91     92     98   5     0.00000     0.00000     0.00000  0.0
     97     91     92     93   5     0.00000     0.00000     0.00000  0.0
     97     91     92     98   5     0.00000     0.00000     0.00000  0.0
     91     92     98     99   5     5.02498     0.46861     2.18823  0.0
     91     92     98    102   5     0.00000     0.00000     0.00000  0.0
     91     92     98    103   5     0.00000     0.00000     0.00000  0.0
     93     92     98     99   5     0.00000     2.52295     0.00000  0.0
     93     92     98    102   5     0.00000     0.00000     0.00000  0.0
     93     92     98    103   5     0.00000     0.00000     0.00000  0.0
     92     98     99    100   5     0.99998     1.69870    -5.92454  0.0
     92     98     99    104   5     0.00000     0.00000    -0.94140  0.0
     92     98     99    105   5     0.00000     0.00000    -0.94140  0.0
    102     98     99    100   5     0.00000     0.00000    -0.94140  0.0
    102     98     99    104   5     0.00000     0.00000     1.25520  0.0
    102     98     99    105   5     0.00000     0.00000     1.25520  0.0
    103     98     99    100   5     0.00000     0.00000    -0.94140  0.0
    103     98     99    104   5     0.00000     0.00000     1.25520  0.0
    103     98     99    105   5     0.00000     0.00000     1.25520  0.0
     98     99    100    101   5     0.00000     2.52295     0.00000  0.0
     98     99    100    106   5     5.02498     0.46861     2.18823  0.0
    104     99    100    101   5     0.00000     0.00000     0.00000  0.0
    104     99    100    106   5     0.00000     0.00000     0.00000  0.0
    105     99    100    101   5     0.00000     0.00000     0.00000  0.0
    105     99    100    106   5     0.00000     0.00000     0.00000  0.0
     99    100    106    107   5     5.02498     0.46861     2.18823  0.0
     99    100    106    110   5     0.00000     0.00000     0.00000  0.0
     99    100    106    111   5     0.00000     0.00000     0.00000  0.0
    101    100    106    107   5     0.00000     2.52295     0.00000  0.0
    101    100    106    110   5     0.00000     0.00000     0.00000  0.0
    101    100    106    111   5     0.00000     0.00000     0.00000  0.0
    100    106    107    108   5     0.99998     1.69870    -5.92454  0.0
    100    106    107    112   5     0.00000     0.00000    -0.94140  0.0
    100    106    107    113   5     0.00000     0.00000    -0.94140  0.0
    110    106    107    108   5     0.00000     0.00000    -0.94140  0.0
    110    106    107    112   5     0.00000     0.00000     1.25520  0.0
    110    106    107    113   5     0.00000     0.00000     1.25520  0.0
    111    106    107    108   5     0.00000     0.00000    -0.94140  0.0
    111    106    107    112   5     0.00000     0.00000     1.25520  0.0
    111    106    107    113   5     0.00000     0.00000     1.25520  0.0
    106    107    108    109   5     0.00000     2.52295     0.00000  0.0
    106    107    108    114   5     5.02498     0.46861     2.18823  0.0
    112    107    108    109   5     0.00000     0.00000     0.00000  0.0
    112    107    108    114   5     0.00000     0.00000     0.00000  0.0
    113    107    108    109   5     0.00000     0.00000     0.00000  0.0
    113    107    108    114   5     0.00000     0.00000     0.00000  0.0
    107    108    114    115   5     5.02498     0.46861     2.18823  0.0
    107    108    114    118   5     0.00000     0.00000     0.00000  0.0
    107    108    114    119   5     0.00000     0.00000     0.00000  0.0
    109    108    114    115   5     0.00000     2.52295     0.00000  0.0
    109    108    114    118   5     0.00000     0.00000     0.00000  0.0
    109    108    114    119   5     0.00000     0.00000     0.00000  0.0
    108    114    115    116   5     0.99998     1.69870    -5.92454  0.0
    108    114    115    120   5     0.00000     0.00000    -0.94140  0.0
    108    114    115    121   5     0.00000     0.00000    -0.94140  0.0
    118    114    115    116   5     0.00000     0.00000    -0.94140  0.0
    118    114    115    120   5     0.00000     0.00000     1.25520  0.0
    118    114    115    121   5     0.00000     0.00000     1.25520  0.0
    119    114    115    116   5     0.00000     0.00000    -0.94140  0.0
    119    114    115    120   5     0.00000     0.00000     1.25520  0.0
    119    114    115    121   5     0.00000     0.00000     1.25520  0.0
    114    115    116    117   5     0.00000     2.52295     0.00000  0.0
    114    115    116    122   5     5.02498     0.46861     2.18823  0.0
    120    115    116    117   5     0.00000     0.00000     0.00000  0.0
    120    115    116    122   5     0.00000     0.00000     0.00000  0.0
    121    115    116    117   5     0.00000     0.00000     0.00000  0.0
    121    115    116    122   5     0.00000     0.00000     0.00000  0.0
    115    116    122    123   5     5.02498     0.46861     2.18823  0.0
    115    116    122    126   5     0.00000     0.00000     0.00000  0.0
    115    116    122    127   5     0.00000     0.00000     0.00000  0.0
    117    116    122    123   5     0.00000     2.52295     0.00000  0.0
    117    116    122    126   5     0.00000     0.00000     0.00000  0.0
    117    116    122    127   5     0.00000     0.00000     0.00000  0.0
    116    122    123    124   5     0.99998     1.69870    -5.92454  0.0
    116    122    123    128   5     0.00000     0.00000    -0.94140  0.0
    116    122    123    129   5     0.00000     0.00000    -0.94140  0.0
    126    122    123    124   5     0.00000     0.00000    -0.94140  0.0
    126    122    123    128   5     0.00000     0.00000     1.25520  0.0
    126    122    123    129   5     0.00000     0.00000     1.25520  0.0
    127    122    123    124   5     0.00000     0.00000    -0.94140  0.0
    127    122    123    128   5     0.00000     0.00000     1.25520  0.0
    127    122    123    129   5     0.00000     0.00000     1.25520  0.0
    122    123    124    125   5     0.00000     2.52295     0.00000  0.0
    122    123    124    130   5     5.02498     0.46861     2.18823  0.0
    128    123    124    125   5     0.00000     0.00000     0.00000  0.0
    128    123    124    130   5     0.00000     0.00000     0.00000  0.0
    129    123    124    125   5     0.00000     0.00000     0.00000  0.0
    129    123    124    130   5     0.00000     0.00000     0.00000  0.0
    123    124    130    131   5     5.02498     0.46861     2.18823  0.0
    123    124    130    134   5     0.00000     0.00000     0.00000  0.0
    123    124    130    135   5     0.00000     0.00000     0.00000  0.0
    125    124    130    131   5     0.00000     2.52295     0.00000  0.0
    125    124    130    134   5     0.00000     0.00000     0.00000  0.0
    125    124    130    135   5     0.00000     0.00000     0.00000  0.0
    124    130    131    132   5     0.99998     1.69870    -5.92454  0.0
    124    130    131    136   5     0.00000     0.00000    -0.94140  0.0
    124    130    131    137   5     0.00000     0.00000    -0.94140  0.0
    134    130    131    132   5     0.00000     0.00000    -0.94140  0.0
    134    130    131    136   5     0.00000     0.00000     1.25520  0.0
    134    130    131    137   5     0.00000     0.00000     1.25520  0.0
    135    130    131    132   5     0.00000     0.00000    -0.94140  0.0
    135    130    131    136   5     0.00000     0.00000     1.25520  0.0
    135    130    131    137   5     0.00000     0.00000     1.25520  0.0
    130    131    132    133   5     0.00000     2.52295     0.00000  0.0
    130    131    132    138   5     5.02498     0.46861     2.18823  0.0
    136    131    132    133   5     0.00000     0.00000     0.00000  0.0
    136    131    132    138   5     0.00000     0.00000     0.00000  0.0
    137    131    132    133   5     0.00000     0.00000     0.00000  0.0
    137    131    132    138   5     0.00000     0.00000     0.00000  0.0
    131    132    138    139   5     5.02498     0.46861     2.18823  0.0
    131    132    138    142   5     0.00000     0.00000     0.00000  0.0
    131    132    138    143   5     0.00000     0.00000     0.00000  0.0
    133    132    138    139   5     0.00000     2.52295     0.00000  0.0
    133    132    138    142   5     0.00000     0.00000     0.00000  0.0
    133    132    138    143   5     0.00000     0.00000     0.00000  0.0
    132    138    139    140   5     0.99998     1.69870    -5.92454  0.0
    132    138    139    144   5     0.00000     0.00000    -0.94140  0.0
    132    138    139    145   5     0.00000     0.00000    -0.94140  0.0
    142    138    139    140   5     0.00000     0.00000    -0.94140  0.0
    142    138    139    144   5     0.00000     0.00000     1.25520  0.0
    142    138    139    145   5     0.00000     0.00000     1.25520  0.0
    143    138    139    140   5     0.00000     0.00000    -0.94140  0.0
    143    138    139    144   5     0.00000     0.00000     1.25520  0.0
    143    138    139    145   5     0.00000     0.00000     1.25520  0.0
    138    139    140    141   5     0.00000     2.52295     0.00000  0.0
    138    139    140    146   5     5.02498     0.46861     2.18823  0.0
    144    139    140    141   5     0.00000     0.00000     0.00000  0.0
    144    139    140    146   5     0.00000     0.00000     0.00000  0.0
    145    139    140    141   5     0.00000     0.00000     0.00000  0.0
    145    139    140    146   5     0.00000     0.00000     0.00000  0.0
    139    140    146    147   5     5.02498     0.46861     2.18823  0.0
    139    140    146    150   5     0.00000     0.00000     0.00000  0.0
    139    140    146    151   5     0.00000     0.00000     0.00000  0.0
    141    140    146    147   5     0.00000     2.52295     0.00000  0.0
    141    140    146    150   5     0.00000     0.00000     0.00000  0.0
    141    140    146    151   5     0.00000     0.00000     0.00000  0.0
    140    146    147    148   5     0.99998     1.69870    -5.92454  0.0
    140    146    147    152   5     0.00000     0.00000    -0.94140  0.0
    140    146    147    153   5     0.00000     0.00000    -0.94140  0.0
    150    146    147    148   5     0.00000     0.00000    -0.94140  0.0
    150    146    147    152   5     0.00000     0.00000     1.25520  0.0
    150    146    147    153   5     0.00000     0.00000     1.25520  0.0
    151    146    147    148   5     0.00000     0.00000    -0.94140  0.0
    151    146    147    152   5     0.00000     0.00000     1.25520  0.0
    151    146    147    153   5     0.00000     0.00000     1.25520  0.0
    146    147    148    149   5     0.00000     2.52295     0.00000  0.0
    146    147    148    154   5     5.02498     0.46861     2.18823  0.0
    152    147    148    149   5     0.00000     0.00000     0.00000  0.0
    152    147    148    154   5     0.00000     0.00000     0.00000  0.0
    153    147    148    149   5     0.00000     0.00000     0.00000  0.0
    153    147    148    154   5     0.00000     0.00000     0.00000  0.0
    147    148    154    155   5     5.02498     0.46861     2.18823  0.0
    147    148    154    158   5     0.00000     0.00000     0.00000  0.0
    147    148    154    159   5     0.00000     0.00000     0.00000  0.0
    149    148    154    155   5     0.00000     2.52295     0.00000  0.0
    149    148    154    158   5     0.00000     0.00000     0.00000  0.0
    149    148    154    159   5     0.00000     0.00000     0.00000  0.0
    148    154    155    156   5     0.99998     1.69870    -5.92454  0.0
    148    154    155    160   5     0.00000     0.00000    -0.94140  0.0
    148    154    155    161   5     0.00000     0.00000    -0.94140  0.0
    158    154    155    156   5     0.00000     0.00000    -0.94140  0.0
    158    154    155    160   5     0.00000     0.00000     1.25520  0.0
    158    154    155    161   5     0.00000     0.00000     1.25520  0.0
    159    154    155    156   5     0.00000     0.00000    -0.94140  0.0
    159    154    155    160   5     0.00000     0.00000     1.25520  0.0
    159    154    155    161   5     0.00000     0.00000     1.25520  0.0
    154    155    156    157   5     0.00000     2.52295     0.00000  0.0
    154    155    156    162   5     6.23834    -0.04184     0.00000  0.0
    160    155    156    157   5     0.00000     0.00000     0.00000  0.0
    160    155    156    162   5     0.00000     0.00000     0.00000  0.0
    161    155    156    157   5     0.00000     0.00000     0.00000  0.0
    161    155    156    162   5     0.00000     0.00000     0.00000  0.0

[ dihedrals ]
; Improper dihedrals
; h   i   j   k   funct
      2      4      3     10   5     0.00000    87.86400     0.00000  0.0
     11     13     12     18   5     0.00000    87.86400     0.00000  0.0
     19     21     20     26   5     0.00000    87.86400     0.00000  0.0
     27     29     28     34   5     0.00000    87.86400     0.00000  0.0
     35     37     36     42   5     0.00000    87.86400     0.00000  0.0
     43     45     44     50   5     0.00000    87.86400     0.00000  0.0
     51     53     52     58   5     0.00000    87.86400     0.00000  0.0
     59     61     60     66   5     0.00000    87.86400     0.00000  0.0
     67     69     68     74   5     0.00000    87.86400     0.00000  0.0
     75     77     76     82   5     0.00000    87.86400     0.00000  0.0
     83     85     84     90   5     0.00000    87.86400     0.00000  0.0
     91     93     92     98   5     0.00000    87.86400     0.00000  0.0
     99    101    100    106   5     0.00000    87.86400     0.00000  0.0
    107    109    108    114   5     0.00000    87.86400     0.00000  0.0
    115    117    116    122   5     0.00000    87.86400     0.00000  0.0
    123    125    124    130   5     0.00000    87.86400     0.00000  0.0
    131    133    132    138   5     0.00000    87.86400     0.00000  0.0
    139    141    140    146   5     0.00000    87.86400     0.00000  0.0
    147    149    148    154   5     0.00000    87.86400     0.00000  0.0
    155    157    156    162   5     0.00000    87.86400     0.00000  0.0
