Control file title. For DL_FIELD 4.10
49830
    1MOL     C1    1   5.625   2.900   4.329 -0.5939 -0.3329  0.3901
    1MOL     O2    2   5.763   2.863   4.299 -0.0911 -0.1572  0.4756
    1MOL     C3    3   5.796   2.784   4.191 -0.5765  0.6346  0.3418
    1MOL     O4    4   5.717   2.727   4.115  0.0933 -0.4693 -0.4539
    1MOL     C5    5   5.943   2.743   4.189 -0.1618 -0.5065 -0.2932
    1MOL     C6    6   6.026   2.852   4.276 -0.0950 -0.0387 -0.3102
    1MOL     C7    7   5.571   2.999   4.235  0.8265 -0.1274  0.4387
    1MOL     H8    8   5.632   2.954   4.424 -0.0493 -1.0013  0.7365
    1MOL     H9    9   5.964   2.641   4.222  0.8295  0.4790  2.2177
    1MOL    H10   10   5.975   2.770   4.089  1.1687  1.4686  0.6195
    1MOL    H11   11   6.133   2.844   4.257  0.3539 -2.8356  2.9210
    1MOL    H12   12   6.007   2.960   4.274  1.3175  0.4032  4.4994
    1MOL    H13   13   6.004   2.834   4.382  1.0009  0.4844  0.0105
    1MOL    H14   14   5.643   3.062   4.182  0.7065 -0.4343 -0.0972
    1MOL    H15   15   5.527   2.941   4.154 -0.3216 -1.6239  2.0950
    1MOL    H16   16   5.555   2.818   4.349 -0.9550 -0.0606  0.2355
    1MOL    C17   17   5.455   3.081   4.298  0.2620 -0.0259 -0.0512
    1MOL    O18   18   5.520   3.149   4.397 -0.1551  0.0629 -0.2204
    1MOL    C19   19   5.447   3.172   4.517 -0.4854  0.9086  0.0742
    1MOL    O20   20   5.330   3.141   4.536  0.0659 -0.8934 -0.3383
    1MOL    C21   21   5.539   3.232   4.627  0.1790  0.0192  0.0624
    1MOL    C22   22   5.684   3.206   4.607  1.2592  0.6877  0.1005
    1MOL    C23   23   5.404   3.175   4.188  0.9872 -0.4510 -0.0633
    1MOL    H24   24   5.379   3.015   4.339 -0.6382  1.7122  1.1486
    1MOL    H25   25   5.523   3.339   4.641 -0.6280 -0.3298  1.8645
    1MOL    H26   26   5.505   3.194   4.723 -2.0572 -0.5868 -0.9085
    1MOL    H27   27   5.707   3.100   4.616 -1.8417  0.0137  0.8366
    1MOL    H28   28   5.729   3.251   4.518 -0.6435 -1.5337 -2.0749
    1MOL    H29   29   5.753   3.254   4.676  2.8816  1.0601 -1.7152
    1MOL    H30   30   5.480   3.232   4.134  1.5170 -0.6797  0.4406
    1MOL    H31   31   5.377   3.113   4.103  2.7998 -1.2637 -0.0580
    1MOL    C32   32   5.287   3.265   4.232 -0.2281 -0.3460 -0.1964
    1MOL    O33   33   5.267   3.381   4.150  0.2921 -0.1490 -0.3630
    1MOL    C34   34   5.294   3.502   4.206  0.3537  0.3289  0.2259
    1MOL    O35   35   5.328   3.527   4.320 -0.3914 -0.3435  0.5248
    1MOL    C36   36   5.249   3.617   4.115  0.3405 -0.0612 -0.0682
    1MOL    C37   37   5.248   3.755   4.181 -0.0847 -0.5854  0.4927
    1MOL    C38   38   5.161   3.179   4.207 -0.7737  0.2055  0.2432
    1MOL    H39   39   5.300   3.294   4.336  1.1967 -0.6831 -0.2700
    1MOL    H40   40   5.310   3.630   4.025  2.1081  0.5318  1.1785
    1MOL    H41   41   5.149   3.588   4.084 -0.0453 -0.1346  1.2559
    1MOL    H42   42   5.195   3.834   4.127  0.5311 -1.4146 -1.3615
    1MOL    H43   43   5.200   3.743   4.279  2.5316 -1.0603  1.7779
    1MOL    H44   44   5.350   3.789   4.197 -0.4635  0.3391  0.9744
    1MOL    H45   45   5.155   3.141   4.105  0.0959  3.2853 -1.0260
    1MOL    H46   46   5.169   3.086   4.263 -1.3495 -1.7455 -2.8015
    1MOL    C47   47   5.025   3.258   4.244 -1.0109 -0.6042 -0.8538
    1MOL    O48   48   4.915   3.175   4.193 -0.2531 -0.1728  0.0645
    1MOL    C49   49   4.829   3.222   4.105  0.0558  0.2411 -0.2544
    1MOL    O50   50   4.848   3.317   4.034 -0.4962 -0.5086  0.0482
    1MOL    C51   51   4.690   3.147   4.099 -0.1459 -0.1834 -0.3613
    1MOL    C52   52   4.577   3.231   4.034  0.4379 -0.0662 -0.0335
    1MOL    C53   53   4.993   3.255   4.394  0.0530 -0.3040  0.4442
    1MOL    H54   54   5.023   3.358   4.200 -0.6548  0.7269  2.0437
    1MOL    H55   55   4.702   3.056   4.040  1.1128 -0.6020  0.5319
    1MOL    H56   56   4.665   3.109   4.198  1.1073  0.1433  0.0895
    1MOL    H57   57   4.596   3.231   3.927 -1.5005  1.9001 -0.4121
    1MOL    H58   58   4.479   3.187   4.051 -0.0790 -0.3842 -3.4369
    1MOL    H59   59   4.577   3.334   4.069  2.8155 -0.4089  1.0260
    1MOL    H60   60   4.958   3.154   4.420  0.9128 -0.2782  1.7374
    1MOL    H61   61   5.081   3.264   4.457 -0.8002  0.1091  1.5977
    1MOL    C62   62   4.893   3.367   4.429  0.3341  0.4249 -0.2719
    1MOL    O63   63   4.815   3.330   4.542  0.2289 -0.0761  0.0382
    1MOL    C64   64   4.684   3.308   4.526  0.0794 -0.0429 -0.4334
    1MOL    O65   65   4.618   3.302   4.418  0.3736 -0.3043 -0.3085
    1MOL    C66   66   4.602   3.318   4.658 -0.8537  0.0458  0.2503
    1MOL    C67   67   4.520   3.197   4.689 -0.3307 -0.2979 -0.3504
    1MOL    C68   68   4.963   3.505   4.455  0.4071  0.0056 -0.3044
    1MOL    H69   69   4.837   3.378   4.337 -2.0153 -0.6271  0.9900
    1MOL    H70   70   4.681   3.321   4.733  0.3643 -0.1029 -1.0039
    1MOL    H71   71   4.542   3.409   4.659 -0.0949  0.5670  3.3183
    1MOL    H72   72   4.472   3.208   4.786  0.4884  0.5012 -0.0282
    1MOL    H73   73   4.450   3.187   4.606 -0.9491  0.2184  0.0972
    1MOL    H74   74   4.587   3.113   4.706 -0.2942  0.2254  2.4402
    1MOL    H75   75   5.013   3.500   4.552 -0.8025  1.4734  0.4162
    1MOL    H76   76   5.052   3.514   4.394 -1.2468 -0.7963 -2.9098
    1MOL    C77   77   4.866   3.622   4.427  0.1215 -0.4726  1.0221
    1MOL    O78   78   4.934   3.742   4.463 -0.0004  0.1922 -0.2127
    1MOL    C79   79   4.885   3.837   4.543 -0.0390  0.0459 -0.1722
    1MOL    O80   80   4.778   3.824   4.606 -0.6356 -0.0539 -0.0294
    1MOL    C81   81   4.957   3.971   4.539 -0.2385  0.1222  0.3182
    1MOL    C82   82   4.916   4.057   4.652  0.5910  0.5248 -0.3049
    1MOL    C83   83   4.852   3.634   4.266 -0.1917  0.0727 -0.3136
    1MOL    H84   84   4.767   3.610   4.473 -0.8192 -0.8270 -1.0561
    1MOL    H85   85   5.063   3.969   4.516 -0.0532 -0.3552  1.1979
    1MOL    H86   86   4.916   4.008   4.445 -0.0358 -1.9243 -0.6066
    1MOL    H87   87   4.951   4.159   4.638 -0.7607  1.2530  1.4068
    1MOL    H88   88   4.808   4.070   4.661  0.2286 -1.8434 -0.8561
    1MOL    H89   89   4.947   4.019   4.749  2.4126 -0.3732 -1.2141
    1MOL    H90   90   4.946   3.679   4.232  0.7056  0.0168  2.0276
    1MOL    H91   91   4.845   3.541   4.209  0.4669 -1.3014  1.8034
    1MOL    C92   92   4.732   3.720   4.227  0.8193  0.2993  0.4657
    1MOL    O93   93   4.755   3.770   4.096 -0.3867 -0.0294 -0.1881
    1MOL    C94   94   4.838   3.879   4.087  0.2219 -0.3097  0.0675
    1MOL    O95   95   4.905   3.931   4.172  0.0892 -0.2472  0.1132
    1MOL    C96   96   4.844   3.940   3.946  0.3522 -1.1880 -0.3502
    1MOL    C97   97   4.761   4.060   3.935 -0.6219  0.0628 -0.5446
    1MOL    C98   98   4.601   3.640   4.217 -0.3419  0.7070  0.8851
    1MOL    H99   99   4.712   3.794   4.304 -0.6624 -1.2318  1.5952
    1MOL   H100  100   4.944   3.964   3.909  0.8583  1.4864  2.5096
    1MOL   H101  101   4.808   3.869   3.871 -1.9753  0.8180 -1.2120
    1MOL   H102  102   4.655   4.035   3.942  0.1397 -3.6115 -0.8576
    1MOL   H103  103   4.786   4.120   4.022  0.9155 -2.7010  1.0025
    1MOL   H104  104   4.780   4.123   3.848  1.4099  1.1275  0.6413
    1MOL   H105  105   4.580   3.599   4.119 -0.0936  0.8383  0.7757
    1MOL   H106  106   4.617   3.551   4.279  1.7895  2.0271  2.3112
    1MOL   C107  107   4.471   3.720   4.264  0.8153 -0.3215  0.4455
    1MOL   O108  108   4.483   3.765   4.397 -0.4079 -0.0329  0.2630
    1MOL   C109  109   4.457   3.680   4.500  0.1587  0.5426  0.2907
    1MOL   O110  110   4.440   3.559   4.493 -0.6613 -0.4556 -0.4137
    1MOL   C111  111   4.441   3.749   4.635 -0.1772  0.6940  0.2605
    1MOL   C112  112   4.289   3.765   4.676  0.5843  0.7690 -0.2482
    1MOL   C113  113   4.445   3.841   4.170  0.2431 -0.0693 -0.2839
    1MOL   H114  114   4.383   3.656   4.266 -1.9305  3.2949  0.1349
    1MOL   H115  115   4.492   3.686   4.708  1.1356 -0.4576 -1.6074
    1MOL   H116  116   4.489   3.847   4.632 -0.0710  0.6585  0.7934
    1MOL   H117  117   4.286   3.789   4.782  0.7742 -2.2533  0.4644
    1MOL   H118  118   4.238   3.840   4.614 -2.6759 -0.3217  0.9816
    1MOL   H119  119   4.228   3.677   4.657  0.4733  0.8106 -0.0872
    1MOL   H120  120   4.508   3.928   4.185 -0.4318  0.3004  0.5187
    1MOL   H121  121   4.471   3.815   4.068  1.7061  1.4338 -0.3121
    1MOL   C122  122   4.294   3.890   4.180  0.2758 -0.2607  0.2769
    1MOL   O123  123   4.285   4.018   4.124  0.2130  0.3583  0.4154
    1MOL   C124  124   4.233   4.116   4.191  0.2431  0.1254  0.0181
    1MOL   O125  125   4.181   4.104   4.302  0.5029 -0.2445 -0.0832
    1MOL   C126  126   4.251   4.253   4.126 -0.7550 -0.3504 -0.7074
    1MOL   C127  127   4.342   4.264   4.008 -0.3623 -0.4567  0.1602
    1MOL   C128  128   4.194   3.794   4.111  0.2198 -0.2184  0.4890
    1MOL   H129  129   4.263   3.897   4.285 -0.9196  3.2082 -0.2451
    1MOL   H130  130   4.154   4.298   4.107 -1.7968 -0.8482  3.0465
    1MOL   H131  131   4.288   4.316   4.207 -2.6225 -1.2832  0.8919
    1MOL   H132  132   4.429   4.205   4.036 -1.0148 -1.0344  1.0156
    1MOL   H133  133   4.303   4.223   3.915 -1.4745 -0.3249  0.5587
    1MOL   H134  134   4.376   4.366   3.988 -0.4203 -0.2805  0.9318
    1MOL   H135  135   4.191   3.811   4.004  1.2180  4.3465  1.0730
    1MOL   H136  136   4.232   3.693   4.130 -0.6255 -0.7625 -0.6409
    1MOL   C137  137   4.052   3.799   4.164 -0.4793  0.1238  0.2986
    1MOL   O138  138   3.968   3.741   4.068 -0.0108  0.5135  0.2137
    1MOL   C139  139   3.855   3.801   4.015 -0.4871  0.6414 -0.4762
    1MOL   O140  140   3.822   3.921   4.036  0.3236  0.7405 -0.0105
    1MOL   C141  141   3.772   3.721   3.917 -0.6649  0.4984 -0.4432
    1MOL   C142  142   3.625   3.767   3.903  0.9168  0.3171  0.1309
    1MOL   C143  143   4.038   3.721   4.305 -0.5291 -0.5609 -0.2747
    1MOL   H144  144   4.012   3.900   4.173  2.0830  1.4565 -2.2563
    1MOL   H145  145   3.817   3.719   3.818 -0.2841  0.2015 -0.2651
    1MOL   H146  146   3.765   3.617   3.950  0.2909  0.9135  1.1304
    1MOL   H147  147   3.559   3.721   3.976 -0.0616 -0.0913 -0.9861
    1MOL   H148  148   3.601   3.874   3.903  2.7748  0.7548  0.1771
    1MOL   H149  149   3.599   3.741   3.800 -0.7138 -1.1358  0.8903
    1MOL   H150  150   4.095   3.628   4.299 -1.3662 -1.1537  0.7803
    1MOL   H151  151   4.080   3.788   4.380  0.9148 -1.2688 -0.4488
    1MOL   C152  152   3.891   3.694   4.358 -0.8660 -0.8291 -0.4733
    1MOL   O153  153   3.908   3.633   4.486  0.2300 -0.6941  0.0369
    1MOL   C154  154   3.955   3.510   4.508  0.2070  0.4734 -0.3023
    1MOL   O155  155   3.969   3.422   4.421 -0.0178  0.6168 -0.0945
    1MOL   C156  156   4.000   3.477   4.649  0.4745 -0.2478  0.2701
    1MOL   C157  157   4.023   3.330   4.684  0.0544  0.1277  0.1848
    1MOL   C158  158   3.817   3.829   4.384  0.1387 -0.0319  0.2670
    1MOL   H159  159   3.835   3.631   4.289 -1.1470 -2.5931  1.3035
    1MOL   H160  160   4.092   3.535   4.660  0.1387  0.4768 -0.6367
    1MOL   H161  161   3.913   3.522   4.696 -0.2291 -0.0017 -1.2298
    1MOL   H162  162   3.923   3.290   4.703  0.0881 -0.4733 -0.8682
    1MOL   H163  163   4.084   3.283   4.607 -0.1758  0.5747 -0.2713
    1MOL   H164  164   4.075   3.320   4.779  0.3217  1.3231  0.1703
    1MOL   H165  165   3.869   3.892   4.457  0.5779  0.6443 -0.6206
    1MOL   H166  166   3.813   3.885   4.291 -2.0928 -0.6349 -0.0380
    1MOL   C167  167   3.673   3.798   4.422  0.4105 -1.0859  0.2379
    1MOL   O168  168   3.629   3.920   4.484  0.6052  0.4834 -0.0332
    1MOL   C169  169   3.551   3.923   4.599 -0.6246 -0.5295 -0.1501
    1MOL   O170  170   3.496   3.826   4.651 -0.8704 -0.0606  0.4296
    1MOL   C171  171   3.533   4.067   4.651  0.4119  0.2966 -0.1763
    1MOL   C172  172   3.635   4.116   4.761 -0.0070 -0.2946  0.0094
    1MOL   C173  173   3.584   3.754   4.298  0.6864 -0.0952  0.3163
    1MOL   H174  174   3.671   3.717   4.495 -0.5243 -0.3285  1.0674
    1MOL   H175  175   3.544   4.134   4.565  0.1453  0.7401  0.1322
    1MOL   H176  176   3.434   4.070   4.697  1.1289  1.3781  1.3212
    1MOL   H177  177   3.736   4.105   4.721 -0.0607  0.8537 -0.4627
    1MOL   H178  178   3.616   4.220   4.788 -2.1772 -0.9051  0.9698
    1MOL   H179  179   3.620   4.063   4.855 -0.4843  0.4618  0.3654
    1MOL   H180  180   3.591   3.836   4.226  2.1021 -0.5875 -0.1263
    1MOL   H181  181   3.640   3.681   4.240 -1.4911 -0.2963 -1.5797
    1MOL   C182  182   3.442   3.710   4.324  0.1628 -0.0609  0.2217
    1MOL   O183  183   3.385   3.678   4.202  0.9494 -0.1986  0.0614
    1MOL   C184  184   3.256   3.708   4.171 -0.2890 -0.1338 -0.0533
    1MOL   O185  185   3.166   3.764   4.239 -0.2521 -0.2242  0.0137
    1MOL   C186  186   3.224   3.668   4.023  0.9501  0.1165 -0.4775
    1MOL   C187  187   3.080   3.602   4.022  0.2358 -0.0896 -0.4960
    1MOL   C188  188   3.439   3.586   4.406 -0.2036  0.9655  0.3600
    1MOL   H189  189   3.381   3.785   4.375  1.7173 -0.2292  2.4113
    1MOL   H190  190   3.213   3.753   3.956 -1.0413 -0.3161 -0.7380
    1MOL   H191  191   3.297   3.595   3.986  0.9622  0.4934 -1.2026
    1MOL   H192  192   3.080   3.522   4.097  0.0270  0.4570  0.0842
    1MOL   H193  193   3.002   3.676   4.038  0.3637 -0.2823  1.1505
    1MOL   H194  194   3.069   3.542   3.932 -0.6120 -1.7481  0.6838
    1MOL   H195  195   3.465   3.507   4.336  0.1305  0.3187  1.2080
    1MOL   H196  196   3.507   3.593   4.491 -1.5468 -1.7308  1.7340
    1MOL   C197  197   3.304   3.547   4.479 -0.4783 -0.3374 -0.0672
    1MOL   O198  198   3.301   3.404   4.493  0.2143  0.2061  0.8560
    1MOL   C199  199   3.200   3.333   4.430  0.2177 -0.2491  0.2775
    1MOL   O200  200   3.096   3.390   4.398  0.5308  0.4258 -0.3062
    1MOL   C201  201   3.240   3.185   4.401  0.6315  0.2343  0.0149
    1MOL   C202  202   3.253   3.107   4.531 -0.3426 -0.1614  0.1287
    1MOL   C203  203   3.258   3.626   4.603  0.3763 -0.1750 -0.1442
    1MOL   H204  204   3.232   3.565   4.400  1.6004 -0.5141 -2.0739
    1MOL   H205  205   3.172   3.124   4.341  0.1212  0.7306  0.0794
    1MOL   H206  206   3.341   3.182   4.360 -0.2193  3.2348 -2.5633
    1MOL   H207  207   3.307   3.014   4.514 -0.1335  0.0188 -0.1864
    1MOL   H208  208   3.309   3.158   4.611 -0.3386  0.7487 -0.4461
    1MOL   H209  209   3.154   3.085   4.572  0.8324 -0.8497  2.7461
    1MOL   H210  210   3.336   3.613   4.679 -0.6777  0.7682  1.1306
    1MOL   H211  211   3.250   3.731   4.574  1.3214 -0.4361 -1.3898
    1MOL   C212  212   3.117   3.581   4.665  0.2885 -0.4839  0.0448
    1MOL   O213  213   3.112   3.452   4.717  0.5398  0.5868  0.1030
    1MOL   C214  214   2.999   3.378   4.734  0.1237 -0.8171  0.2446
    1MOL   O215  215   2.894   3.410   4.673  0.0994 -0.8956  0.0533
    1MOL   C216  216   3.012   3.251   4.817  0.2943 -0.5963 -0.0768
    1MOL   C217  217   2.905   3.146   4.789  0.0324  0.0287 -0.2655
    1MOL   C218  218   3.070   3.685   4.776  0.7240 -0.5830 -0.1614
    1MOL   H219  219   3.048   3.588   4.581 -0.2164  2.2479  0.6485
    1MOL   H220  220   3.111   3.210   4.795  0.4953 -0.1453 -0.0163
    1MOL   H221  221   3.020   3.275   4.923 -0.6463 -2.2396  0.3923
    1MOL   H222  222   2.894   3.120   4.684 -1.9400  0.2406 -0.1300
    1MOL   H223  223   2.921   3.059   4.852  1.9349  0.7115  0.2524
    1MOL   H224  224   2.805   3.175   4.821  0.5482  0.5647  0.9122
    1MOL   H225  225   3.078   3.781   4.725  0.0992 -1.2353 -1.5099
    1MOL   H226  226   2.964   3.676   4.802  1.0083 -1.5439  0.6993
    1MOL   C227  227   3.154   3.695   4.904 -0.2756 -0.1063  0.8441
    1MOL   O228  228   3.139   3.828   4.952 -0.6858 -0.2773  0.0193
    1MOL   C229  229   3.244   3.913   4.942  0.1023 -0.0050  0.2669
    1MOL   O230  230   3.362   3.894   4.913 -0.1789  0.3001 -0.9485
    1MOL   C231  231   3.193   4.052   4.990  0.6897 -0.3254 -0.0358
    1MOL   C232  232   3.291   4.171   4.957 -0.0001 -1.0727 -0.3050
    1MOL   C233  233   3.096   3.603   5.012 -0.5243 -0.1939  0.1670
    1MOL   H234  234   3.260   3.676   4.887 -0.4305 -1.9331  1.8080
    1MOL   H235  235   3.088   4.066   4.964  1.6388  1.0775 -3.4754
    1MOL   H236  236   3.197   4.034   5.097  0.1714  2.2751  0.4618
    1MOL   H237  237   3.391   4.156   4.999  0.2212  2.1037  0.3755
    1MOL   H238  238   3.311   4.174   4.850 -0.2796 -0.9331 -0.3529
    1MOL   H239  239   3.264   4.263   5.008 -1.0700 -1.2624 -0.5085
    1MOL   H240  240   2.990   3.625   5.025 -0.0003  1.4610  1.8877
    1MOL   H241  241   3.105   3.502   4.970  1.3650 -0.2729  0.7065
    1MOL   C242  242   3.156   3.581   5.153  0.0606  0.0310 -0.5562
    1MOL   O243  243   3.108   3.453   5.194 -0.0880 -0.2685  0.4357
    1MOL   C244  244   3.032   3.443   5.312 -0.0074 -0.3774  0.4859
    1MOL   O245  245   2.998   3.538   5.374  0.3180  0.3804 -0.2436
    1MOL   C246  246   2.991   3.302   5.348  0.0212  0.7078  0.1177
    1MOL   C247  247   2.886   3.253   5.243  0.4602 -0.2374  0.2421
    1MOL   C248  248   3.306   3.586   5.155 -1.0175  0.5806 -1.1419
    1MOL   H249  249   3.127   3.663   5.219  1.3687 -0.8812  1.2139
    1MOL   H250  250   3.084   3.244   5.345 -0.6711 -0.4313  0.2613
    1MOL   H251  251   2.945   3.297   5.447 -2.1387  1.8961 -0.8126
    1MOL   H252  252   2.801   3.320   5.256  0.7574  0.3833 -0.9169
    1MOL   H253  253   2.916   3.256   5.138 -0.3098  0.3961  0.0401
    1MOL   H254  254   2.851   3.155   5.274 -1.7032  0.6326  0.6001
    1MOL   H255  255   3.359   3.522   5.085 -0.8031  0.4763 -0.8825
    1MOL   H256  256   3.346   3.679   5.115 -0.0528  1.1073  0.9483
    1MOL   C257  257   3.377   3.565   5.294  0.4285 -0.6175 -0.2352
    1MOL   O258  258   3.409   3.427   5.310  0.3278 -0.0191 -0.5409
    1MOL   C259  259   3.396   3.379   5.436  0.4785 -0.2288  0.1298
    1MOL   O260  260   3.363   3.442   5.538  0.0427  0.8184  1.0946
    1MOL   C261  261   3.447   3.234   5.447 -0.1316  0.4717  0.1338
    1MOL   C262  262   3.523   3.173   5.321 -0.0345 -0.1362  0.2428
    1MOL   C263  263   3.516   3.637   5.305 -0.1838  0.2512  0.9972
    1MOL   H264  264   3.310   3.599   5.372  0.5698  1.9443 -1.1734
    1MOL   H265  265   3.514   3.228   5.534 -1.3487 -2.6604  0.9499
    1MOL   H266  266   3.359   3.175   5.474 -0.2847  1.3568  1.6222
    1MOL   H267  267   3.506   3.065   5.324 -1.0907 -0.0557 -2.1172
    1MOL   H268  268   3.501   3.206   5.220 -0.4528 -3.2836 -0.7552
    1MOL   H269  269   3.632   3.174   5.335  0.1790 -1.2644 -1.2494
    1MOL   H270  270   3.575   3.590   5.382 -0.6473 -2.6952 -0.3682
    1MOL   H271  271   3.585   3.618   5.223 -1.9355  1.9709 -0.9327
    1MOL   C272  272   3.504   3.781   5.328  0.3351 -0.2224  0.4477
    1MOL   O273  273   3.440   3.803   5.450 -0.0508 -0.0869 -0.1641
    1MOL   C274  274   3.332   3.879   5.456  0.7951 -0.1614  0.0691
    1MOL   O275  275   3.271   3.929   5.365 -0.2918 -0.7254  0.0996
    1MOL   C276  276   3.291   3.906   5.603 -0.3269 -0.0002 -0.5753
    1MOL   C277  277   3.359   4.034   5.650 -0.0692  0.6104  0.3187
    1MOL   C278  278   3.641   3.854   5.334 -0.5061  0.1618 -0.6707
    1MOL   H279  279   3.449   3.815   5.240  0.8330  0.1086  0.2630
    1MOL   H280  280   3.184   3.923   5.607 -0.5023 -1.1326 -0.1635
    1MOL   H281  281   3.314   3.823   5.670  0.9589  0.0292 -0.9638
    1MOL   H282  282   3.333   4.116   5.583  0.3910  0.0888 -0.5060
    1MOL   H283  283   3.330   4.076   5.746 -1.1938  0.5208  0.0215
    1MOL   H284  284   3.467   4.030   5.663 -0.0275  1.3996  0.2160
    1MOL   H285  285   3.692   3.823   5.425  0.3217  1.4604 -0.6728
    1MOL   H286  286   3.695   3.800   5.256 -1.5032 -0.8040 -0.7055
    1MOL   C287  287   3.637   4.002   5.315  0.0806 -0.5020  0.8879
    1MOL   O288  288   3.753   4.070   5.356 -0.5853 -0.4361 -0.0120
    1MOL   C289  289   3.806   4.066   5.481 -0.4192  0.3003  0.7033
    1MOL   O290  290   3.775   3.988   5.566  0.5239 -0.0900 -0.1946
    1MOL   C291  291   3.913   4.173   5.500 -0.4619 -0.2795  0.7172
    1MOL   C292  292   4.059   4.119   5.527  0.4602 -0.2506 -0.3074
    1MOL   C293  293   3.622   4.039   5.169 -0.2622  0.1700 -0.5850
    1MOL   H294  294   3.550   4.034   5.371 -1.0279 -2.4876  0.3635
    1MOL   H295  295   3.905   4.234   5.410 -0.8224  0.5041  1.2736
    1MOL   H296  296   3.876   4.239   5.579  0.2670  0.3034  0.5770
    1MOL   H297  297   4.090   4.093   5.628  1.0890 -0.9018 -0.6643
    1MOL   H298  298   4.080   4.030   5.469  2.0436 -0.0487 -0.0702
    1MOL   H299  299   4.128   4.188   5.478 -0.3736 -0.5641 -1.9578
    1MOL   H300  300   3.518   4.017   5.143 -1.0683  1.9994  0.9594
    1MOL   H301  301   3.629   4.147   5.152  0.4010  0.1957 -0.1735
    1MOL   H302  302   3.689   3.985   5.102 -0.3679 -0.2994 -0.3132
    2MOL     C1  303   2.472   5.780   2.461  0.0049  0.4725  0.6219
    2MOL     O2  304   2.583   5.709   2.411  0.2480  0.3851 -0.4148
    2MOL     C3  305   2.583   5.666   2.286  0.5071 -0.0402  0.4931
    2MOL     O4  306   2.493   5.692   2.201 -0.1452  0.1031  0.2322
    2MOL     C5  307   2.705   5.579   2.270 -0.0367 -0.4892 -0.2511
    2MOL     C6  308   2.838   5.650   2.316  0.3235 -0.2780  0.0031
    2MOL     C7  309   2.515   5.864   2.582  1.1171 -0.1077 -0.4073
    2MOL     H8  310   2.406   5.701   2.494 -0.9687  0.3751 -1.4905
    2MOL     H9  311   2.688   5.494   2.336  1.4865  0.4650  1.4200
    2MOL    H10  312   2.709   5.547   2.166  0.9204 -1.7789  0.1755
    2MOL    H11  313   2.843   5.643   2.425 -1.6812  0.9974  0.2159
    2MOL    H12  314   2.919   5.595   2.270 -1.0675 -2.0947 -0.3253
    2MOL    H13  315   2.844   5.753   2.280 -2.9966  0.0214  0.0646
    2MOL    H14  316   2.424   5.904   2.627  1.9583  1.8001 -0.3510
    2MOL    H15  317   2.572   5.805   2.654  0.8348  0.0805 -0.0261
    2MOL    H16  318   2.426   5.845   2.386  0.6926 -0.8405 -0.9635
    2MOL    C17  319   2.598   5.989   2.550 -0.6867 -0.4836 -0.6643
    2MOL    O18  320   2.511   6.077   2.482 -0.1349 -0.1463  0.7634
    2MOL    C19  321   2.541   6.135   2.364  0.3882 -0.1100  0.3849
    2MOL    O20  322   2.634   6.105   2.295  0.6375 -0.1069 -0.0773
    2MOL    C21  323   2.443   6.249   2.332  0.8124  0.5602  0.4333
    2MOL    C22  324   2.470   6.311   2.192  0.6901  0.8920 -0.3437
    2MOL    C23  325   2.649   6.052   2.680  0.1140  0.2604  0.2171
    2MOL    H24  326   2.672   5.938   2.488 -2.0729 -1.2042 -1.7481
    2MOL    H25  327   2.342   6.212   2.347  0.9965  0.5028  1.5818
    2MOL    H26  328   2.453   6.333   2.400 -2.6530  0.5786  0.9787
    2MOL    H27  329   2.403   6.396   2.181 -1.6537 -0.8654 -0.2524
    2MOL    H28  330   2.577   6.330   2.187  1.3641 -2.6736 -0.8622
    2MOL    H29  331   2.447   6.246   2.107  1.5613  1.3300 -0.9140
    2MOL    H30  332   2.567   6.052   2.751 -0.0387 -0.1885  0.0409
    2MOL    H31  333   2.723   5.984   2.723 -1.3503 -1.4235  0.1527
    2MOL    C32  334   2.702   6.199   2.667 -0.4385  0.2940 -0.1391
    2MOL    O33  335   2.711   6.241   2.801 -0.3954 -0.0443 -0.0802
    2MOL    C34  336   2.671   6.371   2.834 -0.5344 -1.2213 -0.0117
    2MOL    O35  337   2.620   6.457   2.755 -0.0662 -0.1864  0.3531
    2MOL    C36  338   2.703   6.395   2.981  0.0560 -0.6458 -0.7213
    2MOL    C37  339   2.728   6.547   3.006  0.5256 -0.2210 -0.2486
    2MOL    C38  340   2.832   6.207   2.592  0.1175 -0.2782 -0.3280
    2MOL    H39  341   2.627   6.259   2.616  1.2288 -0.7558 -4.0277
    2MOL    H40  342   2.616   6.358   3.034 -0.6120  0.3055 -1.1501
    2MOL    H41  343   2.798   6.344   2.998 -0.0750 -0.2957  1.1496
    2MOL    H42  344   2.807   6.601   2.954 -0.8538  1.1032 -1.0153
    2MOL    H43  345   2.642   6.613   2.997  0.3696 -0.5363 -1.1161
    2MOL    H44  346   2.750   6.562   3.112 -2.7329 -1.4817  0.6630
    2MOL    H45  347   2.913   6.183   2.660 -1.4832 -1.7451  1.0993
    2MOL    H46  348   2.841   6.144   2.504  1.3245 -1.5594  0.7091
    2MOL    C47  349   2.862   6.349   2.545 -0.1529 -0.2754 -0.3001
    2MOL    O48  350   2.994   6.350   2.496  0.2306  0.5837  0.1652
    2MOL    C49  351   3.069   6.455   2.511  0.5513 -0.3319  0.1531
    2MOL    O50  352   3.038   6.547   2.579 -0.6146 -0.0655 -0.2361
    2MOL    C51  353   3.186   6.453   2.417 -0.5411  0.0917  0.4937
    2MOL    C52  354   3.274   6.575   2.439 -0.2288  0.1255  0.0374
    2MOL    C53  355   2.767   6.405   2.438 -0.2419  0.5883 -0.0498
    2MOL    H54  356   2.855   6.408   2.637  1.5851  3.4835 -2.4812
    2MOL    H55  357   3.251   6.369   2.441 -1.0041 -0.4754 -0.2177
    2MOL    H56  358   3.156   6.448   2.312  0.8362  0.1496  0.0909
    2MOL    H57  359   3.308   6.582   2.542  1.6692  1.0428 -0.6292
    2MOL    H58  360   3.365   6.560   2.380  1.4938 -1.5069  2.9897
    2MOL    H59  361   3.237   6.669   2.398 -2.2237 -1.4318 -1.8922
    2MOL    H60  362   2.802   6.352   2.350 -0.5722  3.0536 -1.7390
    2MOL    H61  363   2.665   6.383   2.471  0.1691  0.6000  1.2275
    2MOL    C62  364   2.768   6.557   2.398 -0.1050  0.3946 -0.3767
    2MOL    O63  365   2.675   6.582   2.295 -0.7210  0.4221 -0.3002
    2MOL    C64  366   2.717   6.615   2.170  0.0074  0.4731  0.3540
    2MOL    O65  367   2.836   6.624   2.134 -0.1088 -0.1988 -0.3816
    2MOL    C66  368   2.605   6.641   2.068  0.0476  0.1501 -0.5609
    2MOL    C67  369   2.636   6.601   1.926 -0.2277 -0.6504  0.0768
    2MOL    C68  370   2.730   6.643   2.518  0.0478  0.0312  0.2776
    2MOL    H69  371   2.870   6.583   2.368  0.0393  1.5969  1.1362
    2MOL    H70  372   2.509   6.600   2.099 -0.0062  0.7114  0.0146
    2MOL    H71  373   2.588   6.748   2.065  0.1839  0.1409 -2.5630
    2MOL    H72  374   2.629   6.492   1.930 -0.1799 -0.6822 -0.6808
    2MOL    H73  375   2.569   6.654   1.859 -0.3868 -1.5980 -0.5228
    2MOL    H74  376   2.738   6.619   1.893 -0.7317  1.0229 -0.6122
    2MOL    H75  377   2.636   6.609   2.563  0.0655 -0.3145  0.0631
    2MOL    H76  378   2.801   6.634   2.599 -2.4463  0.7718  2.6170
    2MOL    C77  379   2.737   6.792   2.499  0.5445  0.1405 -0.4522
    2MOL    O78  380   2.689   6.856   2.614 -0.6045 -0.0561  0.0026
    2MOL    C79  381   2.582   6.928   2.613  0.1029  0.2791  0.3298
    2MOL    O80  382   2.531   6.986   2.519  0.0943 -0.5012  0.0984
    2MOL    C81  383   2.525   6.949   2.751 -0.1248  0.6581  0.7507
    2MOL    C82  384   2.477   6.816   2.812 -0.7111  0.1667  0.1158
    2MOL    C83  385   2.872   6.853   2.474  0.0480  0.2590  0.3417
    2MOL    H84  386   2.674   6.816   2.413 -1.0922  1.1565  0.9950
    2MOL    H85  387   2.591   7.009   2.814 -0.6495 -0.0321  1.9910
    2MOL    H86  388   2.432   7.004   2.734 -0.1801  0.0941 -0.7746
    2MOL    H87  389   2.539   6.733   2.778  0.1359  1.3491 -1.2683
    2MOL    H88  390   2.500   6.828   2.918 -0.4042 -1.0789  0.2012
    2MOL    H89  391   2.372   6.797   2.790 -1.2370  1.7649  1.1538
    2MOL    H90  392   2.911   6.870   2.574 -3.0010  0.4525  1.5426
    2MOL    H91  393   2.934   6.776   2.427 -0.8318  0.2275 -0.7856
    2MOL    C92  394   2.884   6.980   2.383 -0.0613 -0.2946 -0.2537
    2MOL    O93  395   3.012   7.048   2.405  0.0474  0.5744  0.4059
    2MOL    C94  396   3.023   7.180   2.422  0.3660  0.3350 -0.0623
    2MOL    O95  397   2.921   7.255   2.433  0.2019 -0.4625  0.3902
    2MOL    C96  398   3.168   7.232   2.420 -0.6074 -0.9383 -0.8850
    2MOL    C97  399   3.257   7.165   2.321 -0.8549 -0.7303 -0.2617
    2MOL    C98  400   2.880   6.942   2.234 -0.6928  0.1138 -0.4339
    2MOL    H99  401   2.805   7.051   2.406 -0.0978 -0.4957  0.2450
    2MOL   H100  402   3.169   7.339   2.400  0.8601 -0.3955  1.7938
    2MOL   H101  403   3.200   7.219   2.524 -0.3411  1.4428 -0.6563
    2MOL   H102  404   3.209   7.178   2.223 -0.1280 -0.3914 -0.5739
    2MOL   H103  405   3.358   7.204   2.311 -1.8807  1.5166 -2.5537
    2MOL   H104  406   3.264   7.059   2.345 -0.7365 -0.8831 -0.9680
    2MOL   H105  407   2.965   6.876   2.218 -0.2743  0.6376 -0.3938
    2MOL   H106  408   2.785   6.900   2.201  0.9248 -2.3206 -2.1701
    2MOL   C107  409   2.904   7.059   2.132 -0.4695  0.5016 -0.0212
    2MOL   O108  410   2.895   6.991   2.011  0.3586  0.5205 -0.2684
    2MOL   C109  411   2.972   7.027   1.913 -0.6184  0.2676  0.3365
    2MOL   O110  412   3.055   7.115   1.904 -0.1149  0.4344  0.1398
    2MOL   C111  413   2.954   6.937   1.783  0.5198 -0.5790 -0.0791
    2MOL   C112  414   2.810   6.913   1.739 -0.3120 -0.2383 -0.4610
    2MOL   C113  415   2.808   7.178   2.126 -0.8400  0.0084 -0.1986
    2MOL   H114  416   3.004   7.101   2.146 -1.9566  4.2991 -0.1157
    2MOL   H115  417   3.011   6.976   1.699 -0.4359 -0.7847 -0.8226
    2MOL   H116  418   2.997   6.837   1.793  2.5446  0.0527 -2.1843
    2MOL   H117  419   2.805   6.890   1.633 -1.1342 -0.6703 -0.3330
    2MOL   H118  420   2.761   6.831   1.792 -0.9288  0.6175  0.3184
    2MOL   H119  421   2.740   6.994   1.758  0.8934  0.9301 -0.9127
    2MOL   H120  422   2.799   7.222   2.226  1.6558 -0.3926  0.2361
    2MOL   H121  423   2.843   7.262   2.067 -0.0074  1.0557  1.7474
    2MOL   C122  424   2.670   7.154   2.073  0.3296 -0.4847  0.1877
    2MOL   O123  425   2.602   7.062   2.163  0.1722  0.2434 -0.2629
    2MOL   C124  426   2.504   6.981   2.119 -0.3721 -0.3969 -0.2285
    2MOL   O125  427   2.481   6.961   2.001 -0.2448  0.0436 -0.0828
    2MOL   C126  428   2.432   6.908   2.235 -0.0834  0.5328 -0.2802
    2MOL   C127  429   2.311   6.825   2.190 -0.2931 -0.1219 -0.4475
    2MOL   C128  430   2.583   7.278   2.078  0.6821  1.0194  0.1580
    2MOL   H129  431   2.666   7.119   1.969  0.4367 -1.9929  0.6868
    2MOL   H130  432   2.503   6.848   2.293  0.0014  1.3885  0.5125
    2MOL   H131  433   2.393   6.981   2.306 -1.1951  1.4795 -1.8412
    2MOL   H132  434   2.318   6.809   2.082 -0.3335 -0.4059 -0.4073
    2MOL   H133  435   2.303   6.734   2.249  2.8739  0.0616  0.3491
    2MOL   H134  436   2.214   6.870   2.210 -1.7684 -2.5910 -1.7448
    2MOL   H135  437   2.478   7.247   2.075  0.3974  1.9929  0.1231
    2MOL   H136  438   2.582   7.329   2.174 -1.1129 -0.6719  1.0734
    2MOL   C137  439   2.609   7.377   1.961  0.7329  0.4088 -0.0720
    2MOL   O138  440   2.564   7.331   1.832 -0.2545  0.3173 -0.0682
    2MOL   C139  441   2.648   7.316   1.722 -0.1350  0.2132 -0.6623
    2MOL   O140  442   2.769   7.333   1.718 -0.1756 -0.2607 -0.6285
    2MOL   C141  443   2.575   7.281   1.594 -0.2357 -0.6300 -0.7697
    2MOL   C142  444   2.669   7.246   1.477 -0.5272 -0.1023  0.3743
    2MOL   C143  445   2.537   7.516   1.984  0.2753  0.1775 -0.5786
    2MOL   H144  446   2.717   7.383   1.964  0.7403  0.3818 -0.2706
    2MOL   H145  447   2.504   7.200   1.607  0.2511 -0.6860  1.8039
    2MOL   H146  448   2.519   7.369   1.563 -1.6090 -0.1940  2.6557
    2MOL   H147  449   2.600   7.237   1.393 -1.4765  0.4908  1.0760
    2MOL   H148  450   2.739   7.327   1.457 -0.9880 -0.0611 -1.0907
    2MOL   H149  451   2.714   7.155   1.515  1.4805  0.5904 -0.2708
    2MOL   H150  452   2.492   7.543   1.889  0.8589  0.2947 -0.8210
    2MOL   H151  453   2.450   7.493   2.046 -0.2952 -2.0322 -2.1338
    2MOL   C152  454   2.621   7.630   2.055 -0.2438  0.3772  0.0006
    2MOL   O153  455   2.698   7.570   2.157 -0.2439 -0.1936 -0.1186
    2MOL   C154  456   2.713   7.617   2.284 -0.3128  0.6409  0.9348
    2MOL   O155  457   2.628   7.688   2.343 -0.4334 -0.3724 -0.0310
    2MOL   C156  458   2.841   7.563   2.350  0.7549 -0.0884  0.6347
    2MOL   C157  459   2.965   7.587   2.269 -0.1805 -0.3785  0.1282
    2MOL   C158  460   2.723   7.717   1.967 -0.1874  0.1404  0.2893
    2MOL   H159  461   2.546   7.696   2.098  1.0870  1.1516  1.1839
    2MOL   H160  462   2.840   7.624   2.440  1.2026  0.4212  0.2950
    2MOL   H161  463   2.810   7.465   2.385 -0.9173  0.5056  0.8497
    2MOL   H162  464   2.966   7.690   2.234 -0.9584 -0.2097  0.5957
    2MOL   H163  465   3.052   7.586   2.335 -0.8118 -0.3845  0.9733
    2MOL   H164  466   2.975   7.520   2.184 -2.0534  0.3365 -0.6798
    2MOL   H165  467   2.806   7.764   2.020 -1.2045  1.2587  0.9215
    2MOL   H166  468   2.761   7.643   1.897 -0.3690  0.6103 -0.3023
    2MOL   C167  469   2.638   7.826   1.897  0.3862  0.3969  0.6548
    2MOL   O168  470   2.604   7.927   1.993  0.0247  0.5272  0.3743
    2MOL   C169  471   2.481   0.025   2.010  0.2256 -0.4913 -0.8417
    2MOL   O170  472   2.387   7.922   1.955 -0.1560  0.4832  0.4994
    2MOL   C171  473   2.469   0.149   2.097  0.1745  0.8824 -0.1958
    2MOL   C172  474   2.331   0.214   2.097 -0.5947  0.6236  0.4647
    2MOL   C173  475   2.703   7.899   1.781  0.9008  0.5931 -0.9283
    2MOL   H174  476   2.546   7.772   1.877  0.6687  0.1276  0.0902
    2MOL   H175  477   2.492   0.117   2.198  0.5035  0.3885 -0.4284
    2MOL   H176  478   2.546   0.219   2.062 -1.3642  1.4240 -2.6166
    2MOL   H177  479   2.290   0.236   1.999 -0.9065 -1.7918  0.0153
    2MOL   H178  480   2.257   0.169   2.164 -0.5584  0.8972  0.6867
    2MOL   H179  481   2.355   0.307   2.147  1.1903 -0.5763  1.9337
    2MOL   H180  482   2.645   0.044   1.759  1.1147  1.2188  1.0111
    2MOL   H181  483   2.796   7.941   1.818 -0.4112  3.5502 -0.8089
    2MOL   C182  484   2.724   7.816   1.650  0.3318 -0.6456 -0.4985
    2MOL   O183  485   2.591   7.802   1.603 -0.5134  0.5372 -0.1821
    2MOL   C184  486   2.548   7.689   1.553 -0.2234  0.1636 -0.3410
    2MOL   O185  487   2.623   7.599   1.512  0.4690  0.5008  0.2751
    2MOL   C186  488   2.401   7.674   1.539 -0.6835  1.0837  0.7009
    2MOL   C187  489   2.326   7.647   1.673  0.3829 -0.3999  0.3434
    2MOL   C188  490   2.817   7.892   1.545 -0.0139  0.0937  0.0728
    2MOL   H189  491   2.769   7.718   1.662 -0.7849 -1.1147 -0.1222
    2MOL   H190  492   2.367   7.770   1.500 -0.2699  0.9357 -0.0346
    2MOL   H191  493   2.377   7.599   1.463  1.2341  2.6713 -1.5507
    2MOL   H192  494   2.370   7.561   1.724  1.1818  0.4450  1.0936
    2MOL   H193  495   2.333   7.732   1.741 -1.4049  0.4104 -0.4509
    2MOL   H194  496   2.221   7.617   1.665  0.4946 -0.5604 -0.4925
    2MOL   H195  497   2.808   7.844   1.448 -2.4709 -2.5244  1.4969
    2MOL   H196  498   2.774   0.046   1.528  0.9402  0.7230  1.2079
    2MOL   C197  499   2.970   7.900   1.594  0.3425  0.2530  0.1857
    2MOL   O198  500   3.004   7.762   1.617  0.4995 -0.0991 -0.1973
    2MOL   C199  501   3.029   7.714   1.738  0.0895 -0.3310  0.3303
    2MOL   O200  502   3.049   7.781   1.844 -0.0718  0.0962  0.6225
    2MOL   C201  503   3.038   7.561   1.739 -0.2059  0.2348  0.2053
    2MOL   C202  504   3.133   7.503   1.840 -0.0761  0.0128  0.5125
    2MOL   C203  505   3.069   7.944   1.491 -0.0839 -0.2627 -0.1262
    2MOL   H204  506   2.975   0.017   1.684 -1.5956 -0.2229  0.6421
    2MOL   H205  507   2.941   7.517   1.761  0.1359 -0.9420 -0.6325
    2MOL   H206  508   3.067   7.532   1.638  1.5786 -1.1776  1.1012
    2MOL   H207  509   3.105   7.542   1.938  2.7607  1.1007  0.9278
    2MOL   H208  510   3.134   7.394   1.845  0.3357 -0.1153 -1.6345
    2MOL   H209  511   3.229   7.537   1.802  0.6311  0.1679  2.3913
    2MOL   H210  512   3.168   7.938   1.535  0.5846  2.8231 -1.0840
    2MOL   H211  513   3.060   7.873   1.408 -2.3505 -2.7885  2.1691
    2MOL   C212  514   3.062   0.152   1.462 -0.1602 -0.1711 -0.3539
    2MOL   O213  515   3.047   0.241   1.577  0.1542 -0.1070  0.1728
    2MOL   C214  516   2.925   0.300   1.604 -0.2189 -0.0139 -0.5930
    2MOL   O215  517   2.820   0.266   1.554  0.2564 -0.3459 -0.0046
    2MOL   C216  518   2.925   0.399   1.721 -0.7257 -0.6872  0.1344
    2MOL   C217  519   2.938   0.324   1.856  0.7357  0.0412 -0.6751
    2MOL   C218  520   3.194   0.193   1.392  1.0256 -0.2529 -0.2793
    2MOL   H219  521   2.986   0.188   1.392  2.0017  2.6831 -1.3129
    2MOL   H220  522   3.015   0.460   1.716 -1.6905  0.6609 -1.0342
    2MOL   H221  523   2.841   0.468   1.721  0.4116  0.7322 -0.5040
    2MOL   H222  524   3.011   0.369   1.924 -0.6645  1.4855 -0.0796
    2MOL   H223  525   2.843   0.347   1.905  0.6453  1.3077 -1.4256
    2MOL   H224  526   2.955   0.217   1.849  2.7866  0.2542  0.6007
    2MOL   H225  527   3.270   0.184   1.469  1.4341 -0.6213 -0.7242
    2MOL   H226  528   3.217   0.117   1.317  2.4296 -0.1585  0.0410
    2MOL   C227  529   3.186   0.331   1.333  0.1988  0.5305 -0.4022
    2MOL   O228  530   3.292   0.406   1.391  0.2785  0.3362 -0.0351
    2MOL   C229  531   3.268   0.512   1.476 -0.0554 -0.0613  0.0857
    2MOL   O230  532   3.160   0.561   1.505 -0.2256 -0.0260 -0.6078
    2MOL   C231  533   3.400   0.566   1.521 -0.0623  0.2869 -0.3586
    2MOL   C232  534   3.470   0.674   1.434  0.1896 -0.5663  0.2224
    2MOL   C233  535   3.193   0.353   1.178 -0.7620  0.0659  0.4321
    2MOL   H234  536   3.089   0.374   1.361  0.6086  1.3250 -0.1800
    2MOL   H235  537   3.396   0.604   1.624 -1.4464 -1.9954  0.4736
    2MOL   H236  538   3.469   0.484   1.537 -1.2363 -0.5319  0.6697
    2MOL   H237  539   3.576   0.666   1.460 -0.1414  1.3889  2.2494
    2MOL   H238  540   3.461   0.660   1.326 -3.3170  0.9365  0.2526
    2MOL   H239  541   3.441   0.775   1.462 -3.4563 -1.3931 -0.3705
    2MOL   H240  542   3.214   0.459   1.162 -1.3807  0.2819  1.0453
    2MOL   H241  543   3.275   0.301   1.129 -2.5831  0.4209 -3.1174
    2MOL   C242  544   3.063   0.341   1.105  0.2192  0.4075  0.4500
    2MOL   O243  545   2.979   0.444   1.148 -0.1863 -0.2132 -0.5338
    2MOL   C244  546   2.844   0.421   1.165  1.4689  1.0429  0.1178
    2MOL   O245  547   2.791   0.307   1.162  0.9406  0.3709  0.8984
    2MOL   C246  548   2.770   0.549   1.203  0.4675 -0.7318  0.1809
    2MOL   C247  549   2.804   0.599   1.342  0.6177  0.1658  0.2685
    2MOL   C248  550   3.101   0.358   0.953 -0.4124  0.2647  0.4208
    2MOL   H249  551   3.017   0.244   1.123 -0.6847  0.6630 -0.4509
    2MOL   H250  552   2.783   0.617   1.119 -1.0636 -2.5017 -1.5663
    2MOL   H251  553   2.665   0.521   1.199  0.0064  1.0008 -0.3922
    2MOL   H252  554   2.771   0.524   1.414  0.9054 -0.4666 -0.2652
    2MOL   H253  555   2.910   0.623   1.347  0.4904  0.7748  0.0919
    2MOL   H254  556   2.746   0.688   1.369 -1.7134 -1.4696  0.8295
    2MOL   H255  557   3.133   0.462   0.941  1.1610 -0.2198  0.3802
    2MOL   H256  558   3.189   0.301   0.924 -1.0692 -0.6250  0.1542
    2MOL   C257  559   2.981   0.332   0.861 -0.8439 -0.4631  0.4908
    2MOL   O258  560   2.984   0.436   0.765 -0.1688 -0.0490 -0.5202
    2MOL   C259  561   2.893   0.539   0.772  0.1402 -0.0651 -0.1815
    2MOL   O260  562   2.796   0.541   0.850 -0.0482 -0.2868 -0.2860
    2MOL   C261  563   2.930   0.664   0.688 -0.1476  0.1783  0.1694
    2MOL   C262  564   2.868   0.655   0.547  0.6185 -0.2714  0.2435
    2MOL   C263  565   2.994   0.193   0.795  0.9242 -0.0758  0.0064
    2MOL   H264  566   2.888   0.333   0.918 -0.5026 -0.4973  1.0420
    2MOL   H265  567   2.889   0.749   0.743  1.8400  1.2632  0.0164
    2MOL   H266  568   3.037   0.673   0.674  0.1620 -2.5551  0.5282
    2MOL   H267  569   2.865   0.750   0.493  0.8049 -1.3236 -1.6944
    2MOL   H268  570   2.927   0.596   0.477 -0.4738 -1.8179  0.6079
    2MOL   H269  571   2.766   0.618   0.554  1.0457 -1.6664 -0.7297
    2MOL   H270  572   3.065   0.188   0.713  1.3163 -1.2547  0.4021
    2MOL   H271  573   3.038   0.127   0.870  1.2211  0.1838  0.0620
    2MOL   C272  574   2.854   0.147   0.743 -0.0873  0.4130 -0.3645
    2MOL   O273  575   2.816   0.226   0.627 -0.4673  0.2278 -0.0641
    2MOL   C274  576   2.688   0.259   0.604  0.4688 -0.5645 -0.1569
    2MOL   O275  577   2.593   0.239   0.681  0.2521 -0.2420  0.5923
    2MOL   C276  578   2.670   0.315   0.463 -0.6198  0.6680 -0.3698
    2MOL   C277  579   2.552   0.410   0.441 -1.1931  0.3919  0.5304
    2MOL   C278  580   2.849   7.938   0.715  0.0522  0.2321  0.6051
    2MOL   H279  581   2.790   0.181   0.824  1.1013  1.2103  0.2553
    2MOL   H280  582   2.754   0.385   0.458 -1.9183  2.3562  0.8433
    2MOL   H281  583   2.680   0.236   0.389 -0.1635  1.1182 -0.7924
    2MOL   H282  584   2.455   0.361   0.431 -1.4091  0.9612 -0.2445
    2MOL   H283  585   2.542   0.494   0.510  0.2942  0.0179  1.2242
    2MOL   H284  586   2.567   0.441   0.338  0.7825 -0.9647  0.3771
    2MOL   H285  587   2.757   7.909   0.665 -1.0174  0.8466  2.2026
    2MOL   H286  588   2.923   7.919   0.637  0.2636 -0.5677  0.9889
    2MOL   C287  589   2.880   7.847   0.841 -0.2252 -0.1331 -0.4207
    2MOL   O288  590   2.782   7.885   0.938  0.2607  0.3936  0.1396
    2MOL   C289  591   2.822   7.936   1.058 -0.2312  0.0734  0.7699
    2MOL   O290  592   2.933   0.035   1.081  0.0708 -0.2007 -0.3226
    2MOL   C291  593   2.701   7.944   1.148  0.6648 -0.2304 -0.5444
    2MOL   C292  594   2.576   0.066   1.084  0.3827 -0.2499  0.5396
    2MOL   C293  595   2.882   7.692   0.829  0.1291  0.1910  0.4513
    2MOL   H294  596   2.979   7.872   0.878  0.0518 -0.0851 -1.1975
    2MOL   H295  597   2.679   7.838   1.165  1.7252 -0.3675  0.0349
    2MOL   H296  598   2.734   0.047   1.241  2.6843 -2.4540 -0.0555
    2MOL   H297  599   2.572   0.172   1.110 -1.8274 -0.4274  1.0237
    2MOL   H298  600   2.568   0.069   0.976 -1.2322  0.6111  0.6672
    2MOL   H299  601   2.487   0.019   1.124 -0.5659  2.4255  1.7181
    2MOL   H300  602   2.786   7.639   0.830 -0.2539  0.8739  0.3556
    2MOL   H301  603   2.946   7.659   0.747  1.3268 -0.1433  1.5177
    2MOL   H302  604   2.937   7.660   0.917  1.5779  2.9032  0.5552
    3MOL     C1  605   3.282   0.959   6.829  0.0327 -0.1232  0.2094
    3MOL     O2  606   3.186   0.855   6.842 -0.4193 -0.0993 -0.6570
    3MOL     C3  607   3.198   0.754   6.756  0.5976  0.8156  0.5694
    3MOL     O4  608   3.278   0.744   6.663  0.2833 -0.0227  0.1008
    3MOL     C5  609   3.106   0.640   6.790 -0.1184  0.0339  0.2321
    3MOL     C6  610   3.057   0.546   6.680 -0.0864  0.5618 -0.1728
    3MOL     C7  611   3.253   1.068   6.938 -0.9290 -0.2530  0.0729
    3MOL     H8  612   3.287   0.998   6.727  2.9231  0.5785  0.5796
    3MOL     H9  613   3.143   0.586   6.876 -0.9208 -0.5382  0.2236
    3MOL    H10  614   3.024   0.698   6.833 -0.3722  0.8144 -1.2845
    3MOL    H11  615   3.143   0.491   6.642 -0.3653  0.3629 -0.5256
    3MOL    H12  616   2.977   0.478   6.710 -0.5232  1.5628  0.9887
    3MOL    H13  617   3.009   0.594   6.594  1.2957 -1.7840 -2.3212
    3MOL    H14  618   3.259   1.020   7.035 -1.4117 -1.4435 -0.4735
    3MOL    H15  619   3.343   1.131   6.935  0.3106 -2.0232 -1.4488
    3MOL    H16  620   3.381   0.914   6.839  0.2135 -0.2593 -2.0414
    3MOL    C17  621   3.133   1.159   6.911 -0.5993 -0.0664 -0.0918
    3MOL    O18  622   3.123   1.268   6.998 -0.5937 -0.0034 -0.2281
    3MOL    C19  623   3.103   1.248   7.125 -0.0521  0.1139  0.0075
    3MOL    O20  624   3.109   1.142   7.184  0.7291 -0.2530 -0.1789
    3MOL    C21  625   3.043   1.369   7.191  0.6929 -0.5456  0.0979
    3MOL    C22  626   3.136   1.495   7.210  0.0101 -0.4289  0.0336
    3MOL    C23  627   3.142   1.217   6.770  0.3814  0.3084  0.3214
    3MOL    H24  628   3.047   1.092   6.920  0.7339 -1.9744 -0.9756
    3MOL    H25  629   2.947   1.394   7.145  0.0121  0.4498  2.0425
    3MOL    H26  630   3.015   1.341   7.292 -2.9108  0.1727 -0.6171
    3MOL    H27  631   3.204   1.513   7.127  1.0245 -0.2376  0.8964
    3MOL    H28  632   3.090   1.591   7.232  0.5656  0.4272 -2.4329
    3MOL    H29  633   3.209   1.477   7.288  1.2317  1.1065 -0.7355
    3MOL    H30  634   3.225   1.288   6.772 -0.1453  0.9755 -0.7704
    3MOL    H31  635   3.166   1.134   6.703  0.9054  1.4633 -0.9565
    3MOL    C32  636   3.015   1.293   6.720  0.3667 -0.7896  0.0904
    3MOL    O33  637   3.038   1.335   6.583  0.8108  0.1673  0.0325
    3MOL    C34  638   3.053   1.463   6.554  0.4787  0.1906 -1.1000
    3MOL    O35  639   3.046   1.552   6.641  0.4913 -0.1325  0.2065
    3MOL    C36  640   3.090   1.496   6.411  0.2184 -0.0391 -0.5734
    3MOL    C37  641   3.234   1.446   6.391  0.2410  0.1884 -0.0521
    3MOL    C38  642   2.892   1.201   6.694  0.5505 -0.0825 -0.9476
    3MOL    H39  643   2.990   1.378   6.784 -1.1517  0.8022 -2.5299
    3MOL    H40  644   3.027   1.437   6.345 -0.9526 -0.5168  0.9383
    3MOL    H41  645   3.075   1.602   6.391 -0.4935 -0.3077 -1.5340
    3MOL    H42  646   3.242   1.340   6.413 -1.4544  0.0799  0.1522
    3MOL    H43  647   3.264   1.455   6.286 -1.9716 -2.6621 -0.9919
    3MOL    H44  648   3.301   1.509   6.450  1.0619  0.3968 -1.1839
    3MOL    H45  649   2.874   1.193   6.587 -0.4393  0.1860 -0.8099
    3MOL    H46  650   2.918   1.099   6.720  1.8211 -0.0827 -2.1766
    3MOL    C47  651   2.760   1.236   6.765 -0.0152  0.2394 -0.0144
    3MOL    O48  652   2.770   1.233   6.908  0.1194 -0.4808  0.2932
    3MOL    C49  653   2.681   1.171   6.986 -0.7362 -0.8401  0.1262
    3MOL    O50  654   2.598   1.095   6.946  0.3079 -0.2518 -0.2042
    3MOL    C51  655   2.710   1.182   7.138 -0.3962 -0.1377  0.2145
    3MOL    C52  656   2.635   1.088   7.237  0.5213  0.2996 -0.2004
    3MOL    C53  657   2.714   1.382   6.740  0.2992 -0.1280 -0.2124
    3MOL    H54  658   2.686   1.163   6.731 -0.4016  0.4506  0.3698
    3MOL    H55  659   2.819   1.176   7.141 -0.2563  1.5038 -0.7699
    3MOL    H56  660   2.682   1.284   7.168 -1.3342 -0.6652  1.1720
    3MOL    H57  661   2.663   0.985   7.214  2.0570  0.2278  1.9039
    3MOL    H58  662   2.665   1.107   7.339 -3.3833 -0.1880  1.1226
    3MOL    H59  663   2.528   1.106   7.223  0.2693 -0.6951  0.4004
    3MOL    H60  664   2.615   1.393   6.784 -0.5855  2.0186 -2.5458
    3MOL    H61  665   2.773   1.456   6.795 -0.1373  1.3833 -1.7194
    3MOL    C62  666   2.697   1.426   6.593 -0.0702  0.0010  0.0448
    3MOL    O63  667   2.597   1.340   6.535  0.5012  0.6729 -0.0850
    3MOL    C64  668   2.618   1.241   6.447  0.2510 -0.2357  0.2475
    3MOL    O65  669   2.734   1.214   6.401  0.2448  0.1546 -0.3313
    3MOL    C66  670   2.493   1.183   6.386 -0.2139 -0.1618  0.2926
    3MOL    C67  671   2.512   1.034   6.338 -0.4102  0.1999  0.7061
    3MOL    C68  672   2.652   1.574   6.586 -0.6424  0.3832 -0.0082
    3MOL    H69  673   2.790   1.420   6.537 -0.7666 -0.4605 -1.0640
    3MOL    H70  674   2.415   1.177   6.462  1.1379 -1.6371  1.6191
    3MOL    H71  675   2.454   1.251   6.311 -3.3411 -0.9298  1.1704
    3MOL    H72  676   2.413   0.990   6.327 -0.9213  1.1728  1.4121
    3MOL    H73  677   2.568   1.026   6.244 -0.2823 -0.9350  0.8635
    3MOL    H74  678   2.563   0.967   6.407 -3.0694 -0.7622  1.7969
    3MOL    H75  679   2.546   1.582   6.608 -0.2677  0.2619  1.9860
    3MOL    H76  680   2.700   1.640   6.659  0.8679  0.5987 -1.1804
    3MOL    C77  681   2.680   1.645   6.451 -0.5000  0.0394  0.2503
    3MOL    O78  682   2.584   1.599   6.353 -0.5762 -0.4084  0.3878
    3MOL    C79  683   2.602   1.609   6.221 -0.3804  1.4264 -0.2101
    3MOL    O80  684   2.703   1.657   6.175 -0.2437  0.1117 -0.5695
    3MOL    C81  685   2.483   1.566   6.130  0.6158  0.5138 -0.2456
    3MOL    C82  686   2.521   1.443   6.046  0.2054  0.6658 -0.3699
    3MOL    C83  687   2.677   1.799   6.457 -0.1727  0.2137  0.6517
    3MOL    H84  688   2.782   1.615   6.427 -0.0109  0.8988  1.2063
    3MOL    H85  689   2.397   1.535   6.189  0.3890 -1.5107 -1.5831
    3MOL    H86  690   2.443   1.650   6.072 -0.2298 -0.7946 -1.5856
    3MOL    H87  691   2.543   1.365   6.118 -0.9788 -2.6035 -3.4059
    3MOL    H88  692   2.441   1.411   5.979  1.1135 -2.7228  0.0979
    3MOL    H89  693   2.612   1.455   5.987  0.3174  0.9310 -0.1437
    3MOL    H90  694   2.621   1.832   6.369 -1.4853 -0.9490  1.0377
    3MOL    H91  695   2.616   1.837   6.538 -1.4587 -1.2901  0.4248
    3MOL    C92  696   2.813   1.873   6.462  0.1921  0.1437  0.7132
    3MOL    O93  697   2.885   1.828   6.578  0.2153 -0.6870 -0.4005
    3MOL    C94  698   2.866   1.872   6.713  0.2579 -0.2812  0.1588
    3MOL    O95  699   2.771   1.943   6.740  0.2896  0.1130 -0.4306
    3MOL    C96  700   2.962   1.824   6.818 -0.1486 -0.3560 -0.1299
    3MOL    C97  701   3.091   1.885   6.800 -0.4238 -0.1853 -0.2931
    3MOL    C98  702   2.902   1.848   6.339 -0.3448 -0.4306  0.0488
    3MOL    H99  703   2.804   1.982   6.466 -0.1909  0.0573  2.6952
    3MOL   H100  704   2.926   1.851   6.917  0.4525  0.7919 -0.2139
    3MOL   H101  705   2.966   1.715   6.821 -0.2578 -0.3230  2.6569
    3MOL   H102  706   3.096   1.981   6.748  0.8722 -0.5254 -0.8173
    3MOL   H103  707   3.149   1.902   6.890  1.4435 -1.3711 -1.2651
    3MOL   H104  708   3.142   1.810   6.740 -0.6961 -0.9948  0.4738
    3MOL   H105  709   2.922   1.743   6.321  0.8292 -0.1184 -0.5767
    3MOL   H106  710   2.834   1.883   6.261  0.0630 -0.8855 -0.5190
    3MOL   C107  711   3.019   1.946   6.341 -0.0654 -0.4666  0.5728
    3MOL   O108  712   3.125   1.889   6.412  0.0496 -0.7270  0.0332
    3MOL   C109  713   3.213   1.960   6.480 -0.4113 -0.3525  0.0987
    3MOL   O110  714   3.201   2.081   6.506 -0.5795 -0.5507 -0.2233
    3MOL   C111  715   3.337   1.894   6.511 -0.0489 -0.4152 -0.4137
    3MOL   C112  716   3.415   1.826   6.397  0.0583 -0.0905 -0.4801
    3MOL   C113  717   3.069   1.968   6.201  0.4192 -0.2460 -0.1491
    3MOL   H114  718   2.989   2.043   6.382 -0.9282  0.1437 -1.4095
    3MOL   H115  719   3.396   1.975   6.554 -1.8544  0.1575  1.0091
    3MOL   H116  720   3.313   1.841   6.602 -1.4534 -0.0075 -0.5408
    3MOL   H117  721   3.517   1.804   6.427  0.0472  1.6318  0.9197
    3MOL   H118  722   3.369   1.731   6.370 -2.5011  0.3074  2.2678
    3MOL   H119  723   3.421   1.890   6.309 -3.5738 -0.4730 -1.0781
    3MOL   H120  724   3.174   1.994   6.211 -0.3824  2.7220  0.8790
    3MOL   H121  725   3.073   1.870   6.152  0.0718  0.6792 -2.0999
    3MOL   C122  726   2.998   2.078   6.109 -0.0102  0.1863 -0.4791
    3MOL   O123  727   2.867   2.064   6.068  0.7962 -0.1082  0.2272
    3MOL   C124  728   2.832   2.052   5.933  0.2801 -0.3630  0.4863
    3MOL   O125  729   2.912   2.064   5.839  0.9551 -0.1523  0.3868
    3MOL   C126  730   2.682   2.038   5.907 -0.1392  0.0896  0.0570
    3MOL   C127  731   2.612   1.934   5.995  0.7187  0.1067 -0.0007
    3MOL   C128  732   3.033   2.227   6.143  0.3944  0.8631 -0.0828
    3MOL   H129  733   3.062   2.056   6.023  1.6616 -0.5293  0.9208
    3MOL   H130  734   2.634   2.136   5.898  1.4092  0.7816 -0.9608
    3MOL   H131  735   2.688   2.005   5.803  2.5455 -1.5301  0.7012
    3MOL   H132  736   2.617   1.966   6.099 -2.8611 -1.2045  0.6509
    3MOL   H133  737   2.507   1.927   5.967  1.3925  0.7309 -2.9028
    3MOL   H134  738   2.651   1.833   5.980 -0.6013 -0.5451  0.8166
    3MOL   H135  739   2.991   2.281   6.058  0.8965 -0.7092 -1.3595
    3MOL   H136  740   2.979   2.246   6.236  2.5352  0.4204  1.2963
    3MOL   C137  741   3.182   2.264   6.152  0.2393  0.1958 -0.3861
    3MOL   O138  742   3.260   2.220   6.040 -0.1056  0.4229 -0.1167
    3MOL   C139  743   3.369   2.136   6.062  0.1619 -0.6510  0.6069
    3MOL   O140  744   3.411   2.092   6.167  0.0586 -0.6166 -0.0243
    3MOL   C141  745   3.423   2.079   5.929 -0.0128 -0.9316  0.1936
    3MOL   C142  746   3.327   1.967   5.869 -0.2478  0.8794 -0.3614
    3MOL   C143  747   3.195   2.415   6.168 -0.7233 -0.4262  0.2353
    3MOL   H144  748   3.221   2.211   6.239 -2.9169 -0.1753  0.8648
    3MOL   H145  749   3.457   2.160   5.864  0.8919 -0.4209  1.2791
    3MOL   H146  750   3.515   2.023   5.948  1.0714  0.8886  0.4320
    3MOL   H147  751   3.280   1.914   5.952  2.2206 -1.2788 -0.2622
    3MOL   H148  752   3.250   2.008   5.805 -0.2989 -0.6016 -1.2626
    3MOL   H149  753   3.377   1.892   5.808 -2.1072 -1.7700  1.2536
    3MOL   H150  754   3.183   2.466   6.072  0.4718 -1.8096 -0.6642
    3MOL   H151  755   3.108   2.450   6.222 -0.1332  0.4246  0.6485
    3MOL   C152  756   3.315   2.469   6.256 -0.3409  0.3589  0.5561
    3MOL   O153  757   3.318   2.611   6.236  0.0657  0.1257  0.1472
    3MOL   C154  758   3.439   2.670   6.208 -0.5400 -0.2530  0.3321
    3MOL   O155  759   3.549   2.609   6.200 -0.0442  0.0798 -0.2418
    3MOL   C156  760   3.436   2.820   6.198 -0.7651  0.7467  0.3080
    3MOL   C157  761   3.336   2.877   6.293 -0.4929 -0.5514 -0.0854
    3MOL   C158  762   3.308   2.434   6.405  0.0466  0.5406 -0.3568
    3MOL   H159  763   3.400   2.422   6.206 -0.6518 -1.5627  1.7633
    3MOL   H160  764   3.536   2.862   6.195  0.3183 -1.8020  0.0172
    3MOL   H161  765   3.398   2.844   6.098 -2.4263  0.1196  0.7651
    3MOL   H162  766   3.353   2.985   6.283  1.2387 -1.0144 -2.6248
    3MOL   H163  767   3.232   2.855   6.266 -0.2487 -0.5695 -1.0246
    3MOL   H164  768   3.349   2.850   6.397  0.7370 -0.8053 -0.2978
    3MOL   H165  769   3.260   2.511   6.467  0.9987 -1.3582  2.8687
    3MOL   H166  770   3.249   2.344   6.419  1.5365 -0.4463 -0.3061
    3MOL   C167  771   3.441   2.410   6.466 -0.6113 -0.9664 -0.0021
    3MOL   O168  772   3.416   2.442   6.606 -1.3622 -0.0962  0.1076
    3MOL   C169  773   3.431   2.562   6.643  0.8853 -0.2758 -0.7333
    3MOL   O170  774   3.462   2.660   6.575  0.3484  0.6106  0.3131
    3MOL   C171  775   3.351   2.593   6.775  0.5434 -0.2084 -0.1674
    3MOL   C172  776   3.219   2.674   6.733 -0.6477 -0.2773  0.3353
    3MOL   C173  777   3.495   2.275   6.435 -0.0505 -0.3066 -0.4632
    3MOL   H174  778   3.517   2.474   6.421 -1.3988 -0.1045 -0.1100
    3MOL   H175  779   3.317   2.500   6.820  1.0128 -0.2488  0.1175
    3MOL   H176  780   3.415   2.640   6.850  0.0963  0.9221 -0.5018
    3MOL   H177  781   3.135   2.607   6.748  1.2709 -2.5722  1.2024
    3MOL   H178  782   3.214   2.761   6.798 -0.9216 -0.0773  0.0493
    3MOL   H179  783   3.237   2.714   6.633  2.0325  0.0977  0.9302
    3MOL   H180  784   3.415   2.202   6.423  1.2795 -1.4638 -2.6157
    3MOL   H181  785   3.527   2.296   6.333 -0.3870  1.2483 -0.2633
    3MOL   C182  786   3.598   2.219   6.538 -0.2471 -0.0902  0.2096
    3MOL   O183  787   3.518   2.171   6.647  0.0180 -0.3681 -0.4915
    3MOL   C184  788   3.544   2.203   6.773 -0.1675 -0.2065 -0.4357
    3MOL   O185  789   3.618   2.290   6.814  0.0330 -0.0844  0.6414
    3MOL   C186  790   3.457   2.120   6.868 -0.0250  0.8794  0.1492
    3MOL   C187  791   3.504   1.976   6.876 -0.1432  0.5362 -0.3147
    3MOL   C188  792   3.684   2.100   6.483 -0.3770 -1.1139 -0.6499
    3MOL   H189  793   3.668   2.298   6.567  0.3995 -0.1725 -1.1159
    3MOL   H190  794   3.437   2.169   6.963  0.4622  0.9374  0.2201
    3MOL   H191  795   3.355   2.131   6.831  0.1121 -1.0654 -0.8356
    3MOL   H192  796   3.600   1.964   6.927 -0.3866  0.2304  0.0748
    3MOL   H193  797   3.433   1.912   6.928  1.6796  0.7176  2.4712
    3MOL   H194  798   3.516   1.926   6.780  1.4224 -1.4584  0.8875
    3MOL   H195  799   3.616   2.026   6.441 -2.6492 -0.1074  1.1168
    3MOL   H196  800   3.754   2.128   6.405  1.3125  0.2884  1.3021
    3MOL   C197  801   3.773   2.032   6.596 -0.3155 -0.1379  0.4534
    3MOL   O198  802   3.835   1.911   6.548  0.6035  0.4084  0.2703
    3MOL   C199  803   3.787   1.793   6.589 -0.3843 -0.0795  0.7845
    3MOL   O200  804   3.694   1.776   6.670 -0.6953  0.3740  0.2613
    3MOL   C201  805   3.860   1.678   6.519  0.1509 -0.6330 -0.5638
    3MOL   C202  806   3.853   1.698   6.365 -0.3501  0.1958 -0.6827
    3MOL   C203  807   3.886   2.127   6.653  0.3156  0.3144 -0.1451
    3MOL   H204  808   3.705   2.008   6.678 -0.1798  1.6047  1.0915
    3MOL   H205  809   3.964   1.667   6.547 -0.2258 -2.8097  0.0983
    3MOL   H206  810   3.812   1.588   6.560  0.7732 -0.6656  0.1158
    3MOL   H207  811   3.914   1.784   6.337 -0.3550  0.7058  0.7929
    3MOL   H208  812   3.909   1.617   6.319  0.5768  0.6037 -0.2917
    3MOL   H209  813   3.756   1.717   6.319 -1.0677 -0.3115  0.5902
    3MOL   H210  814   3.918   2.192   6.571  0.8816 -3.0617 -2.7181
    3MOL   H211  815   3.828   2.191   6.719  0.8425 -1.3558  1.9728
    3MOL   C212  816   4.001   2.058   6.741  0.5913  0.3257 -0.1327
    3MOL   O213  817   3.944   1.985   6.851 -0.0783 -0.2668  0.7898
    3MOL   C214  818   3.931   2.032   6.975  0.1948  0.7053 -0.0114
    3MOL   O215  819   3.972   2.138   7.011 -0.0152 -0.5380  0.2274
    3MOL   C216  820   3.860   1.937   7.079 -0.4033  0.3954 -0.1349
    3MOL   C217  821   3.906   1.796   7.080  0.1533 -0.1071 -0.2806
    3MOL   C218  822   4.106   1.968   6.672 -0.0687 -0.3224 -0.5000
    3MOL   H219  823   4.070   2.134   6.779  1.1252  0.2197 -0.8934
    3MOL   H220  824   3.876   1.968   7.182  1.6631 -3.1524  0.7166
    3MOL   H221  825   3.751   1.938   7.074 -0.3976 -1.0444 -0.7414
    3MOL   H222  826   4.010   1.778   7.054  0.2957 -1.3785  1.0982
    3MOL   H223  827   3.896   1.754   7.180 -2.7777 -0.8743 -0.8342
    3MOL   H224  828   3.843   1.742   7.008 -0.3208 -0.0780  0.1109
    3MOL   H225  829   4.176   1.938   6.750 -0.8823  2.0066  1.1653
    3MOL   H226  830   4.059   1.874   6.645 -0.2429 -1.0334  2.1690
    3MOL   C227  831   4.182   2.051   6.566  0.4079 -0.1235  0.3558
    3MOL   O228  832   4.267   2.146   6.620 -0.0353 -0.4511  0.0668
    3MOL   C229  833   4.288   2.268   6.576 -0.1333 -0.5630 -0.3859
    3MOL   O230  834   4.225   2.319   6.481  0.0003 -0.0598 -0.8823
    3MOL   C231  835   4.402   2.346   6.649 -0.5329  0.6999  0.3509
    3MOL   C232  836   4.408   2.488   6.618 -0.7737 -0.3258 -0.4220
    3MOL   C233  837   4.243   1.960   6.453  0.0075  0.4676  0.4765
    3MOL   H234  838   4.102   2.109   6.520  2.5509  2.3828 -0.3105
    3MOL   H235  839   4.398   2.337   6.758  0.7951  5.0563  0.8702
    3MOL   H236  840   4.490   2.291   6.615 -0.8526 -0.2523  1.0370
    3MOL   H237  841   4.472   2.545   6.687 -1.3882 -1.2289  0.9226
    3MOL   H238  842   4.414   2.520   6.514 -2.9322  1.8559  0.0687
    3MOL   H239  843   4.311   2.527   6.649 -0.2851 -1.9887  3.5569
    3MOL   H240  844   4.161   1.905   6.407  2.1061 -0.9847 -1.6573
    3MOL   H241  845   4.279   2.013   6.365  1.9947 -1.5735 -0.0007
    3MOL   C242  846   4.340   1.855   6.508 -0.2003  0.2031  0.0007
    3MOL   O243  847   4.345   1.749   6.403  0.1747 -0.9062 -0.0803
    3MOL   C244  848   4.276   1.639   6.428 -0.0099 -0.3890 -0.4892
    3MOL   O245  849   4.223   1.611   6.536  0.5002 -0.0459 -0.2954
    3MOL   C246  850   4.259   1.559   6.304  0.0926 -0.4044  0.4106
    3MOL   C247  851   4.396   1.510   6.257  0.9238  0.0883  0.1918
    3MOL   C248  852   4.483   1.914   6.534  0.1240  0.0897 -0.3615
    3MOL   H249  853   4.301   1.810   6.599 -1.0445 -1.9821 -1.3836
    3MOL   H250  854   4.186   1.483   6.331 -0.1922 -0.6828 -1.1119
    3MOL   H251  855   4.218   1.639   6.242  1.1207  2.2175  2.9774
    3MOL   H252  856   4.452   1.467   6.340  1.7626  1.9596  0.6311
    3MOL   H253  857   4.376   1.431   6.185 -1.8938  1.8882 -1.1188
    3MOL   H254  858   4.462   1.584   6.213 -1.6207  2.4603  0.2106
    3MOL   H255  859   4.519   1.968   6.447 -2.8321 -0.2357 -1.8311
    3MOL   H256  860   4.478   1.986   6.616  0.5968 -0.5231  0.2120
    3MOL   C257  861   4.581   1.808   6.581 -0.1260  0.7210  0.2836
    3MOL   O258  862   4.710   1.882   6.562 -0.0650  0.1987 -0.1496
    3MOL   C259  863   4.811   1.833   6.487  0.5272 -0.7549  0.7654
    3MOL   O260  864   4.801   1.728   6.426  0.8010  0.6486  0.0382
    3MOL   C261  865   4.930   1.925   6.478  0.5887  0.0806  0.1803
    3MOL   C262  866   5.010   1.874   6.354 -0.5674  0.1340 -0.6281
    3MOL   C263  867   4.574   1.781   6.733  0.2198 -0.4887  0.3954
    3MOL   H264  868   4.574   1.718   6.519  0.7684  0.8145  0.0488
    3MOL   H265  869   4.902   2.026   6.450 -1.4335 -0.1958  1.1283
    3MOL   H266  870   4.976   1.918   6.577  0.8163 -0.2931  0.0483
    3MOL   H267  871   5.033   1.768   6.361  1.5538  0.5474 -1.0360
    3MOL   H268  872   4.956   1.901   6.263 -0.1999  0.4722 -0.7486
    3MOL   H269  873   5.104   1.929   6.350  0.0054 -0.0680  5.3171
    3MOL   H270  874   4.624   1.860   6.790  0.9518 -0.8469  0.2581
    3MOL   H271  875   4.470   1.791   6.763  0.0051 -1.6388  0.0348
    3MOL   C272  876   4.611   1.637   6.771 -0.1916 -0.8879  0.0958
    3MOL   O273  877   4.735   1.590   6.714 -0.2064 -0.4881 -0.4700
    3MOL   C274  878   4.736   1.491   6.619 -0.1017 -0.1552 -1.4973
    3MOL   O275  879   4.637   1.428   6.578  0.0412 -0.2692 -0.7214
    3MOL   C276  880   4.875   1.451   6.568 -0.0214 -0.3012 -0.8392
    3MOL   C277  881   4.872   1.380   6.433  0.0871  0.2345  0.9560
    3MOL   C278  882   4.623   1.625   6.922 -0.5690  0.0053 -0.0181
    3MOL   H279  883   4.541   1.560   6.736 -0.4412  0.0053 -1.4147
    3MOL   H280  884   4.948   1.532   6.564  0.3649 -0.7011 -1.9113
    3MOL   H281  885   4.920   1.379   6.638  1.4223  1.1506 -0.2381
    3MOL   H282  886   4.827   1.281   6.427 -1.6159  1.0454 -0.0092
    3MOL   H283  887   4.807   1.429   6.360  0.8120 -2.1122 -1.3579
    3MOL   H284  888   4.974   1.368   6.396 -0.2087 -0.8403  0.4459
    3MOL   H285  889   4.659   1.527   6.954 -0.5861  0.0979  0.2870
    3MOL   H286  890   4.699   1.695   6.957  2.2508 -2.8040 -0.2429
    3MOL   C287  891   4.499   1.663   7.006 -0.3663  0.1282  0.1024
    3MOL   O288  892   4.400   1.569   6.985 -0.1976  0.9673 -0.5562
    3MOL   C289  893   4.284   1.600   6.925 -0.2326 -0.2737  0.2192
    3MOL   O290  894   4.267   1.698   6.857  0.2333  0.3203  0.7986
    3MOL   C291  895   4.187   1.494   6.941 -0.0070 -0.4517 -0.5933
    3MOL   C292  896   4.140   1.470   7.088 -0.1546  0.3856  0.0037
    3MOL   C293  897   4.534   1.656   7.153  0.6334  0.0639 -0.4231
    3MOL   H294  898   4.463   1.763   6.985  0.9498  0.4586 -0.6198
    3MOL   H295  899   4.097   1.511   6.882  0.5008  0.7132 -1.0214
    3MOL   H296  900   4.238   1.405   6.905 -0.7061 -0.1034 -2.4684
    3MOL   H297  901   4.085   1.380   7.117  0.5657 -0.3198 -0.8071
    3MOL   H298  902   4.233   1.464   7.145  0.4469  1.3398 -0.8655
    3MOL   H299  903   4.086   1.561   7.117  0.2052  0.9576 -1.0786
    3MOL   H300  904   4.613   1.723   7.186  1.7976 -2.0811  1.2270
    3MOL   H301  905   4.444   1.688   7.206  0.0024  0.6487 -1.8196
    3MOL   H302  906   4.552   1.552   7.183 -1.5498 -0.4255 -0.7468
    4MOL     C1  907   1.956   6.120   6.475  0.3242 -0.0163 -0.1054
    4MOL     O2  908   1.926   5.987   6.436  0.5557 -0.3426 -0.2935
    4MOL     C3  909   1.923   5.954   6.311 -0.1468  0.3583 -0.0986
    4MOL     O4  910   1.915   6.027   6.213 -0.6161 -0.0322  0.4593
    4MOL     C5  911   1.911   5.801   6.283  0.1346  0.5744  0.3328
    4MOL     C6  912   1.767   5.761   6.228 -0.1867 -0.2481  0.8441
    4MOL     C7  913   1.933   6.153   6.622 -0.3452 -0.1968 -0.0879
    4MOL     H8  914   1.879   6.178   6.425  0.5202 -0.6872 -1.1896
    4MOL     H9  915   1.988   5.771   6.212  0.1746 -0.4939  0.8065
    4MOL    H10  916   1.926   5.759   6.383 -2.6446  0.9044  0.9379
    4MOL    H11  917   1.691   5.776   6.305 -0.0315 -0.3152  1.0110
    4MOL    H12  918   1.736   5.822   6.143  0.2427 -1.2350 -0.0376
    4MOL    H13  919   1.755   5.656   6.202 -0.3225  0.1536 -0.7777
    4MOL    H14  920   1.918   6.260   6.633 -0.5020 -0.3583  1.2859
    4MOL    H15  921   1.840   6.101   6.646 -0.5349  0.3564  0.3742
    4MOL    H16  922   2.054   6.150   6.439  0.5418 -0.1912  0.3319
    4MOL    C17  923   2.043   6.105   6.720 -0.2011  0.1287 -0.3001
    4MOL    O18  924   2.054   6.205   6.813  0.6295 -0.1103  0.5209
    4MOL    C19  925   2.164   6.277   6.826 -0.3966  0.0644  0.3853
    4MOL    O20  926   2.270   6.262   6.773  0.0665 -0.6211  0.0362
    4MOL    C21  927   2.150   6.400   6.918  1.1999  0.0439  0.3745
    4MOL    C22  928   2.280   6.463   6.961  0.6385  0.3873  0.0514
    4MOL    C23  929   2.010   5.965   6.785  0.4188 -0.5929  0.2816
    4MOL    H24  930   2.135   6.086   6.664 -0.2559 -1.3229  0.0749
    4MOL    H25  931   2.072   6.462   6.874  0.5452 -1.1957 -0.2296
    4MOL    H26  932   2.092   6.357   6.999  0.5446  1.2039  0.5263
    4MOL    H27  933   2.350   6.383   6.987  1.4895  0.4007 -2.0573
    4MOL    H28  934   2.328   6.538   6.898 -1.9253  2.6102  0.6472
    4MOL    H29  935   2.255   6.523   7.048 -1.3353  0.3643 -0.4642
    4MOL    H30  936   2.007   5.977   6.893 -2.0133  0.7557  0.1043
    4MOL    H31  937   1.924   5.914   6.742  0.1780  1.0567 -1.2568
    4MOL    C32  938   2.136   5.875   6.764 -0.0174 -0.8334 -0.4766
    4MOL    O33  939   2.243   5.925   6.846 -0.2667  0.4826 -0.7416
    4MOL    C34  940   2.381   5.899   6.828 -0.2910 -0.8687 -0.9433
    4MOL    O35  941   2.431   5.851   6.727 -0.0817  0.5748 -0.3509
    4MOL    C36  942   2.468   5.966   6.939  0.2959  0.1719  0.6793
    4MOL    C37  943   2.534   5.838   7.004  0.1762 -0.2358  0.3073
    4MOL    C38  944   2.110   5.728   6.796 -0.1314 -0.1731  0.4586
    4MOL    H39  945   2.172   5.879   6.661  1.5209 -0.3308  0.0660
    4MOL    H40  946   2.542   6.031   6.894 -0.9709  0.2101 -1.4445
    4MOL    H41  947   2.404   6.026   7.004 -0.0965  1.7185 -1.0757
    4MOL    H42  948   2.574   5.763   6.935 -1.1884 -1.7845  1.1723
    4MOL    H43  949   2.608   5.862   7.080  0.5263 -0.2711 -0.0201
    4MOL    H44  950   2.464   5.778   7.062  1.2308  0.6328  2.5170
    4MOL    H45  951   2.197   5.672   6.831 -0.7770 -4.0810 -3.6478
    4MOL    H46  952   2.025   5.734   6.863 -1.4120 -1.2536 -1.0265
    4MOL    C47  953   2.063   5.634   6.677 -0.3599 -0.7031  0.1874
    4MOL    O48  954   2.174   5.581   6.609 -0.1862 -0.8467 -0.1663
    4MOL    C49  955   2.177   5.572   6.470 -0.4093 -0.8240 -0.8419
    4MOL    O50  956   2.084   5.596   6.401  0.4139  0.1637 -0.6124
    4MOL    C51  957   2.308   5.521   6.420 -0.2570  0.1528 -0.6536
    4MOL    C52  958   2.325   5.371   6.420 -0.5396  0.1809 -0.0193
    4MOL    C53  959   1.979   5.515   6.727  0.1256  0.7159  0.0944
    4MOL    H54  960   2.002   5.691   6.608 -1.6611 -2.7301 -0.3755
    4MOL    H55  961   2.332   5.562   6.322  0.4607 -0.2120 -0.6384
    4MOL    H56  962   2.383   5.568   6.484  1.9629 -1.2210 -2.1375
    4MOL    H57  963   2.340   5.329   6.321 -0.0424  1.0390 -0.3121
    4MOL    H58  964   2.415   5.347   6.478 -2.1462 -1.0503  2.0262
    4MOL    H59  965   2.244   5.318   6.470 -0.7000  1.3046  0.9320
    4MOL    H60  966   2.007   5.432   6.663 -1.2269 -0.0179  0.4140
    4MOL    H61  967   2.016   5.479   6.823  1.1105 -0.3685 -0.6856
    4MOL    C62  968   1.826   5.524   6.704 -0.0433  0.0932  0.1970
    4MOL    O63  969   1.775   5.641   6.769  0.7303 -0.0083 -0.5517
    4MOL    C64  970   1.764   5.640   6.902 -0.8163 -0.3453 -0.0250
    4MOL    O65  971   1.821   5.563   6.977  0.2132  0.1072  0.0926
    4MOL    C66  972   1.675   5.757   6.950 -1.1128 -0.0341 -0.7011
    4MOL    C67  973   1.719   5.825   7.083 -0.3952  0.2086  0.6781
    4MOL    C68  974   1.774   5.513   6.554 -0.5009 -0.0085  0.4492
    4MOL    H69  975   1.792   5.430   6.747  2.3130 -0.9429 -0.0990
    4MOL    H70  976   1.643   5.834   6.880 -1.3537  2.3492  1.9025
    4MOL    H71  977   1.581   5.704   6.962 -1.0067 -0.3561 -1.2928
    4MOL    H72  978   1.713   5.753   7.164  1.5091 -2.2931 -1.3159
    4MOL    H73  979   1.821   5.862   7.068 -0.2278 -0.5852 -0.2172
    4MOL    H74  980   1.647   5.904   7.102 -1.3742 -0.1074 -1.5334
    4MOL    H75  981   1.794   5.603   6.497  1.5964  0.7358  2.2548
    4MOL    H76  982   1.824   5.432   6.501  2.3689  2.3268 -0.5813
    4MOL    C77  983   1.624   5.504   6.541  0.9430  0.5632  0.2193
    4MOL    O78  984   1.562   5.634   6.525 -0.6996 -0.1217  0.7583
    4MOL    C79  985   1.480   5.682   6.618  0.5002  0.1211  0.6604
    4MOL    O80  986   1.433   5.614   6.707 -0.2467  0.0347  0.0044
    4MOL    C81  987   1.438   5.824   6.605 -0.3046 -0.2141  0.2692
    4MOL    C82  988   1.552   5.917   6.567  1.0515 -0.5201 -0.8045
    4MOL    C83  989   1.595   5.421   6.406  0.6014  0.1880  0.1375
    4MOL    H84  990   1.581   5.445   6.622  1.8610 -0.1841  0.1764
    4MOL    H85  991   1.350   5.838   6.542 -0.3412 -3.0813 -0.3814
    4MOL    H86  992   1.411   5.849   6.707  1.6523  0.3673  0.6457
    4MOL    H87  993   1.533   6.015   6.610  0.8056 -1.4045  1.1617
    4MOL    H88  994   1.655   5.889   6.589  1.5295  2.0640  0.3110
    4MOL    H89  995   1.558   5.927   6.459 -2.1096 -1.1240 -1.1024
    4MOL    H90  996   1.629   5.481   6.321  2.3101  1.8970  1.9495
    4MOL    H91  997   1.652   5.329   6.402  1.5177  0.6910  1.2142
    4MOL    C92  998   1.457   5.360   6.393  0.4664  0.3266 -1.1167
    4MOL    O93  999   1.407   5.457   6.306 -0.1137  0.4194  0.8302
    4MOL    C94 1000   1.282   5.509   6.295  0.7813  0.2650 -0.6147
    4MOL    O95 1001   1.187   5.462   6.363 -0.2719  0.1364 -0.1343
    4MOL    C96 1002   1.263   5.626   6.200  0.0314 -0.2016  0.2741
    4MOL    C97 1003   1.361   5.746   6.217 -0.4552  0.2907  0.2305
    4MOL    C98 1004   1.436   5.221   6.329  0.1673  0.6349 -0.5672
    4MOL    H99 1005   1.406   5.352   6.489  1.4399 -1.4440 -0.7472
    4MOL   H100 1006   1.277   5.594   6.097  1.7074 -0.3844  0.5555
    4MOL   H101 1007   1.159   5.659   6.199  0.0858 -0.0558 -0.2321
    4MOL   H102 1008   1.396   5.783   6.121  0.7504  0.0077  0.5459
    4MOL   H103 1009   1.309   5.826   6.270  1.0155  1.7470 -0.4636
    4MOL   H104 1010   1.450   5.713   6.271 -1.1763  1.2360  2.0633
    4MOL   H105 1011   1.330   5.196   6.317 -0.0671  1.0490  0.5723
    4MOL   H106 1012   1.487   5.236   6.234  2.1579 -0.6384  0.2800
    4MOL   C107 1013   1.504   5.100   6.406  0.0389  0.0733  0.3418
    4MOL   O108 1014   1.407   5.025   6.477 -0.1100  0.3253  0.8159
    4MOL   C109 1015   1.384   5.049   6.606 -0.1528 -0.5927 -0.1759
    4MOL   O110 1016   1.418   5.152   6.665 -0.7531  0.2229 -0.6722
    4MOL   C111 1017   1.325   4.922   6.672  0.1260  0.1239  0.1938
    4MOL   C112 1018   1.426   4.807   6.679 -0.5217 -0.0800 -0.0307
    4MOL   C113 1019   1.590   5.017   6.305 -0.3021  0.6947 -0.0072
    4MOL   H114 1020   1.575   5.139   6.480 -0.1922 -2.2005  1.8173
    4MOL   H115 1021   1.288   4.949   6.770  2.2330 -0.0743  1.0843
    4MOL   H116 1022   1.239   4.899   6.609 -0.3682 -1.2880  1.3556
    4MOL   H117 1023   1.449   4.781   6.575 -1.6145  0.8732 -0.5226
    4MOL   H118 1024   1.524   4.822   6.724 -0.9699 -1.3494  1.4313
    4MOL   H119 1025   1.379   4.723   6.730  1.4728  0.2796  2.4859
    4MOL   H120 1026   1.590   4.914   6.339 -0.7005  0.3046 -1.1612
    4MOL   H121 1027   1.530   5.020   6.214 -0.1956  0.2634 -0.0940
    4MOL   C122 1028   1.736   5.054   6.282 -0.0007 -0.2547  0.7327
    4MOL   O123 1029   1.804   5.045   6.402 -0.3659 -0.6744 -0.3520
    4MOL   C124 1030   1.909   5.134   6.424  0.5353  0.6387  0.0366
    4MOL   O125 1031   1.929   5.238   6.367 -0.4609  0.1263  0.0361
    4MOL   C126 1032   1.987   5.094   6.547  0.0925 -0.2503 -0.2513
    4MOL   C127 1033   1.904   5.108   6.672 -0.0259  0.8146 -0.5995
    4MOL   C128 1034   1.803   4.969   6.174 -0.2609 -0.0129 -0.6295
    4MOL   H129 1035   1.727   5.158   6.249 -1.2941 -0.8170 -0.7557
    4MOL   H130 1036   2.026   4.992   6.544  2.6676  0.7054 -0.8843
    4MOL   H131 1037   2.084   5.144   6.557 -0.2786  0.4417 -0.1268
    4MOL   H132 1038   1.865   5.209   6.680 -1.8801 -0.0112  1.4486
    4MOL   H133 1039   1.811   5.052   6.687 -0.1824  1.5432  1.3759
    4MOL   H134 1040   1.965   5.070   6.754  0.3481  0.8463 -0.8634
    4MOL   H135 1041   1.910   4.981   6.184 -0.1819 -1.5934  0.6203
    4MOL   H136 1042   1.797   4.862   6.197  2.8975 -0.4405 -1.5355
    4MOL   C137 1043   1.760   4.964   6.024 -0.2770 -0.6771 -0.0216
    4MOL   O138 1044   1.781   5.096   5.980  0.3754  0.3680 -0.3065
    4MOL   C139 1045   1.681   5.166   5.922  0.1837 -0.5507  0.5186
    4MOL   O140 1046   1.569   5.127   5.893  0.6178  0.3108 -0.1212
    4MOL   C141 1047   1.732   5.306   5.894 -0.2026  0.8608 -0.8084
    4MOL   C142 1048   1.774   5.382   6.021 -0.0745  0.0030 -1.1214
    4MOL   C143 1049   1.858   4.877   5.937  0.2994  0.2142 -0.0777
    4MOL   H144 1050   1.656   4.933   6.014 -0.0492 -1.5069  0.1410
    4MOL   H145 1051   1.818   5.303   5.828  0.2573  2.7746 -0.3213
    4MOL   H146 1052   1.656   5.366   5.844 -0.0159  1.6691 -0.1193
    4MOL   H147 1053   1.689   5.391   6.088  0.7963  0.8776 -0.1175
    4MOL   H148 1054   1.840   5.331   6.092 -1.9009  0.3999  0.8984
    4MOL   H149 1055   1.808   5.481   5.991 -1.5298  0.5326 -1.0501
    4MOL   H150 1056   1.832   4.895   5.833  1.3769  1.0755 -0.1992
    4MOL   H151 1057   1.957   4.921   5.947  0.2216  0.1614  0.9952
    4MOL   C152 1058   1.857   4.721   5.973  0.4455  0.3352  0.2948
    4MOL   O153 1059   1.735   4.665   5.927  0.1019  0.1178 -0.2025
    4MOL   C154 1060   1.630   4.652   6.012  0.2467  0.6552 -0.0579
    4MOL   O155 1061   1.629   4.692   6.123  0.8600 -0.2701 -0.0782
    4MOL   C156 1062   1.504   4.605   5.946 -0.0997 -0.4567  0.0783
    4MOL   C157 1063   1.427   4.728   5.884 -0.0219  0.6232 -0.1982
    4MOL   C158 1064   1.967   4.638   5.898  0.1357  0.5416  0.4547
    4MOL   H159 1065   1.885   4.709   6.077 -3.5239  0.1307  1.4062
    4MOL   H160 1066   1.534   4.525   5.877 -2.5625 -1.5912  0.2895
    4MOL   H161 1067   1.446   4.554   6.022  0.3878 -1.2346 -0.0565
    4MOL   H162 1068   1.482   4.769   5.799  0.7938  0.6393  0.3343
    4MOL   H163 1069   1.336   4.705   5.828 -0.5572 -0.8997  1.2611
    4MOL   H164 1070   1.415   4.808   5.957  0.3751  0.5459 -0.0489
    4MOL   H165 1071   1.950   4.530   5.897  0.7190  0.4509  0.2259
    4MOL   H166 1072   1.951   4.656   5.792  0.1896 -1.9843 -0.0270
    4MOL   C167 1073   2.116   4.671   5.926 -0.1492  0.8752 -0.4952
    4MOL   O168 1074   2.158   4.621   6.050  0.1277  0.2000  0.1934
    4MOL   C169 1075   2.193   4.699   6.157 -0.1138 -0.2790  0.6326
    4MOL   O170 1076   2.217   4.819   6.149  0.0588 -0.0339 -0.7849
    4MOL   C171 1077   2.211   4.620   6.290 -0.4083 -0.1223 -0.4133
    4MOL   C172 1078   2.342   4.535   6.294  0.2537  0.0719  0.3312
    4MOL   C173 1079   2.215   4.627   5.812  0.4381  0.0586 -0.4052
    4MOL   H174 1080   2.130   4.779   5.934 -3.0141  1.2217  0.4144
    4MOL   H175 1081   2.223   4.692   6.370 -1.5921 -0.3230 -0.0360
    4MOL   H176 1082   2.120   4.565   6.315  0.3503 -0.6335  1.2967
    4MOL   H177 1083   2.324   4.437   6.340  0.9748 -0.2416 -0.0592
    4MOL   H178 1084   2.376   4.521   6.192 -2.3400  0.5803 -0.6498
    4MOL   H179 1085   2.413   4.595   6.351  1.0049 -0.4239 -0.0739
    4MOL   H180 1086   2.318   4.651   5.839  0.1876 -0.5235  1.1520
    4MOL   H181 1087   2.221   4.520   5.790  2.0173  0.1571 -0.4696
    4MOL   C182 1088   2.184   4.703   5.686  0.4129  0.1155  0.2568
    4MOL   O183 1089   2.214   4.837   5.711  0.1354 -0.1835 -0.2399
    4MOL   C184 1090   2.129   4.929   5.686  0.8894  0.6087  0.0040
    4MOL   O185 1091   2.031   4.914   5.616 -0.1258 -0.0960  0.2410
    4MOL   C186 1092   2.170   5.054   5.751 -0.2895  0.4787  0.8060
    4MOL   C187 1093   2.060   5.169   5.753  1.1681 -0.5861 -0.4592
    4MOL   C188 1094   2.258   4.662   5.558  0.5765  0.3174 -0.9147
    4MOL   H189 1095   2.079   4.697   5.655  1.0767 -0.8963 -1.9350
    4MOL   H190 1096   2.202   5.026   5.851 -0.7111  0.4804  0.9425
    4MOL   H191 1097   2.262   5.085   5.701 -0.7982 -0.4297 -0.7117
    4MOL   H192 1098   2.039   5.216   5.657 -0.4795 -0.0684  0.1192
    4MOL   H193 1099   1.964   5.138   5.796  0.8614  1.1693  0.1717
    4MOL   H194 1100   2.097   5.243   5.824 -0.8039 -0.3307  0.3563
    4MOL   H195 1101   2.227   4.714   5.468  0.8742  0.9071 -0.6839
    4MOL   H196 1102   2.364   4.686   5.570  0.6234 -0.9318  1.6532
    4MOL   C197 1103   2.240   4.507   5.539  0.9798  0.3172  0.7740
    4MOL   O198 1104   2.100   4.481   5.519  0.4640  0.5982 -0.1109
    4MOL   C199 1105   2.032   4.379   5.587 -0.0495  0.6753  0.7187
    4MOL   O200 1106   2.084   4.301   5.666 -0.4062 -0.3335  0.5492
    4MOL   C201 1107   1.886   4.368   5.541 -0.4154  0.1698  0.3473
    4MOL   C202 1108   1.798   4.474   5.607  0.0066 -0.1587 -0.1348
    4MOL   C203 1109   2.298   4.465   5.406 -0.1291  0.1566 -0.0884
    4MOL   H204 1110   2.291   4.447   5.614  2.2353 -1.4455 -1.4042
    4MOL   H205 1111   1.882   4.367   5.432  0.8516  0.3748  0.2946
    4MOL   H206 1112   1.859   4.267   5.570 -0.5635 -0.1172 -0.7816
    4MOL   H207 1113   1.799   4.572   5.560 -5.3276  0.0863 -0.0424
    4MOL   H208 1114   1.691   4.451   5.598 -0.0547  0.1541 -0.2328
    4MOL   H209 1115   1.809   4.482   5.715  1.0390  3.2240 -0.4394
    4MOL   H210 1116   2.269   4.361   5.388  1.5727 -0.3615  0.1068
    4MOL   H211 1117   2.242   4.517   5.328 -0.0234  0.2314 -0.1143
    4MOL   C212 1118   2.453   4.485   5.392 -0.1016  0.2322 -0.8165
    4MOL   O213 1119   2.517   4.381   5.463  0.7854  0.1466 -0.0765
    4MOL   C214 1120   2.642   4.385   5.496  0.4618  1.0589 -0.3146
    4MOL   O215 1121   2.713   4.483   5.476 -0.2614 -0.1899  0.7174
    4MOL   C216 1122   2.691   4.266   5.573  0.6379  0.0365 -0.1835
    4MOL   C217 1123   2.722   4.312   5.719 -0.0310  0.3276  0.0742
    4MOL   C218 1124   2.500   4.477   5.243  0.4268  0.5397  0.3779
    4MOL   H219 1125   2.487   4.579   5.437  0.4907 -0.0663 -0.6439
    4MOL   H220 1126   2.619   4.185   5.580  1.1540 -0.2225  2.3538
    4MOL   H221 1127   2.774   4.220   5.518 -0.8438 -1.0911 -1.5330
    4MOL   H222 1128   2.634   4.318   5.784  1.8144  0.5319  2.6101
    4MOL   H223 1129   2.799   4.249   5.763  1.2629  0.8595 -1.3937
    4MOL   H224 1130   2.776   4.406   5.721 -0.1401  0.3799  0.6335
    4MOL   H225 1131   2.599   4.433   5.237 -0.1715 -0.9582  1.1771
    4MOL   H226 1132   2.447   4.400   5.188  1.0263 -1.9865  3.2015
    4MOL   C227 1133   2.490   4.604   5.163  0.2190  0.1001  0.3491
    4MOL   O228 1134   2.567   4.702   5.225  0.7576 -0.4544 -0.3561
    4MOL   C229 1135   2.507   4.818   5.264  0.3094  0.5151 -0.3095
    4MOL   O230 1136   2.389   4.847   5.253 -0.3854  0.5654 -0.1291
    4MOL   C231 1137   2.599   4.916   5.339 -0.0216 -0.6972 -0.0979
    4MOL   C232 1138   2.672   4.841   5.450 -0.2278  0.2665  0.2525
    4MOL   C233 1139   2.541   4.603   5.015  0.1680  0.2038  0.2539
    4MOL   H234 1140   2.383   4.627   5.170  0.1956  0.1551 -0.1971
    4MOL   H235 1141   2.668   4.971   5.275 -0.4797  0.0616  0.0619
    4MOL   H236 1142   2.528   4.991   5.374  0.6538  0.3337 -0.9149
    4MOL   H237 1143   2.771   4.808   5.418 -0.8957 -1.2840 -0.2254
    4MOL   H238 1144   2.685   4.919   5.525 -1.0039 -0.6023  1.3025
    4MOL   H239 1145   2.617   4.753   5.482 -1.0675  1.0949  1.1134
    4MOL   H240 1146   2.563   4.706   4.986 -1.8615  0.3234 -0.9666
    4MOL   H241 1147   2.643   4.566   5.013  0.5478  1.1876  0.8373
    4MOL   C242 1148   2.457   4.537   4.908 -0.1365  0.1583 -0.1386
    4MOL   O243 1149   2.327   4.594   4.911  0.4543  0.4186 -0.1486
    4MOL   C244 1150   2.230   4.527   4.964  0.1329 -0.5567 -0.0815
    4MOL   O245 1151   2.238   4.431   5.039 -0.2682  0.3722 -0.3606
    4MOL   C246 1152   2.096   4.580   4.924 -0.2966 -0.4146 -0.2556
    4MOL   C247 1153   2.071   4.723   4.960  0.1211 -0.7676 -0.0305
    4MOL   C248 1154   2.510   4.551   4.762 -0.1007  0.3664  0.3924
    4MOL   H249 1155   2.456   4.431   4.932 -1.5868 -0.0293 -0.9606
    4MOL   H250 1156   2.096   4.570   4.815 -0.3787 -1.6690 -0.1492
    4MOL   H251 1157   2.018   4.524   4.976 -0.2378  1.0606  1.4550
    4MOL   H252 1158   2.136   4.792   4.908 -0.1223 -1.6101 -1.4878
    4MOL   H253 1159   1.971   4.755   4.928  1.5600  0.7865 -3.1816
    4MOL   H254 1160   2.085   4.745   5.066  1.6837 -0.3954 -0.3080
    4MOL   H255 1161   2.430   4.520   4.695 -1.1671 -0.7105  2.1161
    4MOL   H256 1162   2.523   4.655   4.733  1.2254  0.1233  0.0825
    4MOL   C257 1163   2.636   4.464   4.744  0.5498  0.1749  0.0934
    4MOL   O258 1164   2.589   4.332   4.724  0.1715  0.1432 -0.2418
    4MOL   C259 1165   2.665   4.230   4.777  0.2552 -0.4333 -0.5157
    4MOL   O260 1166   2.772   4.247   4.838  0.6038  0.1612 -0.2840
    4MOL   C261 1167   2.604   4.094   4.774  0.3615 -0.6787 -0.3064
    4MOL   C262 1168   2.467   4.090   4.845 -0.2699 -0.0920 -0.1001
    4MOL   C263 1169   2.713   4.522   4.619  0.4618 -0.2840  0.4075
    4MOL   H264 1170   2.694   4.476   4.835  0.3444  1.5881  0.0541
    4MOL   H265 1171   2.583   4.062   4.672  1.8674 -0.3948 -0.7155
    4MOL   H266 1172   2.679   4.022   4.810  0.8742 -0.7777 -1.5383
    4MOL   H267 1173   2.384   4.132   4.787 -0.3533  0.6340  0.5340
    4MOL   H268 1174   2.442   3.985   4.860  2.3032 -0.5096  1.4708
    4MOL   H269 1175   2.480   4.131   4.945 -1.7930 -0.9723  0.4671
    4MOL   H270 1176   2.641   4.519   4.538 -0.0964  2.2735  0.7543
    4MOL   H271 1177   2.722   4.631   4.627  0.7887 -0.3934  1.7420
    4MOL   C272 1178   2.850   4.460   4.592  0.7668  0.5972  0.5279
    4MOL   O273 1179   2.905   4.495   4.460 -0.1845 -0.2646 -0.1474
    4MOL   C274 1180   2.888   4.412   4.355  0.4451  0.6029  0.4796
    4MOL   O275 1181   2.846   4.297   4.361  0.1761 -0.1146  0.8693
    4MOL   C276 1182   2.930   4.477   4.221 -0.7730  0.1202  0.1951
    4MOL   C277 1183   2.813   4.490   4.131  0.9691  0.0694 -0.4623
    4MOL   C278 1184   2.954   4.491   4.699 -0.1737 -0.0895 -0.0338
    4MOL   H279 1185   2.827   4.354   4.601  3.5284 -0.1373 -0.4546
    4MOL   H280 1186   2.976   4.574   4.238 -1.8507  0.4732  1.0696
    4MOL   H281 1187   3.002   4.412   4.171 -2.0130 -0.0313 -1.4366
    4MOL   H282 1188   2.768   4.391   4.117  0.8152  0.5061 -3.2059
    4MOL   H283 1189   2.721   4.529   4.175  2.8177  2.4733  1.4164
    4MOL   H284 1190   2.838   4.544   4.040 -0.7669 -0.4545 -1.2803
    4MOL   H285 1191   2.968   4.599   4.697 -0.1394 -0.0337  2.0207
    4MOL   H286 1192   2.916   4.479   4.800 -3.3504  0.1497 -1.1656
    4MOL   C287 1193   3.085   4.407   4.677 -0.6132 -0.1730  0.4472
    4MOL   O288 1194   3.199   4.459   4.740 -0.0329 -0.6207  0.2223
    4MOL   C289 1195   3.273   4.553   4.675 -0.2233 -1.0005 -0.5706
    4MOL   O290 1196   3.235   4.622   4.581  0.5215  0.8115 -0.2074
    4MOL   C291 1197   3.405   4.596   4.749  0.9450 -0.0406  0.0511
    4MOL   C292 1198   3.494   4.472   4.781  0.6468  0.3828  0.5715
    4MOL   C293 1199   3.068   4.265   4.726  0.5848 -0.0453  0.8734
    4MOL   H294 1200   3.102   4.392   4.571  0.7923  0.7697  0.5163
    4MOL   H295 1201   3.466   4.662   4.687 -1.0909  2.1935  0.3058
    4MOL   H296 1202   3.378   4.655   4.836  0.3574  0.5701 -0.5328
    4MOL   H297 1203   3.472   4.408   4.867  1.1799  1.4294  1.4955
    4MOL   H298 1204   3.510   4.398   4.702 -1.6603  0.9079 -0.4303
    4MOL   H299 1205   3.595   4.511   4.795  1.0073 -0.3086 -0.0776
    4MOL   H300 1206   3.052   4.260   4.834 -1.6241  1.3751  0.6395
    4MOL   H301 1207   2.976   4.224   4.685  0.8032  0.9321 -0.6261
    4MOL   H302 1208   3.127   4.189   4.675 -4.1848 -2.0855 -1.8061
    5MOL     C1 1209   3.355   5.560   7.140 -0.6599 -0.4834 -0.3122
    5MOL     O2 1210   3.224   5.508   7.118 -0.2929  0.3935 -0.3303
    5MOL     C3 1211   3.164   5.449   7.232  0.5199 -0.1853 -0.0646
    5MOL     O4 1212   3.211   5.443   7.340  0.3720  0.2632  0.0183
    5MOL     C5 1213   3.030   5.392   7.205 -0.6283  0.4826  0.3534
    5MOL     C6 1214   2.946   5.380   7.332 -0.3306 -0.4899  0.6968
    5MOL     C7 1215   3.391   5.631   7.001  0.0386 -0.0626 -0.9182
    5MOL     H8 1216   3.428   5.485   7.170  1.6761  1.4590 -0.9886
    5MOL     H9 1217   2.982   5.450   7.126  0.2972  0.2157 -0.4098
    5MOL    H10 1218   3.043   5.294   7.161  0.6677  0.5429  0.5909
    5MOL    H11 1219   2.909   5.475   7.371  2.3763  0.4799  1.0359
    5MOL    H12 1220   2.862   5.312   7.323 -1.9446  1.5092  0.3563
    5MOL    H13 1221   3.001   5.334   7.415  0.3306 -3.1452 -1.1295
    5MOL    H14 1222   3.396   5.546   6.933 -0.2963 -1.1291  0.3612
    5MOL    H15 1223   3.301   5.688   6.978  0.0848  0.4206  0.0845
    5MOL    H16 1224   3.349   5.636   7.218 -1.3150  0.4109 -1.2368
    5MOL    C17 1225   3.529   5.704   7.023 -0.2848 -0.0745  0.1972
    5MOL    O18 1226   3.617   5.600   7.042 -0.5705  0.6221  0.5635
    5MOL    C19 1227   3.728   5.626   7.105  1.0895 -1.0664 -0.1309
    5MOL    O20 1228   3.758   5.738   7.140 -0.3849  0.2371  0.1412
    5MOL    C21 1229   3.817   5.502   7.130 -0.2361 -0.1344  0.0384
    5MOL    C22 1230   3.867   5.440   6.995  0.6674 -0.1578 -0.4023
    5MOL    C23 1231   3.570   5.798   6.905  0.4013  0.2797 -0.1835
    5MOL    H24 1232   3.523   5.764   7.114  2.1371 -3.5994  2.7667
    5MOL    H25 1233   3.890   5.542   7.200 -1.3063  1.1956  0.4371
    5MOL    H26 1234   3.758   5.425   7.179  1.2897 -1.1823  0.2529
    5MOL    H27 1235   3.907   5.339   7.001 -0.4837 -0.5764  0.3030
    5MOL    H28 1236   3.787   5.431   6.921  0.0349 -0.8799  0.3682
    5MOL    H29 1237   3.937   5.515   6.958  0.8443 -1.2659 -2.4087
    5MOL    H30 1238   3.671   5.837   6.920 -0.3385  1.9355  0.6444
    5MOL    H31 1239   3.575   5.731   6.819  0.0876  0.5241 -0.3954
    5MOL    C32 1240   3.483   5.914   6.873 -0.2362  0.1706  0.6771
    5MOL    O33 1241   3.469   6.000   6.985 -0.1268  0.3993  0.1806
    5MOL    C34 1242   3.369   5.994   7.078 -0.0363 -0.6132 -0.2464
    5MOL    O35 1243   3.266   5.926   7.061  0.7104  0.2520 -0.0833
    5MOL    C36 1244   3.397   6.077   7.200  0.1360 -0.1683 -0.2972
    5MOL    C37 1245   3.486   6.002   7.298 -0.5232 -0.2995 -0.0341
    5MOL    C38 1246   3.526   5.992   6.754 -0.7281  0.6011 -0.2170
    5MOL    H39 1247   3.386   5.873   6.845 -0.5534  0.9959  0.5500
    5MOL    H40 1248   3.425   6.180   7.181 -1.4100  0.7359  2.1870
    5MOL    H41 1249   3.305   6.105   7.250  0.0063 -0.4139 -0.3961
    5MOL    H42 1250   3.431   5.911   7.323  1.6667 -1.1938  1.6023
    5MOL    H43 1251   3.566   5.960   7.237  0.6608  1.2704  0.4283
    5MOL    H44 1252   3.519   6.056   7.386  0.0719 -0.3108 -0.2477
    5MOL    H45 1253   3.453   6.073   6.752 -3.1007 -1.3967  1.3473
    5MOL    H46 1254   3.626   6.035   6.755  0.0056 -1.0865 -0.8340
    5MOL    C47 1255   3.508   5.921   6.615 -0.2912 -0.8542 -0.3226
    5MOL    O48 1256   3.383   5.872   6.603 -0.2935 -0.1606 -0.1890
    5MOL    C49 1257   3.360   5.736   6.586 -1.2445  0.0901 -0.1994
    5MOL    O50 1258   3.452   5.656   6.565  0.3130 -0.5233  0.1791
    5MOL    C51 1259   3.212   5.690   6.598 -0.6649 -0.6935  0.1095
    5MOL    C52 1260   3.194   5.541   6.579  0.0247  0.2872 -0.1644
    5MOL    C53 1261   3.541   6.022   6.507 -0.2753 -0.3047  0.6682
    5MOL    H54 1262   3.576   5.838   6.599  1.2815 -0.0102  1.7221
    5MOL    H55 1263   3.184   5.707   6.702 -0.3989 -2.5651  0.5081
    5MOL    H56 1264   3.141   5.747   6.538 -0.0443  0.7385  0.7169
    5MOL    H57 1265   3.217   5.522   6.474  0.6116  0.5852 -0.0917
    5MOL    H58 1266   3.235   5.474   6.655  0.4293 -0.9583 -1.4683
    5MOL    H59 1267   3.089   5.513   6.577  1.0944 -4.0630  0.1177
    5MOL    H60 1268   3.492   5.979   6.419 -1.8187  2.0383  0.3414
    5MOL    H61 1269   3.494   6.119   6.522  1.8573  1.3620 -2.8486
    5MOL    C62 1270   3.693   6.046   6.482  0.3133  0.1004  0.4021
    5MOL    O63 1271   3.757   5.922   6.465  0.5861  0.0472 -0.3398
    5MOL    C64 1272   3.853   5.878   6.544 -0.3977 -0.0185 -0.2816
    5MOL    O65 1273   3.888   5.929   6.652  0.1973  0.1569  0.8094
    5MOL    C66 1274   3.912   5.743   6.503  0.7330  0.1912 -0.1567
    5MOL    C67 1275   3.819   5.625   6.525  0.3748  0.2604 -0.5605
    5MOL    C68 1276   3.726   6.153   6.366  0.0053  0.0790 -0.2673
    5MOL    H69 1277   3.737   6.085   6.574  2.6975 -1.0786 -0.1995
    5MOL    H70 1278   3.937   5.753   6.398  1.6741 -0.0389  0.0392
    5MOL    H71 1279   4.007   5.722   6.552  0.4615 -1.3307 -0.2507
    5MOL    H72 1280   3.797   5.616   6.631  0.4379 -0.1242 -0.5780
    5MOL    H73 1281   3.729   5.639   6.466  0.0913  1.8465  0.2280
    5MOL    H74 1282   3.866   5.529   6.504  0.0940 -0.6038  2.4883
    5MOL    H75 1283   3.662   6.241   6.364  0.2859  0.3325  1.5437
    5MOL    H76 1284   3.829   6.180   6.390 -0.4557  0.4844  1.3053
    5MOL    C77 1285   3.725   6.090   6.224  0.2668 -0.1867 -0.2919
    5MOL    O78 1286   3.597   6.072   6.188  0.6574 -0.0117 -0.0995
    5MOL    C79 1287   3.553   5.945   6.146  1.4380 -0.3019  0.0562
    5MOL    O80 1288   3.634   5.848   6.126 -0.1316 -0.1413  0.5663
    5MOL    C81 1289   3.403   5.936   6.147  0.2887 -0.0778 -0.2267
    5MOL    C82 1290   3.342   5.951   5.999 -0.5263  0.0908 -0.1913
    5MOL    C83 1291   3.792   6.183   6.127  0.9122 -0.4411 -0.2394
    5MOL    H84 1292   3.783   5.998   6.217 -0.1778 -0.4720 -0.2653
    5MOL    H85 1293   3.368   5.836   6.175  1.1568 -0.8638 -1.8656
    5MOL    H86 1294   3.367   6.009   6.219  1.1615  1.6843 -1.5298
    5MOL    H87 1295   3.347   6.054   5.963 -1.3885  0.4923  0.8086
    5MOL    H88 1296   3.394   5.892   5.924  0.6076  2.3097 -1.2203
    5MOL    H89 1297   3.238   5.919   5.998 -0.4149 -0.2761 -1.6406
    5MOL    H90 1298   3.770   6.160   6.022 -2.6856  2.8698 -0.2825
    5MOL    H91 1299   3.753   6.284   6.130 -0.6888 -1.1168  2.8522
    5MOL    C92 1300   3.941   6.192   6.129 -0.1921 -0.4612 -0.1325
    5MOL    O93 1301   3.994   6.061   6.094 -0.1779 -0.3216 -0.3054
    5MOL    C94 1302   4.081   6.003   6.173  0.5189  0.5786  0.0929
    5MOL    O95 1303   4.112   6.035   6.290 -0.1974 -0.2958 -0.0038
    5MOL    C96 1304   4.135   5.873   6.122  0.2951  0.4395  1.1998
    5MOL    C97 1305   4.270   5.828   6.177  0.0598  0.1511 -0.5006
    5MOL    C98 1306   3.995   6.288   6.020 -0.5533 -0.1825 -0.2221
    5MOL    H99 1307   3.986   6.224   6.223 -2.4069  1.6178  0.2792
    5MOL   H100 1308   4.065   5.792   6.141  0.9855 -0.8328 -1.4451
    5MOL   H101 1309   4.157   5.892   6.017  1.1349 -0.7789  1.1467
    5MOL   H102 1310   4.348   5.895   6.140  0.9064 -1.8225 -2.3558
    5MOL   H103 1311   4.269   5.841   6.285 -0.7291 -0.2392 -0.4566
    5MOL   H104 1312   4.310   5.729   6.158 -1.6423 -0.8739  1.1634
    5MOL   H105 1313   4.098   6.271   5.988 -0.8841  0.9123 -1.9641
    5MOL   H106 1314   3.931   6.271   5.934 -0.4963  1.1630 -0.5473
    5MOL   C107 1315   3.983   6.439   6.060  0.2984 -0.5884 -0.1483
    5MOL   O108 1316   4.080   6.463   6.162  0.6397  0.1300 -0.1478
    5MOL   C109 1317   4.036   6.468   6.296 -0.2940 -0.6110 -0.5902
    5MOL   O110 1318   3.920   6.452   6.339  0.1950 -0.0866  0.1822
    5MOL   C111 1319   4.152   6.482   6.389  0.0787 -0.0767 -0.6289
    5MOL   C112 1320   4.211   6.352   6.431 -0.1727  0.0684 -0.5707
    5MOL   C113 1321   4.027   6.534   5.943 -0.4492  0.1574  0.3886
    5MOL   H114 1322   3.884   6.471   6.091  0.0764  0.0175 -1.4827
    5MOL   H115 1323   4.228   6.552   6.354  1.4812 -0.9295  0.6145
    5MOL   H116 1324   4.113   6.528   6.480  0.0969 -1.2936  0.0019
    5MOL   H117 1325   4.303   6.364   6.488  0.3624  3.5931 -2.1067
    5MOL   H118 1326   4.133   6.291   6.479  0.2557 -2.2608 -2.7165
    5MOL   H119 1327   4.241   6.283   6.353  1.4551 -2.6223  2.3058
    5MOL   H120 1328   4.053   6.633   5.979  1.5076 -0.2752  0.2093
    5MOL   H121 1329   4.118   6.499   5.894 -0.7416  1.0735 -0.8263
    5MOL   C122 1330   3.908   6.551   5.847  0.1420 -0.3767 -0.3757
    5MOL   O123 1331   3.805   6.630   5.911 -0.5742  0.0601  0.3896
    5MOL   C124 1332   3.686   6.577   5.945 -0.3779 -0.2564 -0.4156
    5MOL   O125 1333   3.649   6.470   5.896  0.0559 -0.1682  0.0849
    5MOL   C126 1334   3.612   6.660   6.049 -0.4927  0.5640  0.6562
    5MOL   C127 1335   3.528   6.572   6.143 -0.3640  0.2331 -0.0231
    5MOL   C128 1336   3.943   6.631   5.716 -0.2599 -0.2901 -0.2856
    5MOL   H129 1337   3.867   6.456   5.813 -0.0705 -0.4501  0.0886
    5MOL   H130 1338   3.680   6.723   6.107  0.2270  0.0801  0.3371
    5MOL   H131 1339   3.549   6.730   5.993 -0.9468  0.2828  0.8084
    5MOL   H132 1340   3.473   6.503   6.080  1.3417 -1.7814  0.6357
    5MOL   H133 1341   3.585   6.503   6.206  0.8790 -0.2171 -1.5986
    5MOL   H134 1342   3.456   6.621   6.209 -0.6687  0.1236 -0.2768
    5MOL   H135 1343   3.854   6.669   5.665  0.3976  1.5537 -0.1056
    5MOL   H136 1344   4.010   6.717   5.729  1.1138 -1.3414 -0.3423
    5MOL   C137 1345   4.004   6.530   5.616  0.2733  0.4755  0.9408
    5MOL   O138 1346   3.906   6.430   5.583 -0.5154 -0.3078 -0.0985
    5MOL   C139 1347   3.932   6.308   5.618 -0.0537  0.6678  0.4231
    5MOL   O140 1348   4.028   6.265   5.690 -0.4425  0.0487 -0.1643
    5MOL   C141 1349   3.825   6.206   5.571  0.0163  0.8481  0.1527
    5MOL   C142 1350   3.790   6.208   5.422 -0.9506  0.2079  0.3755
    5MOL   C143 1351   4.051   6.587   5.482  0.0298  0.5108 -0.1606
    5MOL   H144 1352   4.090   6.488   5.669  0.5080  0.7892  0.8098
    5MOL   H145 1353   3.872   6.113   5.606  0.2777  0.7622 -0.4186
    5MOL   H146 1354   3.734   6.229   5.626 -0.0805  1.5195 -0.2868
    5MOL   H147 1355   3.865   6.156   5.361 -0.7918  2.0774 -1.0827
    5MOL   H148 1356   3.693   6.168   5.392  0.2911 -2.2609 -0.5363
    5MOL   H149 1357   3.800   6.308   5.381  2.5315  0.6191  2.0492
    5MOL   H150 1358   3.968   6.633   5.428  0.7094 -0.8456 -2.4035
    5MOL   H151 1359   4.116   6.672   5.502  0.5424 -0.2634  1.5579
    5MOL   C152 1360   4.123   6.495   5.391  0.5149  0.2990 -0.4253
    5MOL   O153 1361   4.130   6.550   5.261  0.7504  0.1314 -0.7064
    5MOL   C154 1362   4.077   6.492   5.156 -0.0765  0.3557  0.2540
    5MOL   O155 1363   4.032   6.384   5.152 -0.4950  0.0989  0.1025
    5MOL   C156 1364   4.096   6.572   5.021 -0.0982  0.4494 -0.0640
    5MOL   C157 1365   4.064   6.498   4.897  0.5789 -0.2048  0.4636
    5MOL   C158 1366   4.258   6.452   5.437 -0.0526 -0.3128 -0.0508
    5MOL   H159 1367   4.053   6.412   5.399 -0.0657  0.7581 -0.6768
    5MOL   H160 1368   4.045   6.667   5.037  2.1349  1.7177 -0.2501
    5MOL   H161 1369   4.200   6.602   5.007 -0.1438  0.2218 -0.9095
    5MOL   H162 1370   3.969   6.448   4.917  0.9988 -0.5036  1.7316
    5MOL   H163 1371   4.042   6.564   4.813  1.4144 -1.3859 -0.6960
    5MOL   H164 1372   4.136   6.419   4.877 -0.6913 -1.6022  1.2747
    5MOL   H165 1373   4.329   6.534   5.426  0.0077  0.0427  2.7229
    5MOL   H166 1374   4.255   6.436   5.545  3.8371 -0.8577  0.0512
    5MOL   C167 1375   4.329   6.332   5.371 -0.6375 -0.1683  0.2664
    5MOL   O168 1376   4.456   6.316   5.437  0.4771 -0.8177  0.2894
    5MOL   C169 1377   4.569   6.285   5.365 -0.3401 -0.3616 -0.1635
    5MOL   O170 1378   4.575   6.268   5.248 -0.4985 -0.2870 -0.5914
    5MOL   C171 1379   4.684   6.263   5.460 -0.3825  0.6136  0.4530
    5MOL   C172 1380   4.726   6.118   5.491 -0.0349 -0.3005  0.4102
    5MOL   C173 1381   4.249   6.204   5.394  0.1129  0.0487  0.6931
    5MOL   H174 1382   4.341   6.349   5.263  0.1635  1.2496  0.5629
    5MOL   H175 1383   4.767   6.319   5.416 -0.0634 -2.5001 -3.1255
    5MOL   H176 1384   4.660   6.297   5.560 -0.1541 -1.1365  1.1189
    5MOL   H177 1385   4.799   6.109   5.572 -0.2757 -2.4030  0.4077
    5MOL   H178 1386   4.641   6.059   5.524 -1.9899  2.0029 -0.3144
    5MOL   H179 1387   4.774   6.060   5.412 -0.2942 -1.6450  1.2395
    5MOL   H180 1388   4.256   6.185   5.501  2.3443  0.2959  0.6019
    5MOL   H181 1389   4.141   6.218   5.383  0.2523 -1.4836 -3.3182
    5MOL   C182 1390   4.295   6.081   5.314  0.1650 -0.7345  1.2663
    5MOL   O183 1391   4.216   5.970   5.367 -0.1805  0.0708  0.0152
    5MOL   C184 1392   4.270   5.874   5.442  0.9176 -0.0091 -0.2872
    5MOL   O185 1393   4.388   5.871   5.486 -0.1162  0.0811  0.0526
    5MOL   C186 1394   4.168   5.769   5.467 -0.0442  0.4910 -0.5917
    5MOL   C187 1395   4.042   5.832   5.527  0.0880  0.3590 -0.2901
    5MOL   C188 1396   4.267   6.102   5.166  0.0440  0.5957 -0.2910
    5MOL   H189 1397   4.397   6.047   5.332 -0.2686 -1.1746  3.0437
    5MOL   H190 1398   4.148   5.722   5.371 -2.3558  0.7859 -0.3004
    5MOL   H191 1399   4.204   5.693   5.536 -0.7080 -0.2658 -1.0749
    5MOL   H192 1400   3.981   5.752   5.568 -0.4890 -0.2837 -2.3380
    5MOL   H193 1401   4.067   5.875   5.623 -2.8001 -1.7055  1.4679
    5MOL   H194 1402   3.977   5.886   5.459  1.7039 -0.1284 -2.3118
    5MOL   H195 1403   4.163   6.130   5.151 -0.1705 -0.2688 -0.4351
    5MOL   H196 1404   4.318   6.195   5.141 -0.6067  1.4712  1.5977
    5MOL   C197 1405   4.302   5.977   5.083 -0.3012 -0.8269 -0.2508
    5MOL   O198 1406   4.246   5.969   4.953 -0.3641  0.2384  0.6593
    5MOL   C199 1407   4.111   5.963   4.945  0.6175 -0.1053  0.9557
    5MOL   O200 1408   4.029   5.949   5.037  0.3853 -0.3792  0.1622
    5MOL   C201 1409   4.071   5.977   4.799  0.1858 -0.5238  0.2315
    5MOL   C202 1410   4.005   6.115   4.771 -0.0414 -0.8814 -0.7130
    5MOL   C203 1411   4.456   5.959   5.056  0.0903  0.3282  0.7563
    5MOL   H204 1412   4.262   5.886   5.127  1.9423 -1.4779  0.5197
    5MOL   H205 1413   4.160   5.960   4.739  0.2558 -3.3612  1.0646
    5MOL   H206 1414   4.006   5.895   4.768  1.2758 -0.8998 -1.0806
    5MOL   H207 1415   3.898   6.100   4.771  0.0317 -1.4342 -0.2847
    5MOL   H208 1416   4.031   6.182   4.854 -1.0060  0.0816 -1.1826
    5MOL   H209 1417   4.036   6.171   4.683  0.5589  0.5820  0.4019
    5MOL   H210 1418   4.497   6.060   5.056 -3.6042  1.9387  1.0678
    5MOL   H211 1419   4.487   5.917   5.152  2.4802 -1.2294 -0.6656
    5MOL   C212 1420   4.504   5.873   4.943  0.4429 -0.1376  0.7209
    5MOL   O213 1421   4.583   5.948   4.855 -0.1093  0.7155  0.0875
    5MOL   C214 1422   4.536   6.009   4.747 -0.9541  0.1646  0.1756
    5MOL   O215 1423   4.417   6.016   4.717  0.2270  0.1635  0.0925
    5MOL   C216 1424   4.643   6.081   4.663 -1.0401 -0.3564 -0.0368
    5MOL   C217 1425   4.775   6.012   4.661 -0.0242 -0.2128 -0.6383
    5MOL   C218 1426   4.588   5.756   4.985 -0.4381  1.1499 -0.2996
    5MOL   H219 1427   4.423   5.825   4.888 -0.0217 -1.1684  2.2865
    5MOL   H220 1428   4.596   6.092   4.565 -0.5983 -0.9383 -0.3134
    5MOL   H221 1429   4.649   6.187   4.689 -0.5469 -0.6123  0.9313
    5MOL   H222 1430   4.851   6.056   4.726 -0.4880 -0.6006  0.1732
    5MOL   H223 1431   4.769   5.906   4.685  1.3127  0.2398  1.9648
    5MOL   H224 1432   4.814   6.021   4.560  1.2999 -2.2628 -0.3508
    5MOL   H225 1433   4.615   5.705   4.893  0.9844  1.9271 -0.3221
    5MOL   H226 1434   4.672   5.793   5.043  1.4254 -2.5340 -0.4968
    5MOL   C227 1435   4.505   5.651   5.062  0.3438 -0.0725  0.0122
    5MOL   O228 1436   4.399   5.604   4.987  0.3660  0.5585  0.1977
    5MOL   C229 1437   4.268   5.608   5.036  0.1872 -0.1599  1.3723
    5MOL   O230 1438   4.232   5.660   5.140  0.0888  0.4372  0.3819
    5MOL   C231 1439   4.168   5.552   4.936 -0.1538  0.3158 -0.1083
    5MOL   C232 1440   4.095   5.431   5.003 -0.0606  1.0131 -0.0660
    5MOL   C233 1441   4.589   5.527   5.114 -0.0270  0.1124  0.6806
    5MOL   H234 1442   4.480   5.707   5.152  0.5629  2.2206 -1.3099
    5MOL   H235 1443   4.104   5.628   4.891 -0.5828 -1.3071 -2.3380
    5MOL   H236 1444   4.225   5.522   4.848 -1.0124 -0.5975 -0.3641
    5MOL   H237 1445   4.151   5.370   5.074 -0.7604 -0.7299 -1.0031
    5MOL   H238 1446   4.006   5.476   5.048  0.1050 -0.4349  1.7370
    5MOL   H239 1447   4.056   5.365   4.925 -1.2762  1.8492 -0.1816
    5MOL   H240 1448   4.531   5.452   5.167  0.8416 -0.5884  0.6501
    5MOL   H241 1449   4.629   5.467   5.032  1.6644  2.0425  0.0294
    5MOL   C242 1450   4.708   5.558   5.204 -0.4035 -0.8241 -0.0232
    5MOL   O243 1451   4.648   5.595   5.332 -0.0401 -0.3856  0.1678
    5MOL   C244 1452   4.699   5.692   5.411  0.4236  0.4250 -0.7290
    5MOL   O245 1453   4.788   5.770   5.375  0.7146 -0.0427 -0.0100
    5MOL   C246 1454   4.636   5.691   5.552 -0.5259  0.8939 -0.2843
    5MOL   C247 1455   4.684   5.578   5.652 -0.2550  0.0382 -0.0232
    5MOL   C248 1456   4.792   5.432   5.209 -0.3896  0.2597  0.0783
    5MOL   H249 1457   4.768   5.643   5.172  0.8354 -2.0137 -0.9353
    5MOL   H250 1458   4.645   5.786   5.605 -0.6037  0.8843 -0.2545
    5MOL   H251 1459   4.530   5.668   5.536 -0.0655 -0.4649 -1.4946
    5MOL   H252 1460   4.610   5.500   5.666 -1.1323  0.8908  0.1218
    5MOL   H253 1461   4.772   5.525   5.613  0.3064 -0.1482  1.4645
    5MOL   H254 1462   4.709   5.615   5.751 -0.3815  2.2697 -0.7834
    5MOL   H255 1463   4.733   5.344   5.233  1.4851 -0.7948  0.8756
    5MOL   H256 1464   4.829   5.409   5.110 -1.2787 -0.2701 -0.1373
    5MOL   C257 1465   4.908   5.425   5.312  0.1286 -0.0839  1.0928
    5MOL   O258 1466   4.949   5.292   5.350  0.3932 -0.0364 -0.1229
    5MOL   C259 1467   4.869   5.224   5.431 -0.0080 -0.0247 -0.5764
    5MOL   O260 1468   4.763   5.259   5.473 -0.3216 -0.0754 -0.2505
    5MOL   C261 1469   4.922   5.092   5.476  0.1236  0.4447 -0.3581
    5MOL   C262 1470   4.918   4.986   5.366  0.0774 -0.1119  0.2741
    5MOL   C263 1471   5.028   5.516   5.256 -0.1415  0.2068 -0.4401
    5MOL   H264 1472   4.878   5.467   5.408 -0.0497  0.2085  0.9129
    5MOL   H265 1473   5.024   5.103   5.511 -0.2935  0.5726  0.8203
    5MOL   H266 1474   4.880   5.056   5.569  0.3441  2.2234  0.4540
    5MOL   H267 1475   4.936   4.884   5.400 -1.0948 -0.7109 -0.8443
    5MOL   H268 1476   4.819   4.980   5.321  0.2341 -0.2753 -0.0482
    5MOL   H269 1477   4.990   5.001   5.287 -0.7461 -1.4970 -0.7727
    5MOL   H270 1478   5.081   5.468   5.174 -0.9701 -2.5459  0.5946
    5MOL   H271 1479   4.991   5.611   5.218 -2.0478  0.5446  2.1225
    5MOL   C272 1480   5.135   5.558   5.360 -0.4954  0.4765  1.1712
    5MOL   O273 1481   5.249   5.626   5.295  0.2337  0.1068 -0.2406
    5MOL   C274 1482   5.372   5.579   5.288 -0.0088 -0.0243 -0.1380
    5MOL   O275 1483   5.414   5.470   5.334  0.1899  0.2525 -0.2045
    5MOL   C276 1484   5.469   5.690   5.242  0.0997  0.0034 -0.5764
    5MOL   C277 1485   5.615   5.647   5.220  0.0481 -0.6586  1.6529
    5MOL   C278 1486   5.080   5.648   5.469 -0.2334  0.1030 -0.4259
    5MOL   H279 1487   5.165   5.463   5.403 -0.3204  0.5584  1.2295
    5MOL   H280 1488   5.424   5.751   5.164  3.4650  2.8909 -0.3937
    5MOL   H281 1489   5.476   5.771   5.315  1.8131  0.2470 -0.9904
    5MOL   H282 1490   5.669   5.741   5.209  0.6206 -1.2475 -1.0408
    5MOL   H283 1491   5.657   5.593   5.305 -0.7839 -1.8606  1.3104
    5MOL   H284 1492   5.630   5.590   5.128 -0.2381  0.5127  0.8729
    5MOL   H285 1493   5.101   5.748   5.429 -1.6444  0.8915  0.7568
    5MOL   H286 1494   4.972   5.632   5.471 -0.1797 -0.3992 -1.3282
    5MOL   C287 1495   5.146   5.641   5.610  0.2808  0.3708  0.8480
    5MOL   O288 1496   5.067   5.733   5.685 -0.8876 -0.2925  0.0158
    5MOL   C289 1497   5.114   5.854   5.720 -0.2545 -0.1050 -0.3932
    5MOL   O290 1498   5.219   5.903   5.684 -0.5263  0.0299 -0.0167
    5MOL   C291 1499   5.014   5.940   5.801  0.2138 -0.4934  0.6580
    5MOL   C292 1500   5.045   6.096   5.793 -0.2379  0.0917 -0.9017
    5MOL   C293 1501   5.122   5.504   5.670  0.1704  0.7268  0.3229
    5MOL   H294 1502   5.254   5.653   5.602  0.2543 -0.4737 -0.9077
    5MOL   H295 1503   4.911   5.919   5.773 -0.6987  1.3623  2.5285
    5MOL   H296 1504   5.009   5.908   5.905 -0.1740 -2.2048  0.1407
    5MOL   H297 1505   5.147   6.132   5.804 -0.7636  1.0339  0.9674
    5MOL   H298 1506   5.015   6.133   5.695 -1.5504 -0.7850 -0.8458
    5MOL   H299 1507   4.978   6.148   5.861  1.0137 -0.6611  0.9368
    5MOL   H300 1508   5.183   5.421   5.634 -0.7904 -0.3716  1.1802
    5MOL   H301 1509   5.140   5.515   5.777 -1.4942 -1.8287  0.9063
    5MOL   H302 1510   5.017   5.476   5.657  0.0212  1.5728 -0.3325
    6MOL     C1 1511   7.532   0.648   0.887  0.5755 -0.1123  0.3355
    6MOL     O2 1512   7.507   0.765   0.804 -0.2294 -0.6166 -0.8128
    6MOL     C3 1513   7.384   0.811   0.776  0.4356  0.2224 -0.4502
    6MOL     O4 1514   7.275   0.758   0.801  0.1258  0.4028  0.1229
    6MOL     C5 1515   7.381   0.948   0.704  0.0057  0.2411  0.7888
    6MOL     C6 1516   7.244   1.004   0.651  0.3218  0.1732 -0.4308
    6MOL     C7 1517   7.617   0.682   1.010 -0.9502 -0.3285 -0.0634
    6MOL     H8 1518   7.588   0.574   0.830  0.1213  0.1889 -0.5011
    6MOL     H9 1519   7.416   1.015   0.782  0.3692  1.0162 -0.0331
    6MOL    H10 1520   7.460   0.948   0.629 -0.4793  0.4432  0.2735
    6MOL    H11 1521   7.166   0.967   0.718 -0.8736  0.8720 -1.4047
    6MOL    H12 1522   7.240   1.112   0.664 -0.7467  0.2740 -1.5326
    6MOL    H13 1523   7.233   0.975   0.546  1.3524  0.7178 -0.6929
    6MOL    H14 1524   7.706   0.733   0.973  0.1033  0.8576  3.8193
    6MOL    H15 1525   7.580   0.759   1.078 -1.4495 -1.5880  1.1058
    6MOL    H16 1526   7.434   0.606   0.909  0.8205 -0.6227  0.4699
    6MOL    C17 1527   7.667   0.564   1.093 -0.3050  0.3107 -0.6269
    6MOL    O18 1528   7.784   0.511   1.024  0.1021  0.2734 -0.8541
    6MOL    C19 1529   7.783   0.385   0.967 -0.0614  0.0460 -0.6908
    6MOL    O20 1530   7.682   0.319   0.950  0.1606  0.1666 -0.0098
    6MOL    C21 1531   7.929   0.339   0.933 -0.1100 -0.0419  0.3282
    6MOL    C22 1532   7.935   0.205   0.856  0.2069 -0.4700  0.1432
    6MOL    C23 1533   7.707   0.598   1.244  0.1378  0.2161 -0.1549
    6MOL    H24 1534   7.587   0.490   1.088  1.9827 -2.2625 -0.6511
    6MOL    H25 1535   0.024   0.412   0.862  1.0978 -2.0159 -1.0889
    6MOL    H26 1536   0.048   0.334   1.021  0.7921 -2.6094 -0.4057
    6MOL    H27 1537   0.093   0.170   0.863  0.8408  0.9342 -1.6428
    6MOL    H28 1538   7.859   0.138   0.896 -1.9861  0.0907 -2.8937
    6MOL    H29 1539   7.916   0.219   0.749  0.5012  0.1470  0.1654
    6MOL    H30 1540   7.799   0.657   1.244  0.7842 -0.7749  0.0579
    6MOL    H31 1541   7.635   0.666   1.290 -0.6130 -0.9690  0.4630
    6MOL    C32 1542   7.719   0.473   1.336  0.4126  0.6307 -0.2669
    6MOL    O33 1543   7.616   0.376   1.291  0.4220  0.3139 -0.3884
    6MOL    C34 1544   7.550   0.308   1.386  0.4562 -0.1013 -0.3400
    6MOL    O35 1545   7.542   0.342   1.501 -0.0932  0.0143  0.3760
    6MOL    C36 1546   7.481   0.185   1.326 -0.1270  0.5201  0.8029
    6MOL    C37 1547   7.489   0.050   1.405 -0.8311 -0.0675 -0.6423
    6MOL    C38 1548   7.858   0.393   1.334 -0.5213  0.0040 -0.1306
    6MOL    H39 1549   7.706   0.499   1.441  1.5706  1.5443 -0.3327
    6MOL    H40 1550   7.381   0.198   1.285  0.4433  0.7188 -0.5578
    6MOL    H41 1551   7.526   0.160   1.230 -2.9495 -0.8326 -0.2262
    6MOL    H42 1552   7.432   0.061   1.498  1.4413  0.7650  0.6919
    6MOL    H43 1553   7.448   7.904   1.361 -2.0883  0.6177 -0.9219
    6MOL    H44 1554   7.594   0.025   1.413 -1.0306 -0.1755  2.3170
    6MOL    H45 1555   7.848   0.293   1.377 -0.4907  0.1807  0.2917
    6MOL    H46 1556   7.883   0.386   1.228 -0.2051  1.5428 -0.1603
    6MOL    C47 1557   0.025   0.467   1.411 -0.8158  0.5163 -0.2588
    6MOL    O48 1558   7.933   0.479   1.548  0.0775 -0.4217 -0.4769
    6MOL    C49 1559   7.935   0.593   1.615  0.4582  0.2608 -0.3536
    6MOL    O50 1560   0.024   0.703   1.577  0.0627  0.1645 -0.0853
    6MOL    C51 1561   7.877   0.575   1.756  0.9332 -1.0782 -0.5235
    6MOL    C52 1562   0.018   0.484   1.837  0.5537  0.0541  0.0837
    6MOL    C53 1563   0.163   0.399   1.402 -0.3003  0.1731  0.5342
    6MOL    H54 1564   0.042   0.564   1.363  1.4847 -0.4093 -1.4000
    6MOL    H55 1565   7.850   0.670   1.803  0.4054 -0.7529 -1.4638
    6MOL    H56 1566   7.778   0.531   1.743  0.0217  1.0718 -1.1121
    6MOL    H57 1567   0.036   0.386   1.794 -2.3802  0.1320 -1.4724
    6MOL    H58 1568   0.118   0.517   1.864 -0.4021  0.7044  3.0178
    6MOL    H59 1569   7.909   0.481   1.932  2.2495  2.5370  1.1841
    6MOL    H60 1570   0.225   0.452   1.475  0.5065  0.8727 -0.6515
    6MOL    H61 1571   0.140   0.296   1.432  0.2749  0.2822  1.3714
    6MOL    C62 1572   0.241   0.399   1.264  0.2168  0.1978  0.0671
    6MOL    O63 1573   0.279   0.533   1.241 -0.2892 -0.0982 -0.2828
    6MOL    C64 1574   0.242   0.595   1.124 -0.0962 -0.3546 -0.6005
    6MOL    O65 1575   0.197   0.540   1.023  0.1217  0.5706 -0.1019
    6MOL    C66 1576   0.252   0.748   1.128  0.2450  0.1651  0.4089
    6MOL    C67 1577   0.144   0.818   1.223  0.5370 -0.0209 -0.0975
    6MOL    C68 1578   0.369   0.307   1.262  0.3035  0.0898 -0.3232
    6MOL    H69 1579   0.173   0.375   1.183  0.0482  0.4131  0.1439
    6MOL    H70 1580   0.353   0.763   1.166  0.3785  0.0419  0.0976
    6MOL    H71 1581   0.242   0.785   1.026  0.8686  0.9831  0.6410
    6MOL    H72 1582   0.169   0.924   1.224  0.2440  0.0552 -0.7527
    6MOL    H73 1583   0.044   0.797   1.186  0.2006 -0.7853  1.2003
    6MOL    H74 1584   0.143   0.783   1.327 -0.8990 -1.3819 -0.5546
    6MOL    H75 1585   0.434   0.352   1.337 -0.4080 -1.3162  1.1480
    6MOL    H76 1586   0.333   0.209   1.292  0.9862  0.0863  0.5088
    6MOL    C77 1587   0.438   0.298   1.124  0.2172 -0.5801 -0.3834
    6MOL    O78 1588   0.552   0.216   1.138  0.5173 -0.2687  0.0975
    6MOL    C79 1589   0.679   0.265   1.138 -0.0423  0.3841 -0.5371
    6MOL    O80 1590   0.722   0.376   1.110  0.3330 -0.3960  0.3150
    6MOL    C81 1591   0.783   0.157   1.167  0.3124 -0.1517 -0.6428
    6MOL    C82 1592   0.793   0.047   1.067  0.2725  0.7736 -0.1878
    6MOL    C83 1593   0.341   0.232   1.025 -0.2616  0.4511 -1.0705
    6MOL    H84 1594   0.461   0.398   1.088 -0.7668 -0.3538 -0.3922
    6MOL    H85 1595   0.873   0.212   1.194 -0.5168  0.0229  1.8758
    6MOL    H86 1596   0.757   0.104   1.258  0.8811 -0.8685 -0.9010
    6MOL    H87 1597   0.852   0.077   0.981 -2.3569  2.6738 -1.3783
    6MOL    H88 1598   0.862   7.914   1.103 -0.9123 -0.1888  0.0380
    6MOL    H89 1599   0.702   7.938   1.041  0.2648  0.5657  0.2607
    6MOL    H90 1600   0.296   0.138   1.057 -0.7500  0.9542 -0.2739
    6MOL    H91 1601   0.253   0.296   1.019 -1.8491 -1.5345  0.3611
    6MOL    C92 1602   0.401   0.220   0.886 -0.7451  0.3722  0.5994
    6MOL    O93 1603   0.340   0.112   0.823  0.1668 -0.0234 -0.1873
    6MOL    C94 1604   0.392   7.943   0.799 -0.0653 -0.2549 -0.8870
    6MOL    O95 1605   0.509   7.911   0.821  0.9565  0.0569 -0.0295
    6MOL    C96 1606   0.291   7.857   0.721 -0.3715  0.1524 -0.3242
    6MOL    C97 1607   0.217   7.746   0.806 -0.1250 -0.3310  0.7826
    6MOL    C98 1608   0.403   0.352   0.809  0.0562 -0.1607  0.0455
    6MOL    H99 1609   0.506   0.191   0.893 -0.8536 -0.0655  0.4124
    6MOL   H100 1610   0.217   7.924   0.676  0.2978  0.9916 -0.1797
    6MOL   H101 1611   0.348   7.814   0.638 -2.0430 -0.3071 -1.2776
    6MOL   H102 1612   0.263   7.704   0.895 -0.9200  0.1524  1.4234
    6MOL   H103 1613   0.120   7.785   0.835  0.9766  2.3501  1.0214
    6MOL   H104 1614   0.201   7.663   0.737  0.8976 -0.5112  0.7547
    6MOL   H105 1615   0.298   0.373   0.786 -0.1413 -2.9578 -1.9956
    6MOL   H106 1616   0.445   0.428   0.873 -0.1186 -1.4959  1.7859
    6MOL   C107 1617   0.478   0.365   0.675 -0.1582 -0.8950  0.0114
    6MOL   O108 1618   0.614   0.333   0.699 -0.0335 -0.0446  0.3805
    6MOL   C109 1619   0.705   0.429   0.704 -0.0806 -0.2524 -0.4687
    6MOL   O110 1620   0.687   0.552   0.701  0.1161 -0.3179  0.0256
    6MOL   C111 1621   0.843   0.374   0.693 -0.8805  0.2845  0.2953
    6MOL   C112 1622   0.875   0.258   0.791  0.0680 -0.0287  0.0637
    6MOL   C113 1623   0.425   0.287   0.563 -0.5423 -0.7241 -0.0903
    6MOL   H114 1624   0.454   0.468   0.649  1.9849 -0.2286  0.5908
    6MOL   H115 1625   0.854   0.333   0.592  3.6124 -3.2695  2.0865
    6MOL   H116 1626   0.909   0.460   0.705 -1.6057  0.6748  1.5834
    6MOL   H117 1627   0.942   0.183   0.752 -1.0531 -0.2189 -1.5471
    6MOL   H118 1628   0.913   0.297   0.886  1.4030 -0.6654 -0.2009
    6MOL   H119 1629   0.784   0.210   0.826  0.9811  0.7385  3.7161
    6MOL   H120 1630   0.454   0.182   0.576 -2.6480 -1.3783 -0.4313
    6MOL   H121 1631   0.318   0.274   0.576 -0.5949 -1.0984 -0.8812
    6MOL   C122 1632   0.437   0.350   0.420  0.0394 -0.1742 -0.3973
    6MOL   O123 1633   0.566   0.326   0.377  0.0683 -0.5357  0.2707
    6MOL   C124 1634   0.636   0.428   0.323  0.4339  0.4309  0.1610
    6MOL   O125 1635   0.620   0.544   0.349 -0.4249  0.0529 -0.3835
    6MOL   C126 1636   0.751   0.370   0.248  0.3840 -0.4787  1.1342
    6MOL   C127 1637   0.708   0.296   0.121  0.3334 -0.4487 -0.2624
    6MOL   C128 1638   0.325   0.310   0.322  0.3031  0.1536  0.5671
    6MOL   H129 1639   0.420   0.455   0.443  2.9932 -0.4529  3.5129
    6MOL   H130 1640   0.827   0.440   0.217 -0.3303 -0.5704 -0.9110
    6MOL   H131 1641   0.792   0.297   0.318 -0.9361 -1.8850  0.4736
    6MOL   H132 1642   0.659   0.202   0.145  2.3141 -2.0536 -2.3118
    6MOL   H133 1643   0.632   0.353   0.068  0.5634 -0.6247 -0.7823
    6MOL   H134 1644   0.794   0.270   0.059  1.2431 -1.0212  1.2054
    6MOL   H135 1645   0.359   0.211   0.291  1.8250  0.5523  0.9470
    6MOL   H136 1646   0.228   0.304   0.371 -0.6998 -0.1971 -1.3892
    6MOL   C137 1647   0.313   0.394   0.197 -0.3714 -0.1854  0.1583
    6MOL   O138 1648   0.249   0.315   0.102  0.0555  0.2757  0.1957
    6MOL   C139 1649   0.302   0.301   7.924  0.1153  0.4941  0.4110
    6MOL   O140 1650   0.410   0.355   7.891  0.5139 -0.1063  0.2520
    6MOL   C141 1651   0.214   0.217   7.832  0.9882 -0.0086 -0.1209
    6MOL   C142 1652   0.276   0.166   7.695 -0.3497  0.1105  0.0568
    6MOL   C143 1653   0.250   0.533   0.211  0.2203 -0.1049  0.1428
    6MOL   H144 1654   0.414   0.419   0.167 -0.7978  0.3113 -0.9127
    6MOL   H145 1655   0.177   0.134   7.892  1.4338  0.6208  1.0314
    6MOL   H146 1656   0.129   0.286   7.824  1.4629  0.6794  0.6349
    6MOL   H147 1657   0.359   0.225   7.656 -1.0662  1.4165  0.4664
    6MOL   H148 1658   0.307   0.061   7.695  0.4074  0.3276 -0.1969
    6MOL   H149 1659   0.208   0.163   7.609 -1.0992 -0.2355  0.6545
    6MOL   H150 1660   0.315   0.585   0.281  0.2485 -0.0492  0.0752
    6MOL   H151 1661   0.255   0.588   0.117  0.0765 -0.3009  0.0179
    6MOL   C152 1662   0.102   0.533   0.263 -0.4393 -0.3157 -0.2916
    6MOL   O153 1663   0.091   0.637   0.359 -0.8282  0.6721  0.1725
    6MOL   C154 1664   0.104   0.605   0.486  0.1949  0.5080  0.9905
    6MOL   O155 1665   0.147   0.499   0.538 -0.1712  0.1237  0.0994
    6MOL   C156 1666   0.059   0.722   0.571 -0.0452  0.0901  0.0663
    6MOL   C157 1667   0.095   0.707   0.722 -0.3778  0.6289 -0.0675
    6MOL   C158 1668   7.942   0.569   0.153  0.2614  0.2018 -0.2108
    6MOL   H159 1669   0.068   0.438   0.303 -0.5092 -1.1137 -2.1901
    6MOL   H160 1670   0.110   0.810   0.530 -1.0370  0.9211  0.5959
    6MOL   H161 1671   7.898   0.733   0.547 -0.2738 -1.4311  0.3731
    6MOL   H162 1672   0.096   0.806   0.768 -1.6044  0.9290 -0.6624
    6MOL   H163 1673   0.003   0.663   0.762 -0.4354  2.9673  2.5576
    6MOL   H164 1674   0.185   0.652   0.750 -0.0187  1.9303  1.3801
    6MOL   H165 1675   7.917   0.673   0.135 -1.0878 -0.2172 -0.7748
    6MOL   H166 1676   0.047   0.532   0.063  2.0268 -0.4656  0.9997
    6MOL   C167 1677   7.810   0.495   0.178 -0.7201 -0.0376  0.3435
    6MOL   O168 1678   7.746   0.571   0.279 -0.2506  0.0003 -0.1293
    6MOL   C169 1679   7.708   0.510   0.394  0.7316  0.2857 -0.1879
    6MOL   O170 1680   7.733   0.393   0.422 -0.4252 -0.1760 -0.0972
    6MOL   C171 1681   7.644   0.600   0.492  0.0317  0.0925  0.2255
    6MOL   C172 1682   7.494   0.584   0.488  0.2490  0.2818  0.0531
    6MOL   C173 1683   7.703   0.499   0.066 -0.0617  0.3170 -0.0906
    6MOL   H174 1684   7.826   0.389   0.201 -0.8943  0.1161  1.1692
    6MOL   H175 1685   7.687   0.563   0.585 -0.4769 -2.2596 -0.4460
    6MOL   H176 1686   7.674   0.703   0.469 -0.3580 -0.1579 -1.5036
    6MOL   H177 1687   7.477   0.477   0.504 -0.1401  0.8083  3.4943
    6MOL   H178 1688   7.443   0.646   0.561  0.6539 -1.1040  1.5358
    6MOL   H179 1689   7.456   0.610   0.389 -2.5830  1.8110  1.4943
    6MOL   H180 1690   7.605   0.475   0.105  0.4353 -0.1774  0.8818
    6MOL   H181 1691   7.707   0.602   0.031  0.7639  0.5550  0.6832
    6MOL   C182 1692   7.730   0.410   7.895  0.1103 -0.4931  0.3274
    6MOL   O183 1693   7.693   0.279   7.929  0.0052  0.3389  0.2993
    6MOL   C184 1694   7.763   0.164   7.904  0.2352  0.2887  0.5818
    6MOL   O185 1695   7.872   0.155   7.850  0.0430 -0.7949 -0.0650
    6MOL   C186 1696   7.679   0.038   7.930 -0.1177 -0.1892 -0.1111
    6MOL   C187 1697   7.557   0.025   7.846  0.0058 -1.1819  0.0914
    6MOL   C188 1698   7.638   0.453   7.778  0.0468 -0.9088  0.0119
    6MOL   H189 1699   7.836   0.413   7.869  0.5886  0.5486  2.3083
    6MOL   H190 1700   7.743   7.895   7.919 -1.7600 -1.1832 -2.2979
    6MOL   H191 1701   7.655   0.040   0.091  0.5809  2.5356  0.0305
    6MOL   H192 1702   7.481   0.092   7.886  0.2569 -0.1254 -1.1878
    6MOL   H193 1703   7.572   0.040   7.739  0.6358 -1.7360  0.0984
    6MOL   H194 1704   7.528   7.865   7.847  0.3128 -1.2714 -0.2071
    6MOL   H195 1705   7.533   0.438   7.801 -0.2596  2.8726  1.5065
    6MOL   H196 1706   7.642   0.562   7.768 -0.9113 -0.8792 -0.0289
    6MOL   C197 1707   7.653   0.390   7.634  0.0623  0.4606  0.5184
    6MOL   O198 1708   7.547   0.429   7.544  0.3506  0.0461 -0.5039
    6MOL   C199 1709   7.462   0.330   7.502  0.3583  1.0015  0.8242
    6MOL   O200 1710   7.449   0.213   7.543 -0.5320  0.1669 -0.1901
    6MOL   C201 1711   7.353   0.379   7.401  0.4351  0.6530  0.3023
    6MOL   C202 1712   7.209   0.360   7.461  0.2005  0.0583  0.1479
    6MOL   C203 1713   7.794   0.389   7.568  0.6325  0.3494 -0.4308
    6MOL   H204 1714   7.628   0.287   7.657 -0.7660  0.5955  0.2051
    6MOL   H205 1715   7.379   0.482   7.378 -0.8554  1.5886  2.8824
    6MOL   H206 1716   7.368   0.318   7.312 -1.6996 -2.0585  1.7225
    6MOL   H207 1717   7.185   0.445   7.525  1.0144  0.5878 -0.2577
    6MOL   H208 1718   7.127   0.354   7.390 -0.1724 -1.5239  0.6828
    6MOL   H209 1719   7.205   0.266   7.517  3.5240 -0.1128  0.2089
    6MOL   H210 1720   7.840   0.340   7.655 -1.1755  0.4456  0.6020
    6MOL   H211 1721   7.811   0.335   7.475 -0.3333 -0.7203 -0.0043
    6MOL   C212 1722   7.862   0.529   7.553  0.2550 -0.1823  0.1556
    6MOL   O213 1723   0.058   0.505   7.543  0.3204 -0.5714  0.4948
    6MOL   C214 1724   0.134   0.548   7.644  0.0295 -0.5574  0.5116
    6MOL   O215 1725   0.103   0.591   7.752  0.1884  0.1121 -0.0113
    6MOL   C216 1726   0.285   0.551   7.603  0.2201  0.2385  0.2194
    6MOL   C217 1727   0.331   0.697   7.575 -0.0616  0.0783  0.3474
    6MOL   C218 1728   7.807   0.596   7.428  0.1824 -0.1381 -0.0085
    6MOL   H219 1729   7.851   0.599   7.636 -0.6490  0.2570 -0.3329
    6MOL   H220 1730   0.345   0.505   7.681 -1.9197 -2.9556  0.0453
    6MOL   H221 1731   0.306   0.487   7.518 -0.7614  0.4297 -0.1704
    6MOL   H222 1732   0.261   0.756   7.514 -1.8182 -2.0570  0.2445
    6MOL   H223 1733   0.340   0.758   7.665 -0.4215 -0.0321  0.4585
    6MOL   H224 1734   0.422   0.706   7.515 -0.2762  0.9393  0.1353
    6MOL   H225 1735   7.827   0.528   7.346 -1.3154  0.6571 -1.0560
    6MOL   H226 1736   7.699   0.606   7.437  0.2443  0.4337  0.1659
    6MOL   C227 1737   7.862   0.738   7.414 -0.6606  0.1045 -0.2426
    6MOL   O228 1738   7.864   0.768   7.273 -0.3115  0.2254 -0.0132
    6MOL   C229 1739   0.031   0.790   7.206  0.0131 -0.3094  0.1967
    6MOL   O230 1740   0.141   0.819   7.256 -0.1259  0.5224  0.6526
    6MOL   C231 1741   0.014   0.777   7.054 -0.3225 -0.3439 -0.3544
    6MOL   C232 1742   0.139   0.809   6.961  0.2029 -0.4756  0.4846
    6MOL   C233 1743   7.777   0.844   7.485 -0.1782  0.1051  0.8426
    6MOL   H234 1744   0.018   0.730   7.455 -1.4520  1.4607  2.0440
    6MOL   H235 1745   7.919   0.681   7.023 -3.2567  0.9479 -0.7049
    6MOL   H236 1746   7.887   0.852   7.021  1.4895  1.3587 -0.5902
    6MOL   H237 1747   0.182   0.901   7.002 -0.8030  0.1211  0.2148
    6MOL   H238 1748   0.201   0.720   6.952 -0.5903 -0.8787 -1.3733
    6MOL   H239 1749   0.108   0.836   6.860  1.1931 -0.0330  0.2910
    6MOL   H240 1750   7.686   0.857   7.426  0.1377 -2.3650 -0.2831
    6MOL   H241 1751   7.738   0.798   7.576 -1.5607  0.8865  0.6487
    6MOL   C242 1752   7.853   0.973   7.518 -0.5292 -0.2759  0.0291
    6MOL   O243 1753   7.925   1.038   7.415 -0.1423 -0.2043  0.3449
    6MOL   C244 1754   0.097   1.095   7.433  0.5346  0.3112  0.5726
    6MOL   O245 1755   0.163   1.090   7.543  0.7953 -0.3101 -0.1635
    6MOL   C246 1756   0.152   1.174   7.315 -0.3076 -0.2053  0.8980
    6MOL   C247 1757   0.085   1.309   7.279  0.1555 -0.1009  0.1535
    6MOL   C248 1758   7.758   1.080   7.571 -0.4964  0.6853 -0.0254
    6MOL   H249 1759   7.931   0.952   7.592  0.7913 -1.7977 -1.7390
    6MOL   H250 1760   0.260   1.185   7.325  0.1316 -2.6053 -0.7859
    6MOL   H251 1761   0.145   1.108   7.229  2.7379  1.2493 -0.5403
    6MOL   H252 1762   0.057   1.308   7.174  0.5381 -0.2130  0.0538
    6MOL   H253 1763   7.941   1.324   7.341  0.0687  1.7398 -0.3830
    6MOL   H254 1764   0.157   1.389   7.292  0.4547  0.2331 -3.0804
    6MOL   H255 1765   7.820   1.169   7.587 -0.3634  0.6921 -0.5665
    6MOL   H256 1766   7.683   1.104   7.496 -0.5567  2.0711  0.4609
    6MOL   C257 1767   7.696   1.044   7.710  0.1257  0.2600  0.1745
    6MOL   O258 1768   7.797   1.061   7.812 -0.2264 -0.1622 -0.4695
    6MOL   C259 1769   7.858   0.944   7.854 -0.4067 -0.6928  0.3997
    6MOL   O260 1770   7.837   0.832   7.805 -0.1839 -0.5250 -0.8047
    6MOL   C261 1771   0.015   0.972   0.020 -0.5418  1.3433 -0.0159
    6MOL   C262 1772   0.149   0.991   7.905  0.1763 -0.3253 -0.3800
    6MOL   C263 1773   7.579   1.131   7.751  0.6314  0.0702 -0.3656
    6MOL   H264 1774   7.660   0.941   7.707  2.6728 -0.6077 -2.2728
    6MOL   H265 1775   7.939   1.067   0.070 -0.6801  1.5448 -0.4519
    6MOL   H266 1776   0.004   0.884   0.083 -0.2096 -0.3339 -2.2236
    6MOL   H267 1777   0.145   1.089   7.858 -0.4083 -0.0108  0.3227
    6MOL   H268 1778   0.239   0.980   0.021  1.6061 -1.8120 -2.6811
    6MOL   H269 1779   0.161   0.918   7.825  0.1896 -0.3739 -0.3344
    6MOL   H270 1780   7.538   1.102   7.847 -1.5130  1.6135 -0.7788
    6MOL   H271 1781   7.628   1.229   7.757 -2.5946  1.6809  0.8725
    6MOL   C272 1782   7.466   1.147   7.652  0.5126  0.0623  0.1630
    6MOL   O273 1783   7.411   1.014   7.631 -0.2220 -0.0418 -0.4312
    6MOL   C274 1784   7.327   0.994   7.526 -0.4413 -1.0800  0.2990
    6MOL   O275 1785   7.310   1.077   7.442  0.0036 -0.6641 -0.0255
    6MOL   C276 1786   7.272   0.849   7.519 -0.2337 -0.1157  0.0264
    6MOL   C277 1787   7.383   0.760   7.484 -0.1340  0.2393  0.4096
    6MOL   C278 1788   7.359   1.242   7.710 -0.6554  0.2948  0.5728
    6MOL   H279 1789   7.499   1.179   7.553  2.2630 -0.2107  0.6536
    6MOL   H280 1790   7.229   0.827   7.617  1.1186 -0.5649  0.5294
    6MOL   H281 1791   7.194   0.835   7.445 -0.0631 -1.4618  0.0960
    6MOL   H282 1792   7.347   0.657   7.486  1.3337 -0.2868  0.3474
    6MOL   H283 1793   7.435   0.787   7.392  0.7370 -0.1618  0.7816
    6MOL   H284 1794   7.466   0.774   7.553  0.9921  1.9747 -1.2430
    6MOL   H285 1795   7.276   1.231   7.639 -0.2763 -0.6292  0.2556
    6MOL   H286 1796   7.336   1.191   7.803 -2.3813  0.0227  0.0140
    6MOL   C287 1797   7.392   1.391   7.746  1.0101  0.3756 -0.5071
    6MOL   O288 1798   7.417   1.473   7.625 -0.6499  0.2451 -0.3009
    6MOL   C289 1799   7.543   1.521   7.604 -0.5897  0.5110  0.2534
    6MOL   O290 1800   7.641   1.508   7.685  0.1584 -0.2922  0.5852
    6MOL   C291 1801   7.556   1.575   7.462  0.5249  0.1705  0.4901
    6MOL   C292 1802   7.558   1.450   7.368  0.0404 -0.1127 -0.3069
    6MOL   C293 1803   7.273   1.449   7.828  0.0994 -0.5275  0.0719
    6MOL   H294 1804   7.477   1.402   7.813  0.8395  3.2670 -0.7119
    6MOL   H295 1805   7.475   1.639   7.424  0.3750  0.2850  0.9950
    6MOL   H296 1806   7.647   1.629   7.438  0.4527  0.6050  1.1652
    6MOL   H297 1807   7.657   1.405   7.367  0.6827  1.2360  0.7666
    6MOL   H298 1808   7.480   1.375   7.383  0.5521 -0.5203  0.3402
    6MOL   H299 1809   7.533   1.495   7.272 -0.6740  0.8785  0.3347
    6MOL   H300 1810   7.233   1.373   7.895 -1.3407 -0.6775 -0.9360
    6MOL   H301 1811   7.300   1.540   7.883  2.8067 -0.3989 -1.4220
    6MOL   H302 1812   7.188   1.466   7.762  1.0952  0.7682 -0.8956
    7MOL     C1 1813   7.335   0.116   4.726 -0.7710 -0.2599 -0.0068
    7MOL     O2 1814   7.271   0.148   4.603 -0.9200 -0.2185 -0.2071
    7MOL     C3 1815   7.152   0.199   4.601  0.0393 -0.3775  0.3920
    7MOL     O4 1816   7.088   0.239   4.696 -0.0075  0.1016  0.0109
    7MOL     C5 1817   7.093   0.182   4.463  0.5050 -0.0948 -0.4227
    7MOL     C6 1818   6.944   0.192   4.452  0.0705 -0.2947 -0.0919
    7MOL     C7 1819   7.487   0.098   4.708  0.0203 -0.0704 -0.1659
    7MOL     H8 1820   7.285   0.035   4.779 -1.4765 -1.1859 -2.0492
    7MOL     H9 1821   7.131   0.259   4.396  0.5262 -0.2619 -0.6055
    7MOL    H10 1822   7.121   0.081   4.432  1.1897  0.0701 -0.3562
    7MOL    H11 1823   6.897   0.251   4.530  1.8246  0.1502  0.6342
    7MOL    H12 1824   6.912   0.235   4.357  1.7548  0.1668 -0.4602
    7MOL    H13 1825   6.909   0.090   4.468 -1.8537  0.5269  1.1288
    7MOL    H14 1826   7.489   0.028   4.624 -0.6855  0.3639 -0.5566
    7MOL    H15 1827   7.519   0.197   4.675  0.2139 -0.8160 -2.2978
    7MOL    H16 1828   7.325   0.209   4.784 -0.8813 -1.2880  1.6672
    7MOL    C17 1829   7.573   0.051   4.830  0.2271  0.3775 -0.1259
    7MOL    O18 1830   7.522   7.863   4.866  0.2148  0.1585  0.5009
    7MOL    C19 1831   7.514   7.811   4.987 -0.5116  0.1587  0.3900
    7MOL    O20 1832   7.568   7.857   5.086 -0.1615 -0.2341 -0.5676
    7MOL    C21 1833   7.447   7.675   4.993  0.2327 -0.9071 -0.8735
    7MOL    C22 1834   7.314   7.671   4.923 -0.0371  0.1870 -0.4759
    7MOL    C23 1835   7.722   0.035   4.799  0.1357  0.3846 -0.3087
    7MOL    H24 1836   7.544   0.126   4.904  0.6982  1.8627 -1.4148
    7MOL    H25 1837   7.507   7.597   4.947 -0.2213 -0.7326 -1.7757
    7MOL    H26 1838   7.455   7.642   5.097  0.7309  1.3372 -0.1675
    7MOL    H27 1839   7.337   7.669   4.816  0.5165 -0.3499 -0.3470
    7MOL    H28 1840   7.265   7.577   4.944 -3.2491  1.6971 -0.9179
    7MOL    H29 1841   7.243   7.753   4.937 -0.6147 -0.0857 -1.7727
    7MOL    H30 1842   7.775   7.943   4.887  0.1679 -2.0848 -1.3140
    7MOL    H31 1843   7.733   7.910   4.716  1.5425 -1.6366  1.5193
    7MOL    C32 1844   7.783   0.181   4.780 -0.0525  0.2881  0.3805
    7MOL    O33 1845   7.762   0.261   4.894 -0.0666  0.4209  0.3236
    7MOL    C34 1846   7.682   0.377   4.884  0.0422  0.6540  0.1981
    7MOL    O35 1847   7.617   0.402   4.786 -0.0650 -0.0829  0.0452
    7MOL    C36 1848   7.676   0.461   5.012  0.3606  0.3450  0.4019
    7MOL    C37 1849   7.817   0.495   5.069 -0.0997  0.0698  0.4338
    7MOL    C38 1850   7.941   0.178   4.745  0.5560  0.3593 -0.2137
    7MOL    H39 1851   7.727   0.222   4.696  1.5337  0.1735 -0.7571
    7MOL    H40 1852   7.624   0.551   4.980 -0.2072  0.2717  1.1157
    7MOL    H41 1853   7.618   0.401   5.082 -3.0461  0.3325 -2.2552
    7MOL    H42 1854   7.885   0.415   5.097 -0.6778 -0.4969  0.2376
    7MOL    H43 1855   7.862   0.558   4.991 -0.8287 -0.4392 -0.4116
    7MOL    H44 1856   7.820   0.569   5.149 -1.4718  0.4335  0.1642
    7MOL    H45 1857   0.055   0.155   4.834  0.4049 -0.0559 -0.2194
    7MOL    H46 1858   0.020   0.109   4.664 -1.6564 -0.3445 -0.3091
    7MOL    C47 1859   0.042   0.324   4.698 -0.5554 -0.3717  0.3314
    7MOL    O48 1860   0.150   0.349   4.788  0.1025  1.0827  0.3929
    7MOL    C49 1861   0.195   0.470   4.818  0.5381  0.4090 -0.4149
    7MOL    O50 1862   0.137   0.570   4.777 -0.1235  0.3933 -0.3959
    7MOL    C51 1863   0.317   0.464   4.905 -0.3050 -0.8381  0.0330
    7MOL    C52 1864   0.304   0.437   5.050  0.5169  0.9461 -0.1525
    7MOL    C53 1865   0.091   0.327   4.547  0.6466  0.5364 -0.7426
    7MOL    H54 1866   7.913   0.404   4.708  1.3529  1.3236  1.0551
    7MOL    H55 1867   0.385   0.396   4.855 -0.6027  0.0177 -1.5829
    7MOL    H56 1868   0.376   0.555   4.889  0.4024 -0.9970  1.5834
    7MOL    H57 1869   0.228   0.497   5.102  0.4078  0.7285 -0.0611
    7MOL    H58 1870   0.271   0.334   5.058 -0.4736  1.1886 -0.9105
    7MOL    H59 1871   0.389   0.466   5.111 -1.5659  3.1040  1.8715
    7MOL    H60 1872   0.170   0.400   4.531 -0.9094  2.3588 -0.2064
    7MOL    H61 1873   0.147   0.236   4.526 -0.1918 -0.4157  1.0266
    7MOL    C62 1874   7.935   0.342   4.445 -0.4091  0.4047  0.7165
    7MOL    O63 1875   7.928   0.478   4.409  0.1908  0.2533 -0.3273
    7MOL    C64 1876   7.806   0.538   4.399 -0.0384 -0.6593 -0.3225
    7MOL    O65 1877   7.692   0.487   4.411 -0.5443 -0.0070  0.2007
    7MOL    C66 1878   7.817   0.686   4.377 -0.1442 -0.1028  0.0708
    7MOL    C67 1879   7.830   0.708   4.229  0.3034  0.8199  0.4566
    7MOL    C68 1880   0.022   0.268   4.313  1.0290 -0.1057  0.1448
    7MOL    H69 1881   7.840   0.304   4.482  0.7420 -1.8175  1.4397
    7MOL    H70 1882   7.727   0.737   4.412  0.3444 -1.0149  2.8454
    7MOL    H71 1883   7.899   0.725   4.438  0.3129 -1.2718  0.2267
    7MOL    H72 1884   7.923   0.662   4.193 -0.5904 -0.9293  0.3213
    7MOL    H73 1885   7.750   0.660   4.172 -0.4279  1.3034  1.0814
    7MOL    H74 1886   7.841   0.809   4.190  0.7233  1.3951  2.0455
    7MOL    H75 1887   7.910   0.304   4.227 -0.0781 -0.6496  0.6252
    7MOL    H76 1888   0.121   0.306   4.292  0.6859  0.3170 -0.7251
    7MOL    C77 1889   0.009   0.119   4.313 -0.2427  0.2502  0.5386
    7MOL    O78 1890   7.818   0.097   4.267 -0.5968  0.4234  0.3962
    7MOL    C79 1891   7.724   0.078   4.363  0.4053  0.1898  0.2543
    7MOL    O80 1892   7.747   0.052   4.483  0.2998 -0.1201  0.3161
    7MOL    C81 1893   7.579   0.094   4.320  0.5856  0.0695  0.3280
    7MOL    C82 1894   7.519   7.910   4.262  0.2760 -0.3886  0.7188
    7MOL    C83 1895   0.123   0.059   4.220 -0.4981 -0.0835  0.6771
    7MOL    H84 1896   0.013   0.066   4.409 -1.6737 -0.9993 -0.0619
    7MOL    H85 1897   7.513   0.117   4.403  0.7587 -2.2321  1.1165
    7MOL    H86 1898   7.571   0.176   4.248 -1.4045  0.2675  0.7499
    7MOL    H87 1899   7.416   7.935   4.237  0.5752  1.0299  0.8654
    7MOL    H88 1900   7.582   7.884   4.177  0.1165 -0.6281  0.6761
    7MOL    H89 1901   7.521   7.821   4.324  2.5079 -1.8002 -1.3100
    7MOL    H90 1902   0.123   0.099   4.119 -1.9016  0.9790  1.0754
    7MOL    H91 1903   0.210   0.104   4.267  0.9687 -0.7444 -1.3141
    7MOL    C92 1904   0.149   7.847   4.213 -0.0810  0.3536  0.1189
    7MOL    O93 1905   0.035   7.794   4.144 -0.3702 -0.1758  0.0770
    7MOL    C94 1906   7.900   7.697   4.202 -0.0532 -0.3924 -0.5259
    7MOL    O95 1907   7.919   7.638   4.311  0.2419 -0.0739 -0.3322
    7MOL    C96 1908   7.786   7.665   4.116 -0.0728  0.3315  0.1311
    7MOL    C97 1909   7.819   7.575   3.998  0.6375  0.7975 -0.0180
    7MOL    C98 1910   0.274   7.815   4.125  0.1752 -0.2734  0.1655
    7MOL    H99 1911   0.161   7.807   4.313 -0.0360  0.8294  0.3028
    7MOL   H100 1912   7.710   7.611   4.172  0.6192 -1.5577 -0.7278
    7MOL   H101 1913   7.751   7.761   4.078  1.6965  0.6060 -0.8554
    7MOL   H102 1914   7.852   7.479   4.038 -1.4783 -0.5987 -1.5242
    7MOL   H103 1915   7.738   7.565   3.926  0.1846 -0.5496  0.6611
    7MOL   H104 1916   7.897   7.631   3.947 -0.9999  1.8156 -1.4592
    7MOL   H105 1917   0.252   7.825   4.018 -4.0538 -0.9331  0.9062
    7MOL   H106 1918   0.336   7.902   4.145  1.1086 -1.1942  1.3523
    7MOL   C107 1919   0.362   7.701   4.169  0.2948 -0.4941 -0.4522
    7MOL   O108 1920   0.282   7.586   4.148  0.4191 -0.3111 -0.0437
    7MOL   C109 1921   0.283   7.483   4.241 -0.4992 -0.1863  0.0426
    7MOL   O110 1922   0.380   7.456   4.308 -0.5100 -0.3080  0.2448
    7MOL   C111 1923   0.160   7.388   4.218 -0.7972 -0.1272 -0.2721
    7MOL   C112 1924   0.214   7.258   4.143 -0.7652 -0.0942  0.0013
    7MOL   C113 1925   0.480   7.675   4.075  0.1825  0.1124  0.0598
    7MOL   H114 1926   0.388   7.709   4.274 -0.2662  2.1594 -0.4691
    7MOL   H115 1927   0.135   7.365   4.322  1.6184  2.4347  0.9372
    7MOL   H116 1928   0.083   7.453   4.176  1.8344  2.8936 -0.6431
    7MOL   H117 1929   0.129   7.192   4.125  0.3668 -2.5001  3.0483
    7MOL   H118 1930   0.256   7.275   4.044 -0.8958 -0.0545 -0.0472
    7MOL   H119 1931   0.284   7.199   4.203  0.4819  0.3671 -0.9952
    7MOL   H120 1932   0.508   7.574   4.105 -2.8319 -0.8109 -0.0114
    7MOL   H121 1933   0.453   7.667   3.970 -1.7118  2.3907  0.3080
    7MOL   C122 1934   0.607   7.757   4.104 -0.0990  0.2481 -0.0445
    7MOL   O123 1935   0.672   7.708   4.228  0.3704 -0.1263 -0.2944
    7MOL   C124 1936   0.651   7.757   4.354 -0.4433 -1.1809 -0.2742
    7MOL   O125 1937   0.578   7.854   4.388  0.0854  0.6574 -0.5418
    7MOL   C126 1938   0.727   7.669   4.456  0.3352 -1.0282 -0.4379
    7MOL   C127 1939   0.720   7.515   4.418 -0.3880  0.3702 -0.3145
    7MOL   C128 1940   0.710   7.753   3.985 -0.3132  0.3039 -0.0597
    7MOL   H129 1941   0.580   7.861   4.121 -0.5888  0.4176 -1.7627
    7MOL   H130 1942   0.827   7.710   4.465 -0.7651  1.4834  1.0446
    7MOL   H131 1943   0.672   7.677   4.550 -0.2715  0.0335 -0.8746
    7MOL   H132 1944   0.788   7.493   4.335  0.1309 -1.9209  0.6722
    7MOL   H133 1945   0.749   7.453   4.503  0.1916  1.8386  0.5687
    7MOL   H134 1946   0.619   7.498   4.381 -0.8836  1.5985  0.4757
    7MOL   H135 1947   0.808   7.792   4.013  0.0274  0.3688 -1.2965
    7MOL   H136 1948   0.739   7.650   3.964 -0.2216  0.6238 -1.5761
    7MOL   C137 1949   0.657   7.819   3.860 -0.0448 -0.4571 -0.1197
    7MOL   O138 1950   0.691   0.011   3.848  0.4302  0.7571 -0.2118
    7MOL   C139 1951   0.633   0.113   3.908 -0.5109 -0.3784  0.1021
    7MOL   O140 1952   0.540   0.104   3.989 -0.2762 -0.2787 -0.1677
    7MOL   C141 1953   0.693   0.248   3.859  0.7155  0.0697 -0.0106
    7MOL   C142 1954   0.673   0.363   3.957  0.4845  0.3860 -0.3509
    7MOL   C143 1955   0.710   7.760   3.725 -0.1907 -0.2044  0.0187
    7MOL   H144 1956   0.549   7.808   3.857 -0.1633  0.2767  1.1404
    7MOL   H145 1957   0.800   0.235   3.839  1.7909  1.2790  4.3132
    7MOL   H146 1958   0.640   0.272   3.767  0.9242  1.6527  0.2593
    7MOL   H147 1959   0.679   0.323   4.058 -0.7046  0.0042 -0.4177
    7MOL   H148 1960   0.733   0.452   3.939  0.1633  1.0580  1.7699
    7MOL   H149 1961   0.569   0.394   3.947  1.1912  2.3071 -2.1089
    7MOL   H150 1962   0.663   7.821   3.648 -1.0575 -3.4107 -2.1283
    7MOL   H151 1963   0.819   7.764   3.722 -0.2883  1.8574 -1.4887
    7MOL   C152 1964   0.653   7.613   3.698  0.4751 -0.3445  0.0195
    7MOL   O153 1965   0.510   7.611   3.698 -0.5045  0.4742  0.1386
    7MOL   C154 1966   0.449   7.502   3.753 -0.1809 -0.3017 -0.4420
    7MOL   O155 1967   0.505   7.425   3.833 -0.1705 -0.4496  0.6437
    7MOL   C156 1968   0.304   7.474   3.716  0.6197 -0.2090  0.1678
    7MOL   C157 1969   0.215   7.596   3.739 -0.7202 -0.1424 -0.2734
    7MOL   C158 1970   0.713   7.546   3.572  0.6089  0.1593 -0.9718
    7MOL   H159 1971   0.695   7.556   3.781  1.8649 -1.2874 -1.3056
    7MOL   H160 1972   0.280   7.432   3.618  0.4094  0.6537 -0.1509
    7MOL   H161 1973   0.274   7.390   3.779 -2.7316 -0.0691 -1.1680
    7MOL   H162 1974   0.186   7.590   3.844 -1.7122  2.6621 -0.3649
    7MOL   H163 1975   0.262   7.693   3.724 -0.0424 -0.3475  0.4318
    7MOL   H164 1976   0.121   7.586   3.686 -1.3486 -1.2713  1.0029
    7MOL   H165 1977   0.671   7.609   3.493  0.9681  0.0703 -1.2312
    7MOL   H166 1978   0.817   7.568   3.551  0.3822 -0.2479 -2.5331
    7MOL   C167 1979   0.681   7.402   3.556  0.2585 -0.3376 -0.5608
    7MOL   O168 1980   0.694   7.375   3.414  0.1502  0.6093 -0.2900
    7MOL   C169 1981   0.593   7.370   3.330  0.0386 -0.6734  0.4837
    7MOL   O170 1982   0.477   7.361   3.372  0.3053 -0.3641  0.5471
    7MOL   C171 1983   0.631   7.369   3.188  0.5038 -0.1087 -0.1664
    7MOL   C172 1984   0.680   7.234   3.137  0.2217  0.0558  0.8660
    7MOL   C173 1985   0.770   7.312   3.639  0.8151 -0.2651 -0.6351
    7MOL   H174 1986   0.576   7.380   3.573  0.4905 -2.0609 -1.2944
    7MOL   H175 1987   0.553   7.395   3.117  1.8253 -0.8107 -1.9167
    7MOL   H176 1988   0.712   7.439   3.163 -1.2102  1.5887 -1.0753
    7MOL   H177 1989   0.610   7.156   3.168  0.7788 -1.4591 -1.5094
    7MOL   H178 1990   0.693   7.232   3.029  1.8394 -2.3012  1.0658
    7MOL   H179 1991   0.781   7.213   3.171 -0.0496  0.3338  1.8403
    7MOL   H180 1992   0.860   7.282   3.586  0.4141  0.7494 -1.9184
    7MOL   H181 1993   0.806   7.355   3.733 -0.6759 -0.9259  0.2667
    7MOL   C182 1994   0.680   7.187   3.684 -0.1114  0.3797 -0.1693
    7MOL   O183 1995   0.624   7.128   3.569 -0.3910 -0.3496 -0.1570
    7MOL   C184 1996   0.493   7.103   3.567 -0.1855 -0.4593 -0.5084
    7MOL   O185 1997   0.421   7.124   3.662  0.4191  0.5515 -0.2630
    7MOL   C186 1998   0.431   7.037   3.446 -0.0070  0.0165 -0.1442
    7MOL   C187 1999   0.512   6.918   3.395 -0.5877 -0.6005  0.2755
    7MOL   C188 2000   0.765   7.074   3.759  0.0533  0.6516  0.2624
    7MOL   H189 2001   0.604   7.239   3.742 -2.1676  1.6528 -3.8179
    7MOL   H190 2002   0.329   7.006   3.469 -0.9355  2.2656 -1.0799
    7MOL   H191 2003   0.412   7.116   3.373 -2.3262 -0.1491  0.2569
    7MOL   H192 2004   0.599   6.949   3.337  0.4782 -3.8547  0.0476
    7MOL   H193 2005   0.537   6.860   3.484  4.9283  2.8533  1.2592
    7MOL   H194 2006   0.465   6.847   3.327  3.0174 -2.3373 -0.5255
    7MOL   H195 2007   0.702   6.988   3.783 -0.8586  1.0020 -0.7788
    7MOL   H196 2008   0.847   7.033   3.700  1.4507 -1.2316  3.3912
    7MOL   C197 2009   0.834   7.114   3.890 -0.1104 -0.2087  0.8554
    7MOL   O198 2010   0.731   7.160   3.979  0.3171  0.4452 -0.0597
    7MOL   C199 2011   0.736   7.284   4.029  0.4855 -0.1743 -0.0640
    7MOL   O200 2012   0.824   7.368   4.005  0.7784 -0.0589 -0.2382
    7MOL   C201 2013   0.624   7.310   4.130 -0.2146 -0.1866 -0.3840
    7MOL   C202 2014   0.631   7.222   4.262  0.0677 -0.2496 -0.4550
    7MOL   C203 2015   0.900   6.988   3.954  0.0790 -0.5622 -0.1621
    7MOL   H204 2016   0.907   7.187   3.854  0.1177 -0.6598  0.3870
    7MOL   H205 2017   0.623   7.412   4.170  1.9830  0.3588 -1.6753
    7MOL   H206 2018   0.529   7.283   4.084 -1.9458  0.1475  2.8831
    7MOL   H207 2019   0.611   7.117   4.244  2.1103 -0.7265 -0.0513
    7MOL   H208 2020   0.727   7.233   4.313  1.0046  0.7417 -2.3702
    7MOL   H209 2021   0.560   7.259   4.335  1.4972  5.0792 -1.5287
    7MOL   H210 2022   0.818   6.919   3.974 -0.7639 -0.5533 -3.2295
    7MOL   H211 2023   0.962   6.947   3.874  1.1200 -0.0144  0.3507
    7MOL   C212 2024   0.973   7.020   4.085  0.4851  1.1177  0.2110
    7MOL   O213 2025   1.028   6.903   4.142  0.0534  0.1309  0.0652
    7MOL   C214 2026   0.974   6.859   4.260  0.4263 -0.6197 -0.2579
    7MOL   O215 2027   0.893   6.918   4.329 -0.1243 -0.1589  0.6441
    7MOL   C216 2028   1.021   6.716   4.294  0.3538 -0.3612  0.3029
    7MOL   C217 2029   0.939   6.610   4.226  0.2022  0.0616  0.0398
    7MOL   C218 2030   1.084   7.129   4.064 -0.2250  0.2756 -0.5022
    7MOL   H219 2031   0.898   7.067   4.149  0.7363  0.9594  0.6227
    7MOL   H220 2032   1.123   6.698   4.259  0.3353  0.0556  0.0223
    7MOL   H221 2033   1.032   6.707   4.402  1.4221  0.9969  0.3171
    7MOL   H222 2034   0.940   6.634   4.119  1.3410 -1.1738 -0.2369
    7MOL   H223 2035   0.994   6.516   4.231 -2.5955 -1.5607  2.1431
    7MOL   H224 2036   0.838   6.607   4.268 -0.8567  1.3423 -2.2776
    7MOL   H225 2037   1.158   7.100   3.989  1.5843  3.2442  0.0761
    7MOL   H226 2038   1.046   7.220   4.019 -0.9127  1.0703  1.5989
    7MOL   C227 2039   1.169   7.168   4.187  0.0581 -0.4512  0.0796
    7MOL   O228 2040   1.256   7.277   4.162  0.6026 -0.3188  0.2331
    7MOL   C229 2041   1.388   7.265   4.168  0.7024 -0.0698  0.3573
    7MOL   O230 2042   1.454   7.175   4.227  0.4758 -0.1081 -0.6605
    7MOL   C231 2043   1.459   7.378   4.097  0.1459  0.0750 -0.2255
    7MOL   C232 2044   1.515   7.483   4.182 -0.6537 -0.1126  0.2701
    7MOL   C233 2045   1.082   7.211   4.314  0.1075  0.1333  0.5308
    7MOL   H234 2046   1.224   7.078   4.214  0.0840  0.0342  1.6787
    7MOL   H235 2047   1.538   7.330   4.038  0.2796  2.2960 -1.9167
    7MOL   H236 2048   1.386   7.422   4.028  1.6904 -0.2311 -2.1071
    7MOL   H237 2049   1.556   7.565   4.123 -0.6295 -0.4326 -0.1568
    7MOL   H238 2050   1.437   7.542   4.232 -1.1959  0.3165 -1.0673
    7MOL   H239 2051   1.581   7.442   4.258  0.8586  0.7377 -0.5666
    7MOL   H240 2052   1.022   7.287   4.262  1.2078  0.9889  0.4903
    7MOL   H241 2053   1.015   7.127   4.332  0.0785 -0.2877 -1.3770
    7MOL   C242 2054   1.146   7.266   4.442  0.4635 -0.4003 -0.1158
    7MOL   O243 2055   1.045   7.328   4.525 -0.2015  0.3954  0.4220
    7MOL   C244 2056   1.055   7.460   4.559 -0.1024 -0.4253  0.2420
    7MOL   O245 2057   1.118   7.542   4.494 -0.2359  0.2364 -0.1562
    7MOL   C246 2058   0.975   7.496   4.687  0.0218  0.0617  0.5121
    7MOL   C247 2059   1.004   7.642   4.746  0.3559  0.8310  0.8948
    7MOL   C248 2060   1.217   7.162   4.529 -0.8145  0.2135 -0.2087
    7MOL   H249 2061   1.218   7.339   4.403  0.3497 -0.4400 -0.3993
    7MOL   H250 2062   0.874   7.467   4.658  0.0828 -1.0281  1.3696
    7MOL   H251 2063   0.998   7.414   4.755 -0.2951 -0.4007  0.0712
    7MOL   H252 2064   0.926   7.662   4.819 -0.5384 -2.2466  0.8627
    7MOL   H253 2065   1.098   7.657   4.799 -0.1067  2.8187  1.1831
    7MOL   H254 2066   0.998   7.714   4.665 -0.2525  0.0532  0.2350
    7MOL   H255 2067   1.136   7.101   4.568 -0.5436  0.4805  0.7745
    7MOL   H256 2068   1.278   7.101   4.462  1.8014 -0.3405  2.5788
    7MOL   C257 2069   1.311   7.230   4.645  0.8518  0.2206 -0.4328
    7MOL   O258 2070   1.338   7.117   4.721 -0.7240 -0.6161 -0.3708
    7MOL   C259 2071   1.368   7.126   4.851  0.0171  0.1751 -0.5511
    7MOL   O260 2072   1.338   7.228   4.916 -0.0072 -0.5913  0.0836
    7MOL   C261 2073   1.431   7.004   4.920  0.1545 -0.0642  0.0211
    7MOL   C262 2074   1.571   6.956   4.864 -0.2924 -0.2754  0.1606
    7MOL   C263 2075   1.441   7.282   4.585 -0.7347  0.0652  0.5029
    7MOL   H264 2076   1.250   7.305   4.693 -0.0078  1.1101 -2.8393
    7MOL   H265 2077   1.433   7.024   5.027 -0.2027 -0.0995  0.0345
    7MOL   H266 2078   1.363   6.919   4.913 -0.3743  0.1913  1.7405
    7MOL   H267 2079   1.561   6.899   4.771 -0.0807 -0.3752  0.1977
    7MOL   H268 2080   1.634   7.043   4.849 -1.3505  0.8263  1.9164
    7MOL   H269 2081   1.621   6.891   4.936 -1.0788  0.2282  1.1774
    7MOL   H270 2082   1.505   7.195   4.573 -0.9162  0.2573 -2.1629
    7MOL   H271 2083   1.427   7.332   4.489 -2.0860  1.6002  1.4778
    7MOL   C272 2084   1.508   7.393   4.663  0.1063 -0.1511  0.0326
    7MOL   O273 2085   1.624   7.424   4.582  0.0204  0.1539 -0.6158
    7MOL   C274 2086   1.739   7.363   4.603  0.9297 -0.0148 -0.6836
    7MOL   O275 2087   1.758   7.265   4.678  0.2197 -0.1236 -0.1106
    7MOL   C276 2088   1.855   7.446   4.548  0.2074 -0.0980  0.1402
    7MOL   C277 2089   1.994   7.427   4.625  0.5615  0.6645  0.4226
    7MOL   C278 2090   1.419   7.519   4.689 -0.0811 -0.2134 -0.1696
    7MOL   H279 2091   1.539   7.355   4.760  1.0795 -1.5893 -0.8253
    7MOL   H280 2092   1.866   7.417   4.443  1.0964  0.9572 -0.0684
    7MOL   H281 2093   1.837   7.554   4.543 -0.8354 -0.2145  1.0400
    7MOL   H282 2094   2.027   7.331   4.665 -0.8258  0.6839  1.6905
    7MOL   H283 2095   2.079   7.465   4.568  1.6015 -0.2922  1.3368
    7MOL   H284 2096   1.988   7.496   4.709 -0.2169 -0.0344  0.9427
    7MOL   H285 2097   1.417   7.584   4.602 -0.6989  0.6915  0.5042
    7MOL   H286 2098   1.316   7.491   4.707 -0.0204 -0.0529  0.4505
    7MOL   C287 2099   1.471   7.606   4.812  0.0053  0.1807  0.6716
    7MOL   O288 2100   1.424   7.742   4.795 -0.1728  0.5204  0.1629
    7MOL   C289 2101   1.491   7.836   4.740 -0.4116  0.3236 -0.3407
    7MOL   O290 2102   1.615   7.838   4.728  0.7791  0.2550 -0.7179
    7MOL   C291 2103   1.404   0.010   4.696 -0.4787  0.0185 -0.5556
    7MOL   C292 2104   1.277   7.903   4.631  0.1610  0.0408  0.3900
    7MOL   C293 2105   1.414   7.566   4.946 -0.4457  0.3447 -0.2139
    7MOL   H294 2106   1.579   7.593   4.814  0.1769  1.5190  0.4814
    7MOL   H295 2107   1.373   0.059   4.788 -1.7520 -0.7398 -0.5722
    7MOL   H296 2108   1.452   0.075   4.623  1.9565 -0.5042  0.5398
    7MOL   H297 2109   1.230   7.817   4.678 -0.6316  0.4990  0.4492
    7MOL   H298 2110   1.202   0.037   4.621  1.0985  0.9760  0.6201
    7MOL   H299 2111   1.305   7.887   4.527 -0.1197 -1.3679  0.5211
    7MOL   H300 2112   1.305   7.572   4.944 -0.4215  1.4083  0.9979
    7MOL   H301 2113   1.442   7.465   4.977  1.4877  0.8489 -0.2933
    7MOL   H302 2114   1.448   7.620   5.035  0.7344  0.6504 -0.8406
    8MOL     C1 2115   5.332   1.330   1.196  0.1580  0.8603  0.1616
    8MOL     O2 2116   5.428   1.435   1.189 -0.0459 -0.1925  0.9321
    8MOL     C3 2117   5.406   1.550   1.256 -0.2095 -0.0789 -0.7341
    8MOL     O4 2118   5.329   1.567   1.351  0.0485  0.1853 -0.3585
    8MOL     C5 2119   5.488   1.668   1.205  0.0923 -0.5100  0.0608
    8MOL     C6 2120   5.438   1.707   1.063  0.2793  0.5630 -0.2670
    8MOL     C7 2121   5.272   1.315   1.059  0.2355  0.6738 -0.6393
    8MOL     H8 2122   5.259   1.325   1.277 -1.2271  2.0375 -0.9942
    8MOL     H9 2123   5.472   1.750   1.275 -0.5354  0.1106 -0.7995
    8MOL    H10 2124   5.590   1.632   1.197  0.1454 -0.7862  1.8376
    8MOL    H11 2125   5.454   1.635   0.983 -0.9865  0.1991 -0.2157
    8MOL    H12 2126   5.331   1.731   1.059  0.5987  1.9620 -0.6211
    8MOL    H13 2127   5.502   1.785   1.022  0.5587  0.4237 -0.0949
    8MOL    H14 2128   5.216   1.407   1.045  2.5964  2.1712 -0.4775
    8MOL    H15 2129   5.337   1.315   0.971  1.3019  1.4565  0.1346
    8MOL    H16 2130   5.388   1.241   1.227 -1.2945  0.2695  1.1626
    8MOL    C17 2131   5.188   1.196   1.044  0.2729  0.0730 -0.4769
    8MOL    O18 2132   5.073   1.206   1.125 -0.2040  0.2903 -0.3255
    8MOL    C19 2133   5.028   1.094   1.176 -0.7475 -0.0423 -0.2368
    8MOL    O20 2134   5.096   0.989   1.181  0.1630  0.5574  0.5072
    8MOL    C21 2135   4.884   1.102   1.229  0.1894  0.3349 -0.0477
    8MOL    C22 2136   4.844   1.221   1.314  0.2959 -0.7524 -0.2668
    8MOL    C23 2137   5.165   1.163   0.894 -0.4837 -0.3443  0.0510
    8MOL    H24 2138   5.252   1.114   1.077 -1.0446 -0.4796  0.7156
    8MOL    H25 2139   4.811   1.070   1.155  1.1536 -0.1326 -0.8056
    8MOL    H26 2140   4.877   1.015   1.295  0.2990  0.6290  0.3564
    8MOL    H27 2141   4.921   1.298   1.306 -0.7863  0.2921 -0.8324
    8MOL    H28 2142   4.751   1.266   1.278  0.8390  0.3800 -0.2737
    8MOL    H29 2143   4.837   1.199   1.420 -0.5281  1.1347  0.0873
    8MOL    H30 2144   5.090   1.084   0.891 -1.3579  0.4477  0.6582
    8MOL    H31 2145   5.114   1.245   0.843 -0.2063 -0.8086 -0.9927
    8MOL    C32 2146   5.288   1.128   0.813  0.0344 -0.7370 -0.5508
    8MOL    O33 2147   5.363   1.026   0.881  0.1031 -0.0757 -0.1181
    8MOL    C34 2148   5.500   1.031   0.901  0.1569  0.0715 -0.4411
    8MOL    O35 2149   5.582   1.113   0.864  0.1860 -0.3434 -0.4051
    8MOL    C36 2150   5.554   0.913   0.983  0.3286 -0.2542 -0.0747
    8MOL    C37 2151   5.503   0.918   1.134 -0.2734 -0.2320  0.2387
    8MOL    C38 2152   5.254   1.094   0.670  0.0943  0.1638 -0.1686
    8MOL    H39 2153   5.344   1.221   0.807 -1.2700  0.0730 -0.3298
    8MOL    H40 2154   5.529   0.814   0.946 -0.1191 -0.5114  0.8890
    8MOL    H41 2155   5.663   0.916   0.978  0.3062  3.8297 -0.2131
    8MOL    H42 2156   5.520   0.824   1.186 -1.8521 -1.5689 -1.5836
    8MOL    H43 2157   5.552   1.001   1.186  1.8205 -1.2508 -0.0580
    8MOL    H44 2158   5.395   0.935   1.132 -0.3212 -0.6349 -1.0728
    8MOL    H45 2159   5.194   1.178   0.635  0.5531  0.5392 -0.0659
    8MOL    H46 2160   5.353   1.090   0.625  1.1601 -0.3604  2.1405
    8MOL    C47 2161   5.164   0.971   0.642 -0.7186 -0.0603  0.0522
    8MOL    O48 2162   5.027   0.995   0.674  0.4515  0.5253 -0.4819
    8MOL    C49 2163   4.943   0.896   0.722 -0.1248  0.0672 -0.0584
    8MOL    O50 2164   4.983   0.778   0.745 -0.0656 -0.3306 -0.2628
    8MOL    C51 2165   4.797   0.941   0.741  0.5571  0.7012  0.1053
    8MOL    C52 2166   4.755   0.918   0.897  0.2516 -0.0463  0.2780
    8MOL    C53 2167   5.178   0.922   0.495  0.1290  0.3979  0.0149
    8MOL    H54 2168   5.204   0.893   0.707  0.6207  0.2520 -0.3848
    8MOL    H55 2169   4.777   1.040   0.702  1.3957  0.0942 -1.9601
    8MOL    H56 2170   4.742   0.870   0.679 -0.9850  2.6320 -0.7611
    8MOL    H57 2171   4.766   1.002   0.965  1.4714  0.6457 -0.7502
    8MOL    H58 2172   4.646   0.914   0.898  0.2175  0.9879  0.9105
    8MOL    H59 2173   4.795   0.828   0.945  0.0038 -0.6253 -0.5967
    8MOL    H60 2174   5.083   0.947   0.448  1.0969  1.5554 -1.3426
    8MOL    H61 2175   5.253   0.977   0.439  0.5606  0.6985  0.8753
    8MOL    C62 2176   5.194   0.768   0.482  1.1081 -0.9708  0.1993
    8MOL    O63 2177   5.197   0.733   0.343 -0.3301 -0.0422  0.6912
    8MOL    C64 2178   5.103   0.648   0.288 -0.7440 -0.1131  0.0583
    8MOL    O65 2179   5.029   0.568   0.349  0.9273  0.3454  0.5941
    8MOL    C66 2180   5.100   0.640   0.138  0.1695  0.1102  0.1450
    8MOL    C67 2181   5.025   0.758   0.081  0.3711  0.6982 -0.0415
    8MOL    C68 2182   5.323   0.720   0.550 -0.0208  0.0884 -0.1660
    8MOL    H69 2183   5.106   0.722   0.527 -0.3319 -0.1019 -1.6603
    8MOL    H70 2184   5.202   0.631   0.099 -0.9254 -0.1142 -2.8199
    8MOL    H71 2185   5.046   0.551   0.105  1.4593 -0.8996  0.7305
    8MOL    H72 2186   5.094   0.838   0.053  0.5669 -0.3512 -2.6758
    8MOL    H73 2187   4.985   0.724   7.931  1.0664 -0.5017  0.0823
    8MOL    H74 2188   4.951   0.799   0.150  0.8947 -0.1214  1.0102
    8MOL    H75 2189   5.402   0.722   0.475 -0.3982  0.5658 -0.5577
    8MOL    H76 2190   5.355   0.786   0.632 -1.8710  1.7314 -0.7166
    8MOL    C77 2191   5.328   0.571   0.600  0.5775 -0.7842 -0.5683
    8MOL    O78 2192   5.454   0.529   0.648  0.4508  0.2167  0.6013
    8MOL    C79 2193   5.562   0.521   0.564  0.5974 -0.3525  0.3289
    8MOL    O80 2194   5.553   0.520   0.439 -0.2642 -0.6556 -0.3002
    8MOL    C81 2195   5.689   0.497   0.638 -0.5795  0.3649  0.4923
    8MOL    C82 2196   5.741   0.628   0.701  0.1850 -0.7557 -0.3435
    8MOL    C83 2197   5.231   0.535   0.716  0.7450  0.1188  0.2015
    8MOL    H84 2198   5.307   0.505   0.516 -4.8351  0.1101 -0.0544
    8MOL    H85 2199   5.659   0.425   0.714 -0.6470  0.1505  0.2656
    8MOL    H86 2200   5.756   0.441   0.573  2.3514  1.5309  2.4074
    8MOL    H87 2201   5.680   0.665   0.783  1.7092 -1.2987  1.0561
    8MOL    H88 2202   5.844   0.620   0.737 -0.0464  0.4771  0.5882
    8MOL    H89 2203   5.743   0.715   0.635 -0.0121 -0.6238 -0.1725
    8MOL    H90 2204   5.255   0.575   0.815  0.7596  2.5169 -0.7282
    8MOL    H91 2205   5.132   0.574   0.690  1.0101  1.2253  0.8299
    8MOL    C92 2206   5.213   0.384   0.750 -0.2109 -0.4957 -0.9515
    8MOL    O93 2207   5.294   0.352   0.865 -0.4224 -0.1272 -0.1585
    8MOL    C94 2208   5.398   0.269   0.850 -0.4770 -0.0204  0.2274
    8MOL    O95 2209   5.425   0.214   0.745 -0.6583  0.1034 -0.1557
    8MOL    C96 2210   5.477   0.252   0.986  1.5066 -0.1098  0.0335
    8MOL    C97 2211   5.621   0.213   0.954 -0.3536  0.0478 -0.2075
    8MOL    C98 2212   5.071   0.359   0.803  0.1893 -0.5488  1.1716
    8MOL    H99 2213   5.233   0.327   0.659  1.5818 -1.9257  0.2979
    8MOL   H100 2214   5.492   0.357   1.013  1.6059 -0.0976 -0.0689
    8MOL   H101 2215   5.433   0.186   1.060  1.2313  1.0348  0.9071
    8MOL   H102 2216   5.669   0.272   0.876  4.0847 -0.8357  1.7405
    8MOL   H103 2217   5.682   0.214   1.044  0.2364 -0.0964 -0.6071
    8MOL   H104 2218   5.623   0.109   0.924  1.0993  0.2918 -0.9834
    8MOL   H105 2219   5.054   0.422   0.891 -2.1870 -0.3273  0.5744
    8MOL   H106 2220   5.012   0.388   0.717  0.3079  0.5491  1.4543
    8MOL   C107 2221   5.026   0.224   0.855 -0.2643  0.6121  0.4198
    8MOL   O108 2222   4.897   0.240   0.909 -0.3393 -0.0598 -0.7295
    8MOL   C109 2223   4.875   0.256   1.044 -0.0598  0.2141  0.3878
    8MOL   O110 2224   4.964   0.261   1.124  0.5162 -0.0067  0.6270
    8MOL   C111 2225   4.732   0.269   1.085  1.1701 -0.1754  0.3144
    8MOL   C112 2226   4.622   0.191   1.005  0.0232 -0.0746  0.4385
    8MOL   C113 2227   5.026   0.124   0.734  0.7370 -0.9401 -0.1248
    8MOL   H114 2228   5.093   0.173   0.924  0.0440 -1.0207 -1.0681
    8MOL   H115 2229   4.731   0.231   1.187 -0.5019  2.3234  1.2807
    8MOL   H116 2230   4.708   0.372   1.114 -0.2729 -0.7984  1.3827
    8MOL   H117 2231   4.629   0.201   0.896 -2.7955 -0.0510  0.2148
    8MOL   H118 2232   4.657   0.089   1.018  2.9111  0.4344 -2.5456
    8MOL   H119 2233   4.521   0.206   1.043  0.1823  1.9859  0.1444
    8MOL   H120 2234   4.949   0.156   0.663  0.6806  2.0544  1.2508
    8MOL   H121 2235   5.120   0.147   0.683  0.5463  4.0193  1.5224
    8MOL   C122 2236   4.998   7.918   0.772  0.4654  0.8371 -0.5946
    8MOL   O123 2237   4.985   7.848   0.648  0.2052  0.1627  0.0690
    8MOL   C124 2238   4.856   7.826   0.604 -0.1181  0.2229 -0.1200
    8MOL   O125 2239   4.747   7.830   0.658 -0.5706  0.5330  0.0521
    8MOL   C126 2240   4.859   7.778   0.459  0.1403  0.3725 -0.1361
    8MOL   C127 2241   4.965   7.668   0.427  0.3661 -0.1461 -0.5019
    8MOL   C128 2242   5.110   7.851   0.849  0.1113  0.1569  0.7102
    8MOL   H129 2243   4.908   7.920   0.833  1.1062  0.2250  0.3926
    8MOL   H130 2244   4.761   7.744   0.427 -1.0877  0.7077  3.0447
    8MOL   H131 2245   4.888   7.864   0.398  0.9476 -0.9648 -1.6553
    8MOL   H132 2246   4.989   7.653   0.322  0.1430  0.8478 -0.7040
    8MOL   H133 2247   5.062   7.695   0.468 -1.4412  0.6166  3.5595
    8MOL   H134 2248   4.932   7.581   0.484 -0.0133 -0.1429 -0.7123
    8MOL   H135 2249   5.188   7.855   0.773 -1.5159 -0.0961 -0.9991
    8MOL   H136 2250   5.137   7.922   0.927 -2.2294  0.6650  1.0838
    8MOL   C137 2251   5.088   7.701   0.895 -0.2548  0.6062 -0.2431
    8MOL   O138 2252   4.952   7.666   0.906  0.6567  0.0603  0.5382
    8MOL   C139 2253   4.903   7.643   1.023  0.6321  0.1316  0.2975
    8MOL   O140 2254   4.965   7.643   1.130  0.6440 -0.0856 -0.2131
    8MOL   C141 2255   4.759   7.601   1.007  0.0740 -0.3667 -0.0338
    8MOL   C142 2256   4.746   7.462   0.952  0.2660  1.0165  0.1080
    8MOL   C143 2257   5.152   7.600   0.800 -0.8200  0.6210 -0.3460
    8MOL   H144 2258   5.141   7.692   0.991 -2.0461  0.0481  0.7123
    8MOL   H145 2259   4.691   7.613   1.091  1.1585 -0.9010  0.9365
    8MOL   H146 2260   4.728   7.678   0.936 -0.3053 -1.2475 -0.8459
    8MOL   H147 2261   4.642   7.442   0.926  0.5371 -1.0754  0.4869
    8MOL   H148 2262   4.811   7.441   0.867  0.7271 -4.3047  1.5584
    8MOL   H149 2263   4.783   7.391   1.026  0.1286  2.8282  1.9621
    8MOL   H150 2264   5.120   7.499   0.825  1.0627  0.3284  1.0275
    8MOL   H151 2265   5.114   7.625   0.701  1.2601  1.2833 -0.9932
    8MOL   C152 2266   5.299   7.596   0.794 -0.0427  0.5573  0.0274
    8MOL   O153 2267   5.354   7.592   0.929 -0.6275 -0.1315  0.0604
    8MOL   C154 2268   5.438   7.685   0.985  0.7816 -0.6958 -0.2229
    8MOL   O155 2269   5.455   7.790   0.934  0.8324 -0.5876  0.3380
    8MOL   C156 2270   5.496   7.649   1.122 -0.5905  0.3238  0.2361
    8MOL   C157 2271   5.389   7.623   1.230  0.2986 -0.3632 -0.4757
    8MOL   C158 2272   5.359   7.477   0.723 -0.7613  0.1855  0.0472
    8MOL   H159 2273   5.328   7.690   0.746  1.3791  1.0549  1.8359
    8MOL   H160 2274   5.570   7.570   1.113  0.1942  0.9475  1.2400
    8MOL   H161 2275   5.560   7.731   1.152  1.6111 -0.6610 -1.6160
    8MOL   H162 2276   5.292   7.584   1.198  0.1492  0.3216 -0.8697
    8MOL   H163 2277   5.428   7.545   1.296 -0.9364  0.3870  1.1583
    8MOL   H164 2278   5.372   7.714   1.286  0.9957  0.0006 -0.8486
    8MOL   H165 2279   5.331   7.387   0.778 -0.6001 -0.3224 -0.6814
    8MOL   H166 2280   5.312   7.460   0.626 -1.1529  0.5301  0.1776
    8MOL   C167 2281   5.508   7.486   0.694 -0.1548  0.0291 -0.0951
    8MOL   O168 2282   5.545   7.372   0.628  0.2292  0.4319  0.8404
    8MOL   C169 2283   5.663   7.314   0.627  0.4352  0.3993 -0.0489
    8MOL   O170 2284   5.750   7.337   0.708  0.0976  0.5354  0.0073
    8MOL   C171 2285   5.674   7.205   0.521 -0.5849  0.7695 -0.1720
    8MOL   C172 2286   5.593   7.081   0.560 -0.2695 -0.0218  0.3244
    8MOL   C173 2287   5.559   7.618   0.625 -0.3250 -0.3970  0.3924
    8MOL   H174 2288   5.550   7.487   0.794 -1.6331  0.5032  0.5246
    8MOL   H175 2289   5.649   7.234   0.419  1.8792 -3.0030 -1.9604
    8MOL   H176 2290   5.778   7.174   0.520 -0.5095  0.9668  0.8490
    8MOL   H177 2291   5.640   7.023   0.639 -0.3123 -1.2201 -0.5142
    8MOL   H178 2292   5.496   7.108   0.603 -0.2408 -2.1531  1.7964
    8MOL   H179 2293   5.572   7.014   0.477 -0.4100 -0.3300  0.6114
    8MOL   H180 2294   5.524   7.606   0.522 -0.0105 -0.0037  0.2379
    8MOL   H181 2295   5.502   7.708   0.652  1.1554  0.6051  0.2149
    8MOL   C182 2296   5.706   7.662   0.635 -0.4541 -0.1364  0.4338
    8MOL   O183 2297   5.722   7.783   0.565 -0.0228  0.2793  0.4834
    8MOL   C184 2298   5.843   7.818   0.495 -0.2276 -0.4625  0.3287
    8MOL   O185 2299   5.942   7.744   0.490 -0.1429 -0.1869  0.0713
    8MOL   C186 2300   5.834   0.008   0.447  0.1651  0.5655 -0.3337
    8MOL   C187 2301   5.803   0.107   0.560 -0.2148  0.7925 -0.0756
    8MOL   C188 2302   5.746   7.693   0.775 -0.4458  0.1186 -0.1583
    8MOL   H189 2303   5.776   7.586   0.602 -0.3528 -0.1267  0.6307
    8MOL   H190 2304   5.928   0.036   0.399  0.2527  0.1386 -0.4155
    8MOL   H191 2305   5.753   0.011   0.374  0.5274  3.0739 -0.6682
    8MOL   H192 2306   5.881   0.101   0.635 -0.3248  0.5422  0.0198
    8MOL   H193 2307   5.804   0.209   0.521  2.7977 -0.4243 -3.4645
    8MOL   H194 2308   5.703   0.092   0.601  0.4379 -1.8697  0.6289
    8MOL   H195 2309   5.694   7.783   0.807 -1.1229 -0.5430  0.6166
    8MOL   H196 2310   5.695   7.621   0.838 -0.7123  1.1629  0.8404
    8MOL   C197 2311   5.896   7.705   0.808 -0.2674  0.2824 -0.0659
    8MOL   O198 2312   5.920   7.764   0.939 -0.0123 -0.0838  0.1916
    8MOL   C199 2313   5.876   7.706   1.053 -0.5085  0.0158 -0.4390
    8MOL   O200 2314   5.827   7.592   1.057 -0.2502  0.2414  0.2074
    8MOL   C201 2315   5.892   7.798   1.181  0.0782  0.0270  0.4270
    8MOL   C202 2316   6.018   7.887   1.161  0.9500 -0.7270 -0.3213
    8MOL   C203 2317   5.973   7.567   0.799 -0.3193 -0.1468  0.0424
    8MOL   H204 2318   5.934   7.780   0.738  2.0388  0.1851  1.0345
    8MOL   H205 2319   5.811   7.871   1.190  1.6025  1.5492  2.3308
    8MOL   H206 2320   5.886   7.732   1.268 -0.3435 -3.2267 -1.9972
    8MOL   H207 2321   6.103   7.828   1.126  2.8434  0.9285  1.3663
    8MOL   H208 2322   6.007   0.021   1.087  0.2400 -3.3935 -3.1666
    8MOL   H209 2323   6.050   7.932   1.256 -1.4920 -0.3335  0.3355
    8MOL   H210 2324   5.922   7.494   0.862 -0.0428  0.7637  1.3472
    8MOL   H211 2325   5.953   7.516   0.705  0.3770  0.3770 -0.3993
    8MOL   C212 2326   6.127   7.563   0.819  0.0575  0.6018 -0.0863
    8MOL   O213 2327   6.159   7.425   0.857 -0.2106  0.4763 -0.2784
    8MOL   C214 2328   6.184   7.388   0.984 -0.4706 -0.3688  0.5822
    8MOL   O215 2329   6.176   7.470   1.081  0.1482 -0.1389  0.7260
    8MOL   C216 2330   6.226   7.242   1.001 -0.3001  1.5604 -0.9121
    8MOL   C217 2331   6.361   7.219   0.931 -0.0993 -0.0915 -0.4248
    8MOL   C218 2332   6.217   7.596   0.697 -0.0584  0.0935 -0.4167
    8MOL   H219 2333   6.156   7.624   0.905  0.0086  1.7657 -0.8958
    8MOL   H220 2334   6.251   7.233   1.107  0.6498  1.0835 -1.1783
    8MOL   H221 2335   6.152   7.169   0.969 -0.2168  0.7878  0.6059
    8MOL   H222 2336   6.359   7.243   0.825 -0.4937  0.9650 -0.1802
    8MOL   H223 2337   6.436   7.280   0.981 -0.1593  0.0428 -0.5004
    8MOL   H224 2338   6.391   7.116   0.950  0.1180 -0.1506 -1.0530
    8MOL   H225 2339   6.317   7.557   0.715 -0.3435  1.0506  3.7475
    8MOL   H226 2340   6.178   7.552   0.605 -3.2060 -0.7140  1.2208
    8MOL   C227 2341   6.246   7.748   0.678  0.6948  0.4897  0.3929
    8MOL   O228 2342   6.329   7.800   0.784  0.0569  0.4003 -0.3540
    8MOL   C229 2343   6.314   7.925   0.829  0.5339 -0.2348 -0.0360
    8MOL   O230 2344   6.228   0.062   0.783 -0.7368 -0.4385 -0.6508
    8MOL   C231 2345   6.405   0.019   0.942  0.4419  0.6007 -0.1101
    8MOL   C232 2346   6.374   0.159   0.993  0.2883  0.0033  0.3716
    8MOL   C233 2347   6.306   7.765   0.536  0.7064  1.1089 -0.1629
    8MOL   H234 2348   6.149   7.797   0.678  0.4095 -0.0138 -1.3497
    8MOL   H235 2349   6.369   7.894   1.018  1.5658  2.2407  1.9824
    8MOL   H236 2350   6.509   7.933   0.928  0.8812  1.1285  1.9691
    8MOL   H237 2351   6.270   0.178   1.020  0.3459  1.6494 -0.5079
    8MOL   H238 2352   6.438   0.174   1.080 -0.3547  1.7553  0.5645
    8MOL   H239 2353   6.422   0.233   0.929 -2.0114  0.0064 -1.4337
    8MOL   H240 2354   6.404   7.718   0.539 -0.1753 -0.7387  0.1321
    8MOL   H241 2355   6.248   7.716   0.458  0.5127 -0.0418  0.6976
    8MOL   C242 2356   6.329   7.906   0.483 -0.0275 -0.5078  0.2170
    8MOL   O243 2357   6.393   7.894   0.359 -0.2841 -0.1813  0.2901
    8MOL   C244 2358   6.483   0.038   0.320  0.1511 -0.3400  0.1922
    8MOL   O245 2359   6.518   0.139   0.383  0.0411 -0.2359  0.4556
    8MOL   C246 2360   6.537   0.002   0.182  0.1477  0.2854  0.3419
    8MOL   C247 2361   6.443   0.067   0.073 -0.4185  0.0790 -0.0090
    8MOL   C248 2362   6.196   0.042   0.454 -0.2539 -0.0250  0.4760
    8MOL   H249 2363   6.392   0.009   0.559  1.6875 -2.0270 -0.2010
    8MOL   H250 2364   6.639   0.040   0.186  0.7521 -1.5133  2.2700
    8MOL   H251 2365   6.539   7.839   0.166 -0.9525 -0.0578  2.3935
    8MOL   H252 2366   6.432   7.936   7.940  1.4368  0.7291 -0.9478
    8MOL   H253 2367   6.346   0.092   0.116 -1.9664 -0.8497 -2.7861
    8MOL   H254 2368   6.489   0.152   0.022  2.1069 -0.7657  0.7872
    8MOL   H255 2369   6.154   7.931   0.370  1.4653 -2.3611  1.0937
    8MOL   H256 2370   6.136   0.032   0.545 -1.8548  0.5682 -0.4928
    8MOL   C257 2371   6.215   0.197   0.425  0.5080 -0.4673  0.1120
    8MOL   O258 2372   6.091   0.256   0.397  0.2310  0.0296 -0.0413
    8MOL   C259 2373   6.056   0.267   0.264  0.3237  0.5849 -1.0132
    8MOL   O260 2374   6.123   0.240   0.168  0.0287  0.0369 -0.2429
    8MOL   C261 2375   5.929   0.351   0.239  0.3630  0.0265  0.1509
    8MOL   C262 2376   5.824   0.261   0.176  0.4165 -0.1600  0.3726
    8MOL   C263 2377   6.275   0.272   0.553 -0.7654  0.5103 -0.0420
    8MOL   H264 2378   6.283   0.202   0.340  0.9755 -1.5621  0.4154
    8MOL   H265 2379   5.899   0.390   0.336 -3.4276 -1.3448 -0.3878
    8MOL   H266 2380   5.960   0.436   0.179  2.1570  1.7213  3.3427
    8MOL   H267 2381   5.860   0.192   0.100 -1.3758 -1.1635  0.3990
    8MOL   H268 2382   5.774   0.202   0.253 -1.3961  0.1869 -0.5162
    8MOL   H269 2383   5.751   0.324   0.125  0.7725  0.1547  0.2563
    8MOL   H270 2384   6.200   0.281   0.632 -0.3621  0.2189  0.3790
    8MOL   H271 2385   6.352   0.207   0.594 -0.1002  0.3345 -1.5643
    8MOL   C272 2386   6.339   0.410   0.522 -0.2158 -0.4685 -0.3833
    8MOL   O273 2387   6.239   0.506   0.555 -0.6211  0.4841  0.4245
    8MOL   C274 2388   6.180   0.582   0.457 -0.3647 -0.1666  0.1414
    8MOL   O275 2389   6.208   0.572   0.336 -0.0463 -0.5919  0.0441
    8MOL   C276 2390   6.074   0.684   0.506 -0.2268 -0.3119  0.7697
    8MOL   C277 2391   6.007   0.767   0.401 -0.1583 -0.5735 -0.3507
    8MOL   C278 2392   6.475   0.434   0.593 -0.2788  0.5396  0.2403
    8MOL   H279 2393   6.355   0.411   0.415 -1.8432 -2.4065 -0.6677
    8MOL   H280 2394   6.002   0.625   0.564  1.4015 -3.3062 -0.1343
    8MOL   H281 2395   6.121   0.750   0.578  0.4386  0.5694 -0.4693
    8MOL   H282 2396   5.940   0.708   0.338 -0.1828 -1.5730  0.5987
    8MOL   H283 2397   5.953   0.850   0.447 -2.0343 -2.1682  0.4137
    8MOL   H284 2398   6.089   0.818   0.349 -1.0730  0.2855 -0.9713
    8MOL   H285 2399   6.448   0.443   0.698 -0.2142 -0.9637  0.3953
    8MOL   H286 2400   6.526   0.339   0.580 -0.6535  0.4389 -0.5030
    8MOL   C287 2401   6.544   0.554   0.523 -0.6363 -0.3534 -0.1011
    8MOL   O288 2402   6.488   0.677   0.568  0.2934 -0.4422 -0.1229
    8MOL   C289 2403   6.472   0.784   0.482  0.7136 -0.3258  0.3118
    8MOL   O290 2404   6.509   0.787   0.367 -0.3894 -0.5744 -0.5296
    8MOL   C291 2405   6.395   0.900   0.539 -0.5512 -0.5108  0.4312
    8MOL   C292 2406   6.323   1.000   0.446 -0.3213 -0.2691 -0.3330
    8MOL   C293 2407   6.696   0.557   0.558 -0.0581  0.4156  0.0378
    8MOL   H294 2408   6.540   0.545   0.415  1.7343 -2.6435 -0.0491
    8MOL   H295 2409   6.310   0.859   0.593 -1.6106  0.3055 -0.5764
    8MOL   H296 2410   6.445   0.953   0.620  1.1040 -1.3243 -0.0440
    8MOL   H297 2411   6.252   0.956   0.377 -0.2325 -0.3808 -0.3529
    8MOL   H298 2412   6.266   1.071   0.506  1.1966  0.3035  0.4666
    8MOL   H299 2413   6.391   1.070   0.396 -1.1218  1.7776  1.3731
    8MOL   H300 2414   6.712   0.566   0.665  2.5673  1.9237 -0.4502
    8MOL   H301 2415   6.743   0.464   0.528  1.1779  0.5990  1.3723
    8MOL   H302 2416   6.751   0.643   0.522 -0.4485  1.1234  1.0989
    9MOL     C1 2417   4.387   1.327   3.707 -0.4649 -0.0446  0.2147
    9MOL     O2 2418   4.459   1.251   3.612  0.5966 -0.1181 -0.2050
    9MOL     C3 2419   4.475   1.123   3.637  0.8325  0.1449  0.7468
    9MOL     O4 2420   4.447   1.073   3.744  0.2347  0.1073 -0.7917
    9MOL     C5 2421   4.514   1.033   3.521 -0.3476 -0.9008 -0.4806
    9MOL     C6 2422   4.621   0.936   3.565 -0.1346 -0.8782  0.2720
    9MOL     C7 2423   4.359   1.469   3.652  0.4451  1.1493 -0.4000
    9MOL     H8 2424   4.456   1.326   3.791  1.5577 -0.4883 -1.3910
    9MOL     H9 2425   4.427   0.981   3.483 -0.9133 -0.3734  0.0849
    9MOL    H10 2426   4.549   1.095   3.439 -1.9565  0.4089 -0.1973
    9MOL    H11 2427   4.669   0.892   3.477 -0.1531  1.1596 -0.7863
    9MOL    H12 2428   4.696   0.989   3.623  0.3109  0.7618 -1.7714
    9MOL    H13 2429   4.586   0.858   3.634  1.2334 -1.2877  0.5049
    9MOL    H14 2430   4.445   1.509   3.599  1.9122  0.2158  1.2392
    9MOL    H15 2431   4.284   1.463   3.573  0.5934  1.3322 -0.5552
    9MOL    H16 2432   4.293   1.282   3.738 -0.2787  0.1653  1.0930
    9MOL    C17 2433   4.315   1.567   3.765  0.3937  0.7182  0.2096
    9MOL    O18 2434   4.291   1.695   3.714 -0.0978 -0.1150 -0.1727
    9MOL    C19 2435   4.373   1.798   3.745  0.5227  0.5425  0.1555
    9MOL    O20 2436   4.462   1.790   3.830 -0.3074  0.5543  0.3009
    9MOL    C21 2437   4.355   1.921   3.661 -0.0837  0.5458 -0.8621
    9MOL    C22 2438   4.378   2.052   3.735 -0.0955 -0.6141 -0.0984
    9MOL    C23 2439   4.192   1.516   3.846 -0.2053 -0.1919 -0.4764
    9MOL    H24 2440   4.395   1.577   3.838  0.6980  1.1586 -0.1797
    9MOL    H25 2441   4.414   1.912   3.570  0.0615 -0.1625 -0.6955
    9MOL    H26 2442   4.257   1.919   3.612 -0.3308 -0.5614 -0.3211
    9MOL    H27 2443   4.479   2.061   3.776  0.5812 -0.2000 -1.8072
    9MOL    H28 2444   4.381   2.123   3.652  1.9596 -0.5805 -0.0285
    9MOL    H29 2445   4.296   2.079   3.802 -0.4842 -1.2058 -0.3402
    9MOL    H30 2446   4.103   1.510   3.784 -0.7800 -0.0618  0.3275
    9MOL    H31 2447   4.216   1.418   3.885  1.7188  1.1544  1.8877
    9MOL    C32 2448   4.137   1.596   3.966 -0.6554 -0.6290 -0.1156
    9MOL    O33 2449   4.029   1.530   4.019 -1.0926 -0.1123  0.1427
    9MOL    C34 2450   3.908   1.583   4.014  0.3999  0.5443  0.6846
    9MOL    O35 2451   3.886   1.700   3.987  0.1544  0.4405 -0.0838
    9MOL    C36 2452   3.793   1.497   4.052  0.3311  0.6791  0.6804
    9MOL    C37 2453   3.725   1.564   4.186  0.2102 -0.0526  0.1456
    9MOL    C38 2454   4.242   1.602   4.076  0.6187  0.2528 -0.2598
    9MOL    H39 2455   4.102   1.695   3.936 -3.1326 -0.7279  2.2195
    9MOL    H40 2456   3.719   1.494   3.972 -0.0009  1.0809  0.9714
    9MOL    H41 2457   3.827   1.396   4.074  1.7563  1.0969  0.4410
    9MOL    H42 2458   3.787   1.560   4.275  0.1780 -0.0624  0.1678
    9MOL    H43 2459   3.682   1.663   4.169  0.6989  0.0127 -0.7196
    9MOL    H44 2460   3.644   1.493   4.206  0.6010 -0.8316 -1.0236
    9MOL    H45 2461   4.255   1.506   4.127 -1.6004  0.4649  0.7591
    9MOL    H46 2462   4.342   1.624   4.040  1.2177 -0.2671  1.0559
    9MOL    C47 2463   4.216   1.711   4.177 -0.1963 -0.0641 -0.3181
    9MOL    O48 2464   4.303   1.686   4.289  0.1793 -0.7833 -0.0914
    9MOL    C49 2465   4.273   1.594   4.389 -0.1956 -1.0088 -0.0528
    9MOL    O50 2466   4.164   1.537   4.403  0.3181  0.1500 -0.3582
    9MOL    C51 2467   4.382   1.583   4.497  0.7005  0.2510 -0.1684
    9MOL    C52 2468   4.523   1.614   4.461  0.0249 -0.3193  0.0386
    9MOL    C53 2469   4.237   1.861   4.133 -0.2849  0.9676  0.3362
    9MOL    H54 2470   4.113   1.696   4.211  0.2090 -3.2665 -0.3809
    9MOL    H55 2471   4.358   1.656   4.574  0.3201  0.9856 -0.9777
    9MOL    H56 2472   4.370   1.485   4.544 -2.7798  1.1096  0.8416
    9MOL    H57 2473   4.528   1.720   4.435  3.3433 -0.0235  1.6411
    9MOL    H58 2474   4.590   1.600   4.546  0.2536  2.2549  0.3250
    9MOL    H59 2475   4.562   1.556   4.378  2.2264 -0.6140  1.2397
    9MOL    H60 2476   4.344   1.883   4.128  0.1605 -1.0264  0.7211
    9MOL    H61 2477   4.198   1.883   4.034 -2.3180 -0.6159  0.7390
    9MOL    C62 2478   4.180   1.973   4.222  0.3809  0.1875 -0.2404
    9MOL    O63 2479   4.187   2.094   4.147  0.7613 -0.2675  0.2813
    9MOL    C64 2480   4.268   2.194   4.186 -0.5756  0.3023  0.3346
    9MOL    O65 2481   4.350   2.188   4.277 -0.0898 -0.4159  0.7107
    9MOL    C66 2482   4.250   2.332   4.122  0.1658  0.2346 -0.3546
    9MOL    C67 2483   4.109   2.389   4.135 -0.1614  0.7522  0.0513
    9MOL    C68 2484   4.033   1.951   4.264 -0.4328  0.2569  0.4445
    9MOL    H69 2485   4.241   1.975   4.312 -0.2806  2.4275  0.1957
    9MOL    H70 2486   4.308   2.403   4.180 -0.4841  0.8459 -0.4482
    9MOL    H71 2487   4.294   2.315   4.024 -0.7140  0.3110 -0.7660
    9MOL    H72 2488   4.101   2.481   4.078  0.2683 -0.4190 -1.9651
    9MOL    H73 2489   4.037   2.321   4.088 -0.0206 -0.0640  0.9997
    9MOL    H74 2490   4.081   2.404   4.239 -0.0147  0.2278  0.1681
    9MOL    H75 2491   3.971   2.040   4.253 -2.0049 -0.8498  0.3270
    9MOL    H76 2492   3.991   1.894   4.182 -0.4651  0.3914  0.3676
    9MOL    C77 2493   4.021   1.903   4.409  0.3640  0.6737  0.0313
    9MOL    O78 2494   4.024   2.014   4.498  0.2835 -0.2972 -0.2508
    9MOL    C79 2495   4.135   2.018   4.578 -0.4408  0.7998  0.6154
    9MOL    O80 2496   4.239   1.951   4.558 -0.2693 -0.6307 -0.0625
    9MOL    C81 2497   4.126   2.111   4.698 -0.4181 -0.6232  0.2599
    9MOL    C82 2498   4.075   2.058   4.831 -0.7456 -0.3400 -0.9244
    9MOL    C83 2499   3.892   1.820   4.417 -0.1768  0.2089 -0.0504
    9MOL    H84 2500   4.098   1.829   4.431 -0.4183 -0.1424  0.0645
    9MOL    H85 2501   4.222   2.160   4.714 -0.6713 -0.0746  0.1156
    9MOL    H86 2502   4.067   2.198   4.669 -0.1343 -0.7985 -0.8431
    9MOL    H87 2503   4.093   2.126   4.914 -0.5430 -0.6450 -0.7207
    9MOL    H88 2504   3.967   2.040   4.831 -0.5456 -1.6550 -2.1979
    9MOL    H89 2505   4.122   1.961   4.847 -0.4149  0.0357  0.4054
    9MOL    H90 2506   3.811   1.866   4.359 -0.5429 -1.6485 -1.0624
    9MOL    H91 2507   3.903   1.729   4.358 -1.8433 -0.7502  1.0777
    9MOL    C92 2508   3.851   1.757   4.546  0.1083 -0.1131  0.3395
    9MOL    O93 2509   3.962   1.697   4.610 -0.3099  0.3717 -0.0332
    9MOL    C94 2510   3.954   1.582   4.684  0.6445 -0.1948  0.0474
    9MOL    O95 2511   3.845   1.526   4.710 -0.4266  0.3756 -0.4846
    9MOL    C96 2512   4.079   1.538   4.755  0.0122 -0.4062  0.4019
    9MOL    C97 2513   4.122   1.389   4.729  0.1494 -0.1068 -0.0155
    9MOL    C98 2514   3.773   1.850   4.640 -0.0522 -0.8187 -0.3301
    9MOL    H99 2515   3.780   1.679   4.518 -0.0799  0.1407  0.1039
    9MOL   H100 2516   4.161   1.600   4.719  0.3384 -1.8280 -1.4187
    9MOL   H101 2517   4.068   1.565   4.859  0.2616  0.2901  0.2484
    9MOL   H102 2518   4.035   1.323   4.733 -0.7706  1.0212 -0.8778
    9MOL   H103 2519   4.171   1.372   4.634  0.1845 -1.6206  0.2647
    9MOL   H104 2520   4.183   1.350   4.810  0.5836  2.3752  0.8912
    9MOL   H105 2521   3.766   1.798   4.736 -0.3152  1.3120  0.8314
    9MOL   H106 2522   3.827   1.942   4.660  0.8529 -1.1860 -1.0271
    9MOL   C107 2523   3.637   1.886   4.576 -0.3654  0.2516  0.3511
    9MOL   O108 2524   3.552   1.775   4.573  0.2152 -0.3213  0.2312
    9MOL   C109 2525   3.512   1.715   4.459 -0.2632 -0.1468 -0.0084
    9MOL   O110 2526   3.514   1.766   4.347  0.0457  0.7292  0.5068
    9MOL   C111 2527   3.437   1.587   4.485 -0.7724 -0.2534 -0.3875
    9MOL   C112 2528   3.528   1.470   4.512 -0.1796  0.6318 -0.0261
    9MOL   C113 2529   3.559   1.999   4.648 -0.1220  0.4275  0.1299
    9MOL   H114 2530   3.658   1.914   4.472  0.2312  2.7778  1.1268
    9MOL   H115 2531   3.376   1.600   4.575 -0.4497 -0.8832 -0.0751
    9MOL   H116 2532   3.369   1.566   4.402 -2.1985 -0.3783  0.7851
    9MOL   H117 2533   3.578   1.432   4.423 -0.8623 -2.8082  1.0179
    9MOL   H118 2534   3.609   1.489   4.583 -0.6817  0.1144  0.6864
    9MOL   H119 2535   3.473   1.383   4.546 -0.1308  1.0232  1.0828
    9MOL   H120 2536   3.465   2.007   4.594  0.8982 -1.2740 -1.9048
    9MOL   H121 2537   3.526   1.967   4.747  1.0721  0.9128  0.6943
    9MOL   C122 2538   3.630   2.135   4.645 -0.4911  0.4276  0.4792
    9MOL   O123 2539   3.690   2.155   4.516  0.2767 -0.2326 -0.2436
    9MOL   C124 2540   3.798   2.227   4.507 -0.6004  0.0743 -0.3521
    9MOL   O125 2541   3.849   2.290   4.593 -0.2197  0.5093 -0.0496
    9MOL   C126 2542   3.824   2.267   4.361 -0.2054  0.0992 -0.3423
    9MOL   C127 2543   3.713   2.352   4.302 -0.1915 -0.3633  0.2054
    9MOL   C128 2544   3.539   2.249   4.699 -0.3465 -0.7347  0.2393
    9MOL   H129 2545   3.720   2.126   4.707 -0.8345 -0.2155  0.8956
    9MOL   H130 2546   3.914   2.327   4.373 -0.9502  0.9456  1.1237
    9MOL   H131 2547   3.852   2.177   4.308  1.2498  1.7281 -2.4191
    9MOL   H132 2548   3.735   2.400   4.206 -1.0695  1.9864  1.1328
    9MOL   H133 2549   3.627   2.286   4.292  0.5362 -1.5178  1.3561
    9MOL   H134 2550   3.686   2.429   4.374  0.5864 -0.4652  0.6122
    9MOL   H135 2551   3.604   2.334   4.679 -1.9514  0.2251 -1.0649
    9MOL   H136 2552   3.456   2.254   4.629 -0.2516  2.0325  0.2706
    9MOL   C137 2553   3.502   2.247   4.843 -0.0696 -0.0130 -0.1293
    9MOL   O138 2554   3.602   2.323   4.919  0.1883  0.2626  0.0534
    9MOL   C139 2555   3.721   2.271   4.961  0.1305 -0.3062  0.0603
    9MOL   O140 2556   3.763   2.161   4.934 -0.0484  0.0205 -0.5052
    9MOL   C141 2557   3.803   2.378   5.025 -0.1843  0.4628  1.1195
    9MOL   C142 2558   3.911   2.421   4.925  0.1369 -0.6822 -0.0431
    9MOL   C143 2559   3.363   2.305   4.862  0.1432 -0.6384  0.1256
    9MOL   H144 2560   3.504   2.146   4.886  1.8836 -0.6430 -1.6137
    9MOL   H145 2561   3.737   2.461   5.050 -0.9695 -0.3921  1.9036
    9MOL   H146 2562   3.840   2.331   5.116  1.2539 -0.6914 -0.0292
    9MOL   H147 2563   3.868   2.447   4.828 -0.7901 -1.7780  0.0619
    9MOL   H148 2564   3.965   2.510   4.957 -0.7566  0.4947 -1.7433
    9MOL   H149 2565   3.983   2.342   4.906 -2.1465 -2.8664  0.1165
    9MOL   H150 2566   3.344   2.339   4.963  3.8385  1.0718  0.2914
    9MOL   H151 2567   3.369   2.400   4.808 -0.4477 -0.2944  0.6630
    9MOL   C152 2568   3.247   2.211   4.819 -0.1689  0.1882  0.5113
    9MOL   O153 2569   3.233   2.124   4.933  0.8468  0.4265 -0.0904
    9MOL   C154 2570   3.269   1.998   4.927  0.7532 -0.0289  0.4588
    9MOL   O155 2571   3.297   1.935   4.826 -0.2607  0.1598 -0.6456
    9MOL   C156 2572   3.250   1.915   5.053  0.3177 -0.2283  0.2502
    9MOL   C157 2573   3.106   1.937   5.113 -0.2536  0.1060 -0.7247
    9MOL   C158 2574   3.117   2.271   4.781 -0.1939  0.2835  0.0871
    9MOL   H159 2575   3.279   2.152   4.733 -2.6120 -1.3857  0.6185
    9MOL   H160 2576   3.250   1.809   5.027 -2.4792 -0.4305  0.8576
    9MOL   H161 2577   3.329   1.936   5.125  1.1112 -0.1893 -0.6220
    9MOL   H162 2578   3.085   2.043   5.122 -2.8924 -0.5030  1.1708
    9MOL   H163 2579   3.031   1.902   5.042 -0.3856  0.6937 -0.8720
    9MOL   H164 2580   3.095   1.888   5.210 -2.1185 -0.6056 -1.2621
    9MOL   H165 2581   3.038   2.199   4.762 -0.2971  0.6124 -0.7408
    9MOL   H166 2582   3.076   2.343   4.852 -0.9794  0.3267 -0.4096
    9MOL   C167 2583   3.142   2.338   4.645  1.0290  0.1170 -1.2877
    9MOL   O168 2584   3.104   2.247   4.545 -0.1408  0.1608  0.3067
    9MOL   C169 2585   3.190   2.226   4.439  0.5644  0.4848 -0.2278
    9MOL   O170 2586   3.295   2.292   4.428  0.3928  0.4260  0.0935
    9MOL   C171 2587   3.147   2.112   4.345 -0.0947  0.5312  0.0188
    9MOL   C172 2588   3.249   1.992   4.335 -0.0796 -0.1271 -0.0528
    9MOL   C173 2589   3.037   2.463   4.625 -0.4389 -0.0385  0.6584
    9MOL   H174 2590   3.239   2.384   4.628  0.5752  1.2014 -0.9662
    9MOL   H175 2591   3.042   2.085   4.359  0.7817 -1.1722  4.0618
    9MOL   H176 2592   3.143   2.167   4.251 -0.6149 -0.7710 -0.7501
    9MOL   H177 2593   3.322   2.015   4.258 -1.2710  2.3769 -0.5009
    9MOL   H178 2594   3.303   1.958   4.423  0.6382  0.5440 -0.2301
    9MOL   H179 2595   3.192   1.907   4.299  0.7248  0.6051 -3.2251
    9MOL   H180 2596   3.020   2.487   4.520  0.5627 -2.8782 -0.1974
    9MOL   H181 2597   2.944   2.426   4.666 -0.0084 -2.0661 -0.1217
    9MOL   C182 2598   3.068   2.591   4.697  0.0823  0.1225 -0.2675
    9MOL   O183 2599   3.182   2.628   4.622  0.1625  0.7979 -0.0056
    9MOL   C184 2600   3.294   2.655   4.685  0.0897 -0.5421 -0.9580
    9MOL   O185 2601   3.324   2.623   4.801 -0.8371 -0.1927  0.7457
    9MOL   C186 2602   3.402   2.708   4.594  0.7731  0.3111 -0.0835
    9MOL   C187 2603   3.469   2.605   4.500  0.6255 -0.0751 -0.9817
    9MOL   C188 2604   2.961   2.702   4.671  0.4113 -0.0822 -0.1158
    9MOL   H189 2605   3.083   2.578   4.804  0.9390  0.5087 -0.3413
    9MOL   H190 2606   3.361   2.792   4.538 -0.9238 -0.0503  0.5638
    9MOL   H191 2607   3.482   2.752   4.653 -0.5234  1.0167  1.1926
    9MOL   H192 2608   3.558   2.648   4.455  0.5467 -0.4500 -1.5011
    9MOL   H193 2609   3.490   2.515   4.559  1.8328  0.2148 -0.9748
    9MOL   H194 2610   3.403   2.573   4.419 -1.4012 -0.1455  0.6421
    9MOL   H195 2611   3.013   2.792   4.705  1.5968 -0.1906 -1.5611
    9MOL   H196 2612   2.955   2.706   4.562 -0.5771  0.0457 -0.0616
    9MOL   C197 2613   2.832   2.684   4.748  0.3967  0.3762  1.0820
    9MOL   O198 2614   2.846   2.713   4.886 -0.1287 -0.0688  0.5204
    9MOL   C199 2615   2.800   2.623   4.981 -0.8978  0.3939  0.9038
    9MOL   O200 2616   2.755   2.507   4.955 -0.6576  0.0797  0.3525
    9MOL   C201 2617   2.815   2.664   5.124 -0.1433 -0.2250  0.1260
    9MOL   C202 2618   2.695   2.748   5.171 -0.0479  0.0415 -1.4242
    9MOL   C203 2619   2.717   2.775   4.696  0.3595 -0.3322  0.0388
    9MOL   H204 2620   2.798   2.581   4.735  0.8275  0.2222  1.1585
    9MOL   H205 2621   2.825   2.574   5.185  0.2949 -1.0708 -1.1578
    9MOL   H206 2622   2.910   2.714   5.142 -0.3591 -0.2028  1.2195
    9MOL   H207 2623   2.605   2.688   5.164  0.1444 -0.5225  0.5403
    9MOL   H208 2624   2.711   2.784   5.273 -0.2251 -0.3661 -1.2528
    9MOL   H209 2625   2.687   2.850   5.132  1.0641  1.5208  1.9954
    9MOL   H210 2626   2.635   2.777   4.768  1.2325  0.1074  1.0444
    9MOL   H211 2627   2.754   2.878   4.695 -0.7905  0.0840 -0.4924
    9MOL   C212 2628   2.670   2.747   4.553 -0.2219 -0.3455  0.2370
    9MOL   O213 2629   2.610   2.618   4.557  0.0063  0.3158  0.6165
    9MOL   C214 2630   2.651   2.520   4.476  0.0643  0.2779 -1.0244
    9MOL   O215 2631   2.753   2.515   4.403  0.4523  0.5950 -0.3765
    9MOL   C216 2632   2.575   2.387   4.499 -0.4891  0.1058  0.3333
    9MOL   C217 2633   2.660   2.279   4.570 -0.1342  0.0779 -0.7838
    9MOL   C218 2634   2.559   2.845   4.503  0.0199 -0.2267 -0.2273
    9MOL   H219 2635   2.740   2.749   4.469 -1.1731  3.1599 -0.5772
    9MOL   H220 2636   2.479   2.409   4.545 -0.8031 -0.2109 -0.1654
    9MOL   H221 2637   2.552   2.358   4.396  4.3396  0.9391 -1.1104
    9MOL   H222 2638   2.605   2.185   4.572 -3.1437  1.7745 -1.1965
    9MOL   H223 2639   2.754   2.264   4.517  0.3485  2.2508 -0.5957
    9MOL   H224 2640   2.690   2.309   4.670 -0.1432  0.4718 -0.8992
    9MOL   H225 2641   2.518   2.812   4.408 -0.2682  2.0881 -0.9374
    9MOL   H226 2642   2.477   2.840   4.574 -0.2060  1.7514 -0.3242
    9MOL   C227 2643   2.602   2.990   4.475  0.3913 -0.3125  0.5271
    9MOL   O228 2644   2.677   2.988   4.359 -0.0439 -0.0217  0.4912
    9MOL   C229 2645   2.809   3.009   4.366 -0.2378  0.0380 -0.6832
    9MOL   O230 2646   2.871   3.018   4.470 -0.1532 -0.3827  0.1291
    9MOL   C231 2647   2.879   3.020   4.231 -0.2916  0.2327  0.2012
    9MOL   C232 2648   2.874   3.166   4.175  0.1852  0.2478  0.1758
    9MOL   C233 2649   2.479   3.086   4.457  0.1800 -0.8703 -0.3749
    9MOL   H234 2650   2.659   3.029   4.560  2.0843 -0.3403 -0.5889
    9MOL   H235 2651   2.984   3.003   4.255 -0.1127  0.4636 -0.4141
    9MOL   H236 2652   2.844   2.955   4.150 -0.8783  0.2276  0.4558
    9MOL   H237 2653   2.911   3.233   4.252  0.8464  0.7220 -0.5526
    9MOL   H238 2654   2.926   3.177   4.079  0.4024  0.7163  0.3455
    9MOL   H239 2655   2.771   3.198   4.155  1.5988  3.0359 -3.3371
    9MOL   H240 2656   2.451   3.102   4.353  0.6405 -4.1224 -1.0670
    9MOL   H241 2657   2.390   3.036   4.494 -0.9713  0.5421 -1.2200
    9MOL   C242 2658   2.476   3.212   4.547  0.1058 -0.1830 -0.0006
    9MOL   O243 2659   2.471   3.159   4.676 -0.2664 -0.5895  0.1839
    9MOL   C244 2660   2.404   3.222   4.777 -0.0459  0.6734  0.0552
    9MOL   O245 2661   2.348   3.328   4.767  0.0134 -0.1859  0.1562
    9MOL   C246 2662   2.389   3.142   4.900 -0.0378 -0.8870  0.1313
    9MOL   C247 2663   2.522   3.131   4.986  0.6275 -0.3882  0.4474
    9MOL   C248 2664   2.603   3.302   4.522 -0.5091 -0.6956 -0.1869
    9MOL   H249 2665   2.393   3.276   4.518  1.0229  0.6499 -0.8650
    9MOL   H250 2666   2.314   3.198   4.956  0.5161 -0.5717  0.5574
    9MOL   H251 2667   2.341   3.046   4.879 -0.2164 -0.5550 -1.0125
    9MOL   H252 2668   2.606   3.089   4.930  0.9343 -1.1198  1.4315
    9MOL   H253 2669   2.546   3.228   5.029 -0.9687  0.9100 -1.5190
    9MOL   H254 2670   2.505   3.076   5.079 -2.8199  1.3732  0.9251
    9MOL   H255 2671   2.606   3.356   4.616  1.3750 -3.0291  1.1596
    9MOL   H256 2672   2.690   3.237   4.531 -0.0314 -0.2394 -1.4332
    9MOL   C257 2673   2.597   3.393   4.403  0.2273 -0.4346  0.2531
    9MOL   O258 2674   2.480   3.475   4.415 -0.0669  0.1517  0.0774
    9MOL   C259 2675   2.373   3.444   4.338  0.4938 -0.2405 -0.5009
    9MOL   O260 2676   2.369   3.362   4.243  0.7606 -0.0571 -0.2176
    9MOL   C261 2677   2.243   3.521   4.377  0.1696  0.1775  0.3133
    9MOL   C262 2678   2.193   3.497   4.517 -0.1777  0.0167  0.4294
    9MOL   C263 2679   2.725   3.482   4.399 -0.7068  0.1381  0.0271
    9MOL   H264 2680   2.598   3.326   4.317  0.1632  1.3315 -1.1522
    9MOL   H265 2681   2.252   3.628   4.357 -2.3372  0.2974 -0.2317
    9MOL   H266 2682   2.164   3.486   4.311 -1.6118  0.9044  2.0209
    9MOL   H267 2683   2.093   3.538   4.529 -1.6017 -2.9770 -0.5288
    9MOL   H268 2684   2.175   3.390   4.528 -0.8945  0.0687 -0.1773
    9MOL   H269 2685   2.259   3.529   4.597  1.0358  2.7957 -1.5956
    9MOL   H270 2686   2.727   3.522   4.501 -1.3277 -2.3230  1.0413
    9MOL   H271 2687   2.807   3.411   4.385 -2.1326 -1.4759 -0.4044
    9MOL   C272 2688   2.726   3.595   4.290 -0.0095 -0.4265 -0.0038
    9MOL   O273 2689   2.825   3.700   4.309 -0.4497  0.5134  0.5327
    9MOL   C274 2690   2.807   3.796   4.398 -0.4357  0.4574  0.2817
    9MOL   O275 2691   2.703   3.823   4.463 -0.4310  0.0588  0.0646
    9MOL   C276 2692   2.934   3.877   4.416  0.0966  0.7254  0.3266
    9MOL   C277 2693   2.923   3.988   4.524  0.4523 -0.0684 -0.5132
    9MOL   C278 2694   2.745   3.528   4.150 -0.0959 -0.4788 -0.1868
    9MOL   H279 2695   2.627   3.642   4.291  0.8040  1.3031  2.9890
    9MOL   H280 2696   3.019   3.813   4.441 -1.5736 -1.5329  0.3581
    9MOL   H281 2697   2.951   3.927   4.321  3.3909  1.9399  1.4943
    9MOL   H282 2698   3.019   4.039   4.518  0.2134  0.2704 -1.6163
    9MOL   H283 2699   2.857   4.072   4.501 -0.2716 -1.0305 -2.0833
    9MOL   H284 2700   2.912   3.952   4.626  1.2832  0.6509 -0.1698
    9MOL   H285 2701   2.852   3.513   4.134  0.2729  1.8519 -0.1126
    9MOL   H286 2702   2.714   3.425   4.135  2.7329 -1.4834  0.5780
    9MOL   C287 2703   2.698   3.603   4.031  0.5622 -0.7873 -0.4821
    9MOL   O288 2704   2.763   3.551   3.916 -0.0338 -0.5383  0.0164
    9MOL   C289 2705   2.804   3.633   3.808  0.2463 -0.9728  0.2717
    9MOL   O290 2706   2.790   3.755   3.805 -0.5857 -0.1555 -0.3257
    9MOL   C291 2707   2.874   3.548   3.704  0.4469 -0.6323 -0.6514
    9MOL   C292 2708   2.990   3.623   3.634  0.1601  0.1335 -0.1854
    9MOL   C293 2709   2.543   3.590   4.016  0.0886 -0.2794  1.3555
    9MOL   H294 2710   2.722   3.707   4.056  2.3593 -1.2068 -0.3460
    9MOL   H295 2711   2.909   3.455   3.750  3.1488 -0.4306 -2.1460
    9MOL   H296 2712   2.801   3.515   3.630  0.2224 -1.9997  0.1708
    9MOL   H297 2713   3.013   3.575   3.539  0.2952  0.9500 -0.5763
    9MOL   H298 2714   2.962   3.720   3.592 -0.0117 -0.7656 -2.2427
    9MOL   H299 2715   3.079   3.645   3.693 -0.1277  0.4066  0.1446
    9MOL   H300 2716   2.495   3.593   4.114 -0.1490  1.1845  1.2007
    9MOL   H301 2717   2.497   3.659   3.945  2.6264  1.8475  1.7266
    9MOL   H302 2718   2.530   3.494   3.965  0.6998 -0.2481  1.1445
   10MOL     C1 2719   3.216   5.474   2.895 -0.1438 -0.3226 -0.3576
   10MOL     O2 2720   3.225   5.462   3.036 -0.4539 -0.1791  0.3005
   10MOL     C3 2721   3.181   5.559   3.114  0.2643 -0.7696 -0.0089
   10MOL     O4 2722   3.152   5.673   3.074  0.3028 -0.1935 -0.8503
   10MOL     C5 2723   3.134   5.529   3.255  0.1856  0.5830 -0.2027
   10MOL     C6 2724   3.020   5.427   3.263 -0.7387  0.6704 -0.0268
   10MOL     C7 2725   3.325   5.378   2.850  0.2931 -0.4030  0.5510
   10MOL     H8 2726   3.225   5.579   2.866 -0.3039 -0.1588  0.1909
   10MOL     H9 2727   3.218   5.485   3.307  0.4109 -0.4621 -1.4100
   10MOL    H10 2728   3.101   5.618   3.308  0.2796 -0.2828  1.3216
   10MOL    H11 2729   3.034   5.330   3.216  0.1969  0.0836  1.4258
   10MOL    H12 2730   2.993   5.415   3.368 -1.0410 -3.0524 -0.4729
   10MOL    H13 2731   2.930   5.468   3.216 -0.5230 -1.0143 -1.9982
   10MOL    H14 2732   3.426   5.416   2.869  0.3519  0.8847 -2.2229
   10MOL    H15 2733   3.312   5.283   2.902 -2.3251  0.2140  1.0795
   10MOL    H16 2734   3.123   5.433   2.858 -0.3851  0.6784 -0.8803
   10MOL    C17 2735   3.313   5.362   2.696 -0.1117 -0.1446  0.2627
   10MOL    O18 2736   3.183   5.321   2.657 -0.4434 -0.8008  0.2247
   10MOL    C19 2737   3.164   5.248   2.550  0.7400 -0.0259  0.1111
   10MOL    O20 2738   3.252   5.204   2.471 -0.3320  0.1973 -0.1426
   10MOL    C21 2739   3.016   5.228   2.523 -0.6496 -0.0458  0.3268
   10MOL    C22 2740   2.953   5.206   2.386  0.3224  0.3022 -0.1963
   10MOL    C23 2741   3.348   5.487   2.617 -0.1566 -0.2851 -0.4396
   10MOL    H24 2742   3.392   5.293   2.665  0.5057  0.3092  0.8005
   10MOL    H25 2743   2.985   5.157   2.600 -1.4872  0.8852  0.8720
   10MOL    H26 2744   2.981   5.323   2.564  1.3816  1.0004 -0.2983
   10MOL    H27 2745   3.027   5.230   2.310  0.2287 -0.6413 -0.5934
   10MOL    H28 2746   2.947   5.097   2.377  2.4488  0.2497 -1.4845
   10MOL    H29 2747   2.858   5.256   2.368 -0.2755 -0.6052  0.3984
   10MOL    H30 2748   3.316   5.463   2.516 -2.0240  0.6700 -0.1058
   10MOL    H31 2749   3.290   5.573   2.652  1.7083  1.0011 -0.3851
   10MOL    C32 2750   3.495   5.524   2.625 -0.0537 -0.4491  0.3313
   10MOL    O33 2751   3.571   5.457   2.533  0.1142  0.1820 -0.2321
   10MOL    C34 2752   3.662   5.358   2.578 -0.0494  0.5079 -0.3280
   10MOL    O35 2753   3.694   5.336   2.692 -0.4463  0.2348 -0.2625
   10MOL    C36 2754   3.710   5.274   2.461  0.1997  0.9046 -0.2583
   10MOL    C37 2755   3.608   5.155   2.436  0.6768  0.5122 -0.2645
   10MOL    C38 2756   3.524   5.674   2.592 -0.5680 -0.3208  0.1238
   10MOL    H39 2757   3.541   5.519   2.724  1.5554  0.3809 -0.3488
   10MOL    H40 2758   3.730   5.331   2.370  4.0747  0.3197  0.1104
   10MOL    H41 2759   3.809   5.234   2.482 -0.0828  0.7342  0.7556
   10MOL    H42 2760   3.615   5.086   2.520  0.7156  0.9965  0.1316
   10MOL    H43 2761   3.508   5.195   2.421  0.4049  0.1642  0.5805
   10MOL    H44 2762   3.642   5.102   2.348 -2.2080  0.7326 -1.5766
   10MOL    H45 2763   3.629   5.687   2.563 -0.3595 -2.0952  0.0241
   10MOL    H46 2764   3.463   5.713   2.512  0.8276  1.3282 -0.1611
   10MOL    C47 2765   3.501   5.760   2.712 -0.0478 -0.5956 -0.1240
   10MOL    O48 2766   3.620   5.737   2.792  0.4159 -0.2328 -0.6691
   10MOL    C49 2767   3.612   5.694   2.919  0.0496  0.8903 -0.1136
   10MOL    O50 2768   3.503   5.666   2.969 -0.4315  0.2145 -0.4166
   10MOL    C51 2769   3.747   5.665   2.987 -0.2159  0.0772 -0.4303
   10MOL    C52 2770   3.829   5.567   2.903 -0.5189  0.1348 -0.2624
   10MOL    C53 2771   3.494   5.907   2.675  0.0369  0.0520  0.0548
   10MOL    H54 2772   3.408   5.732   2.761  0.6999 -2.4620  0.2553
   10MOL    H55 2773   3.808   5.750   3.015 -0.2598  0.4361 -1.3948
   10MOL    H56 2774   3.710   5.625   3.081 -1.7395  1.7319 -0.2951
   10MOL    H57 2775   3.867   5.602   2.806  1.1888  0.2636  0.4382
   10MOL    H58 2776   3.918   5.537   2.959 -1.6109 -1.2725  0.7374
   10MOL    H59 2777   3.769   5.478   2.884  0.5026 -0.6324  0.0676
   10MOL    H60 2778   3.590   5.938   2.633  0.2413 -0.7940 -0.1168
   10MOL    H61 2779   3.416   5.913   2.599  1.0317  1.8149 -0.8710
   10MOL    C62 2780   3.458   6.015   2.776 -0.0616  0.3785 -0.4186
   10MOL    O63 2781   3.432   6.134   2.702  0.3350 -0.0729  0.2595
   10MOL    C64 2782   3.475   6.254   2.751 -0.1029 -0.3185  0.8854
   10MOL    O65 2783   3.525   6.273   2.865  0.0883 -0.6573  0.0367
   10MOL    C66 2784   3.452   6.367   2.662  0.0138  0.2135  0.3985
   10MOL    C67 2785   3.542   6.356   2.534 -0.1777  0.7628 -0.2867
   10MOL    C68 2786   3.339   5.976   2.860 -0.8880 -0.8330 -0.8300
   10MOL    H69 2787   3.544   6.024   2.842  1.6729 -0.6840 -2.4499
   10MOL    H70 2788   3.347   6.372   2.635  0.1507 -1.2592 -0.4559
   10MOL    H71 2789   3.474   6.463   2.710  2.2766 -1.2271  2.3519
   10MOL    H72 2790   3.526   6.447   2.476  0.9100  1.7674  0.9453
   10MOL    H73 2791   3.649   6.359   2.556 -0.1144 -1.1897 -0.2967
   10MOL    H74 2792   3.522   6.270   2.471  2.5315 -0.9802  1.1177
   10MOL    H75 2793   3.345   5.882   2.913 -0.2535 -0.1413  0.3564
   10MOL    H76 2794   3.350   6.040   2.948  0.8471 -0.4259 -1.3196
   10MOL    C77 2795   3.209   5.981   2.784 -0.4573  0.1407  1.6093
   10MOL    O78 2796   3.203   5.888   2.674  0.4468 -0.4701 -0.1617
   10MOL    C79 2797   3.135   5.916   2.562 -0.2005  0.8508  0.3686
   10MOL    O80 2798   3.070   6.014   2.541  0.6815 -0.2968  0.2705
   10MOL    C81 2799   3.134   5.807   2.461  0.2762 -0.4591  1.0012
   10MOL    C82 2800   3.231   5.844   2.348 -0.1689 -0.0553  0.5427
   10MOL    C83 2801   3.085   5.970   2.866  0.0806 -0.0536 -0.4579
   10MOL    H84 2802   3.217   6.078   2.735  0.5201  0.0327  1.5620
   10MOL    H85 2803   3.160   5.715   2.514 -0.3786 -0.2338  1.7225
   10MOL    H86 2804   3.034   5.779   2.428  1.1474 -1.5818 -0.7738
   10MOL    H87 2805   3.306   5.766   2.341  0.1279  0.2468  0.3263
   10MOL    H88 2806   3.177   5.850   2.253 -0.9417 -1.0400  0.9091
   10MOL    H89 2807   3.275   5.941   2.371  0.2989  0.1122 -0.9624
   10MOL    H90 2808   3.001   5.952   2.800  0.1141  0.1682 -0.5610
   10MOL    H91 2809   3.081   5.879   2.925 -0.9514 -0.4889 -1.2029
   10MOL    C92 2810   3.077   6.084   2.968 -0.2858  0.1498  0.2176
   10MOL    O93 2811   3.074   6.213   2.905 -0.1324  0.1576  0.0061
   10MOL    C94 2812   3.155   6.305   2.953  0.4517  0.0327  0.1555
   10MOL    O95 2813   3.236   6.292   3.049 -0.7022 -0.0921  0.9899
   10MOL    C96 2814   3.126   6.436   2.890 -0.4687 -0.8761 -0.0206
   10MOL    C97 2815   3.120   6.558   2.983 -0.1180 -0.5763  0.1464
   10MOL    C98 2816   2.957   6.082   3.072 -0.0085  0.2586 -0.1179
   10MOL    H99 2817   3.167   6.073   3.029 -0.7000  0.9467  0.9807
   10MOL   H100 2818   3.209   6.457   2.823 -0.3795 -0.5074  0.2050
   10MOL   H101 2819   3.043   6.433   2.818 -0.1801  2.0287 -0.5127
   10MOL   H102 2820   3.021   6.569   3.027 -0.0335  1.4152 -0.1138
   10MOL   H103 2821   3.188   6.556   3.068 -0.9922  0.2407  0.8801
   10MOL   H104 2822   3.136   6.649   2.925 -0.3489 -1.7270 -1.7429
   10MOL   H105 2823   2.940   6.175   3.126 -0.9745  0.5248 -0.8828
   10MOL   H106 2824   2.862   6.066   3.021 -0.3631  0.2141  0.5432
   10MOL   C107 2825   2.980   5.968   3.176 -0.2274 -0.4871  0.3175
   10MOL   O108 2826   3.042   6.037   3.285 -0.6319  0.0083  0.8168
   10MOL   C109 2827   3.128   5.972   3.365 -0.2495 -0.1000 -0.0888
   10MOL   O110 2828   3.141   5.855   3.375 -0.1822 -0.0888 -0.1949
   10MOL   C111 2829   3.198   6.065   3.459  0.4532  0.1323  0.2685
   10MOL   C112 2830   3.276   6.176   3.376  0.1736  0.4274 -0.3065
   10MOL   C113 2831   2.848   5.913   3.226  0.7801 -0.4603 -0.1238
   10MOL   H114 2832   3.049   5.897   3.132  1.3972  2.1459 -1.5705
   10MOL   H115 2833   3.132   6.116   3.529  2.6375  0.9311  1.7962
   10MOL   H116 2834   3.266   6.003   3.517 -0.5769 -0.0433  1.3044
   10MOL   H117 2835   3.205   6.255   3.350 -1.9929 -1.8596 -1.5643
   10MOL   H118 2836   3.359   6.209   3.438 -0.3539 -1.4197  1.4317
   10MOL   H119 2837   3.316   6.144   3.280  1.2265 -0.4852  0.4328
   10MOL   H120 2838   2.888   5.834   3.290  2.2348 -1.0165 -1.6976
   10MOL   H121 2839   2.795   5.984   3.290  1.3324 -0.9898  0.9300
   10MOL   C122 2840   2.758   5.833   3.125 -0.7454  0.2105 -0.1899
   10MOL   O123 2841   2.837   5.740   3.049  0.1023  0.3714  0.3720
   10MOL   C124 2842   2.812   5.726   2.914  0.0665 -0.1447  0.1600
   10MOL   O125 2843   2.716   5.774   2.858 -0.7878  0.1604  0.2951
   10MOL   C126 2844   2.915   5.631   2.844 -0.2524 -0.0185  0.4395
   10MOL   C127 2845   2.878   5.590   2.700 -0.2735  0.2397 -0.3526
   10MOL   C128 2846   2.656   5.738   3.202 -0.3420  0.1654 -0.0844
   10MOL   H129 2847   2.707   5.901   3.057 -0.5573 -1.6039 -2.1697
   10MOL   H130 2848   3.013   5.680   2.847 -1.8050  3.1436  0.7610
   10MOL   H131 2849   2.931   5.539   2.900 -0.7696 -2.1115 -2.7326
   10MOL   H132 2850   2.961   5.528   2.664  1.2918  1.7711  0.5469
   10MOL   H133 2851   2.787   5.530   2.699 -0.5092  0.4944  1.6986
   10MOL   H134 2852   2.866   5.673   2.632 -0.1337  1.3095  0.9035
   10MOL   H135 2853   2.614   5.664   3.134  0.9919 -0.8013  0.1299
   10MOL   H136 2854   2.714   5.675   3.269 -1.7155 -0.3435  0.6356
   10MOL   C137 2855   2.556   5.816   3.294 -0.6149  0.3245  0.0649
   10MOL   O138 2856   2.454   5.858   3.209  0.6049 -0.2493  0.3752
   10MOL   C139 2857   2.435   5.979   3.188  1.7653 -0.0600 -0.2165
   10MOL   O140 2858   2.510   6.064   3.215 -0.6494 -0.0630 -0.7715
   10MOL   C141 2859   2.309   6.011   3.104  0.0890  0.1345 -0.4291
   10MOL   C142 2860   2.199   5.902   3.121 -0.4249 -0.1041 -0.0175
   10MOL   C143 2861   2.492   5.734   3.409 -0.0164  0.9135  0.2407
   10MOL   H144 2862   2.609   5.901   3.338  0.2243  0.4489 -1.1657
   10MOL   H145 2863   2.271   6.112   3.115  2.7853  1.1398  0.0252
   10MOL   H146 2864   2.335   5.996   3.000  1.5383  2.2607 -0.3871
   10MOL   H147 2865   2.112   5.943   3.069  0.7158  0.2618 -1.6588
   10MOL   H148 2866   2.227   5.804   3.082  0.7610  0.3409 -0.3026
   10MOL   H149 2867   2.167   5.893   3.225  2.8988  1.5508  1.2178
   10MOL   H150 2868   2.406   5.786   3.451 -1.5800 -1.6491  0.2932
   10MOL   H151 2869   2.445   5.650   3.357 -0.3501  1.7819 -0.8733
   10MOL   C152 2870   2.586   5.680   3.521  0.2196  0.8413 -0.2153
   10MOL   O153 2871   2.653   5.786   3.592  0.8991 -0.2727 -0.9057
   10MOL   C154 2872   2.782   5.790   3.607 -0.1539 -0.1309  0.2358
   10MOL   O155 2873   2.858   5.699   3.577 -0.8214  0.1447  0.1932
   10MOL   C156 2874   2.838   5.914   3.665 -0.1770  0.3703  1.2599
   10MOL   C157 2875   2.829   5.914   3.818  0.0474 -0.0347  0.3086
   10MOL   C158 2876   2.511   5.583   3.616  0.4359  0.2929  0.4212
   10MOL   H159 2877   2.658   5.618   3.469 -0.2696  0.7963 -0.8406
   10MOL   H160 2878   2.945   5.917   3.644  0.3415 -1.3219  3.5875
   10MOL   H161 2879   2.785   6.000   3.624 -0.0045  1.3206  2.9815
   10MOL   H162 2880   2.878   5.828   3.864  1.6748  0.7898  0.1422
   10MOL   H163 2881   2.876   6.003   3.858  0.6828 -1.2514  2.3392
   10MOL   H164 2882   2.723   5.927   3.841  0.3106 -0.1807  1.6559
   10MOL   H165 2883   2.578   5.571   3.701 -0.4591 -0.2440  1.0527
   10MOL   H166 2884   2.431   5.644   3.659 -3.1461 -2.5752 -1.8556
   10MOL   C167 2885   2.457   5.451   3.555  0.6824 -0.4647  0.1315
   10MOL   O168 2886   2.564   5.384   3.493  0.4491  0.1153  0.5899
   10MOL   C169 2887   2.556   5.331   3.367  0.0673 -0.5422  0.2440
   10MOL   O170 2888   2.459   5.347   3.293  0.6700 -0.4308  0.4154
   10MOL   C171 2889   2.678   5.251   3.339 -0.1469  0.2502 -0.8185
   10MOL   C172 2890   2.722   5.266   3.193 -0.0419 -0.1176 -0.1179
   10MOL   C173 2891   2.425   5.362   3.672  0.0347  0.3087  0.7203
   10MOL   H174 2892   2.369   5.459   3.491  0.3630 -0.0703  0.6140
   10MOL   H175 2893   2.754   5.282   3.411 -2.2582  1.0001  1.1390
   10MOL   H176 2894   2.649   5.150   3.367  0.4628  0.2094 -0.3250
   10MOL   H177 2895   2.778   5.356   3.168 -0.1693 -0.2411 -0.8394
   10MOL   H178 2896   2.796   5.189   3.170  0.0765  0.3998 -1.4886
   10MOL   H179 2897   2.634   5.257   3.130 -0.6185  1.2062  0.4782
   10MOL   H180 2898   2.409   5.259   3.639  0.2852  0.6977 -0.6614
   10MOL   H181 2899   2.526   5.348   3.712  1.1365  0.4699 -1.8965
   10MOL   C182 2900   2.318   5.404   3.780 -0.1769  0.2099  0.0707
   10MOL   O183 2901   2.186   5.393   3.714 -0.2626  0.1095  0.4018
   10MOL   C184 2902   2.137   5.497   3.646 -0.0995 -0.3354  0.2410
   10MOL   O185 2903   2.194   5.601   3.628 -0.1088  0.0984 -0.5043
   10MOL   C186 2904   1.994   5.480   3.579 -0.0812 -0.2522 -0.2035
   10MOL   C187 2905   1.937   5.614   3.519  0.1040 -0.3123  0.1731
   10MOL   C188 2906   2.309   5.310   3.905 -0.0985  0.1794 -0.0768
   10MOL   H189 2907   2.331   5.505   3.818  0.6377 -0.5682  1.9374
   10MOL   H190 2908   2.003   5.407   3.498  1.3115 -0.1022 -0.1896
   10MOL   H191 2909   1.928   5.429   3.650  0.4280  1.2891  1.3961
   10MOL   H192 2910   2.010   5.660   3.453  0.6742  2.0730  2.3608
   10MOL   H193 2911   1.843   5.599   3.465  0.2974  1.3919 -0.6796
   10MOL   H194 2912   1.909   5.676   3.605 -0.9028  0.7632 -0.9080
   10MOL   H195 2913   2.208   5.294   3.942  0.9174  0.3928  2.9068
   10MOL   H196 2914   2.330   5.209   3.868  2.8780  0.0486  1.7783
   10MOL   C197 2915   2.389   5.346   4.031  0.6170 -0.0921  0.7221
   10MOL   O198 2916   2.511   5.391   3.982  0.1240  0.4882 -0.3400
   10MOL   C199 2917   2.617   5.305   4.003  0.3371  0.1720 -0.2050
   10MOL   O200 2918   2.612   5.197   4.062 -0.3929  0.0963  0.3874
   10MOL   C201 2919   2.749   5.363   3.944  0.5382  0.1153 -0.2016
   10MOL   C202 2920   2.764   5.511   3.974 -0.1071 -0.1237  0.2842
   10MOL   C203 2921   2.344   5.462   4.116  0.1803 -0.4912 -0.1735
   10MOL   H204 2922   2.382   5.254   4.088 -1.6006 -0.3087  0.1581
   10MOL   H205 2923   2.832   5.308   3.989  0.8789  0.5181 -0.3334
   10MOL   H206 2924   2.738   5.342   3.837 -0.8551 -0.1043 -0.0182
   10MOL   H207 2925   2.679   5.567   3.934  0.3222  0.4488  0.1722
   10MOL   H208 2926   2.771   5.533   4.080 -0.8585  2.8923 -0.2400
   10MOL   H209 2927   2.855   5.559   3.936 -0.6369  1.0875  0.5121
   10MOL   H210 2928   2.423   5.484   4.188  1.0328  0.1939 -1.2974
   10MOL   H211 2929   2.329   5.557   4.065 -1.1028  0.4467  1.8870
   10MOL   C212 2930   2.218   5.421   4.200 -0.0802  0.1007  0.5045
   10MOL   O213 2931   2.263   5.355   4.321  0.3970  0.0016 -0.2132
   10MOL   C214 2932   2.196   5.241   4.360 -0.6253 -0.2810 -0.1050
   10MOL   O215 2933   2.122   5.178   4.291  0.6700  0.2763  0.2466
   10MOL   C216 2934   2.238   5.201   4.493  0.2270  0.4948  0.1768
   10MOL   C217 2935   2.235   5.313   4.595  0.1655 -0.5611 -0.3247
   10MOL   C218 2936   2.131   5.533   4.255  0.7966  0.2770  0.2717
   10MOL   H219 2937   2.146   5.353   4.153 -0.5850 -0.9920  2.7870
   10MOL   H220 2938   2.174   5.120   4.531  1.4768 -0.8022 -0.4436
   10MOL   H221 2939   2.339   5.167   4.474 -0.7105 -1.9066 -0.7613
   10MOL   H222 2940   2.231   5.272   4.695 -2.3506 -0.2973 -0.2916
   10MOL   H223 2941   2.331   5.365   4.591  0.2173 -0.6440 -0.1335
   10MOL   H224 2942   2.157   5.387   4.577 -0.1304 -0.6957  0.4005
   10MOL   H225 2943   2.071   5.498   4.338  1.7759 -2.9286 -0.3016
   10MOL   H226 2944   2.201   5.607   4.294  0.7149  0.2342  0.4976
   10MOL   C227 2945   2.044   5.601   4.153  0.1488 -0.0062  0.1714
   10MOL   O228 2946   1.917   5.535   4.145  0.4306  0.2113  0.3355
   10MOL   C229 2947   1.867   5.508   4.026  0.3809 -0.0775  1.0844
   10MOL   O230 2948   1.927   5.500   3.919 -0.4144 -0.3332  0.1943
   10MOL   C231 2949   1.715   5.487   4.034  0.2820 -0.5465  0.0685
   10MOL   C232 2950   1.644   5.419   3.923 -0.4408 -0.1856 -0.8417
   10MOL   C233 2951   1.995   5.737   4.210  0.2001 -0.3644 -0.5825
   10MOL   H234 2952   2.100   5.605   4.060  2.6284  0.4840  1.6479
   10MOL   H235 2953   1.697   5.431   4.126 -0.0255  1.3774  1.2213
   10MOL   H236 2954   1.662   5.583   4.044  1.6690  0.5425 -2.5490
   10MOL   H237 2955   1.675   5.315   3.911  0.0833  0.0557 -1.6223
   10MOL   H238 2956   1.536   5.425   3.934 -0.4160 -2.0840  0.6443
   10MOL   H239 2957   1.672   5.461   3.826  0.0168  2.2904  0.3351
   10MOL   H240 2958   1.919   5.791   4.154  1.4149 -0.2879 -2.1806
   10MOL   H241 2959   1.954   5.706   4.306 -0.5211 -1.1873 -1.1405
   10MOL   C242 2960   2.107   5.836   4.242  0.5372 -0.4314  0.1650
   10MOL   O243 2961   2.168   5.872   4.116 -0.6241  0.3324 -0.4454
   10MOL   C244 2962   2.303   5.858   4.103 -0.3028 -0.2434 -0.1823
   10MOL   O245 2963   2.383   5.806   4.184 -0.2991 -0.8914 -0.5270
   10MOL   C246 2964   2.354   5.911   3.968 -0.5712  0.1625 -0.0893
   10MOL   C247 2965   2.357   5.794   3.866 -0.0680  0.9136 -0.3538
   10MOL   C248 2966   2.043   5.958   4.310  0.4711 -0.2479  0.5644
   10MOL   H249 2967   2.176   5.794   4.314  1.8967  2.6653  0.7281
   10MOL   H250 2968   2.282   5.990   3.949  0.9055  1.7610  0.7874
   10MOL   H251 2969   2.451   5.959   3.977  0.5607 -1.5346 -2.7340
   10MOL   H252 2970   2.259   5.747   3.866 -0.3962  1.5620 -2.4792
   10MOL   H253 2971   2.368   5.839   3.767  0.2248  1.8529  0.1021
   10MOL   H254 2972   2.442   5.728   3.883 -0.6132  0.2862 -0.0406
   10MOL   H255 2973   1.988   5.922   4.396  0.1641  1.0946  0.9542
   10MOL   H256 2974   2.129   6.013   4.349  0.4882  0.4578 -0.4365
   10MOL   C257 2975   1.958   6.058   4.226  0.0106  0.9272 -0.1087
   10MOL   O258 2976   1.823   6.020   4.230 -0.6424  0.2054  0.4364
   10MOL   C259 2977   1.746   6.017   4.120  0.6089  0.3950 -0.5492
   10MOL   O260 2978   1.780   6.053   4.009  0.3713  0.6694 -0.0760
   10MOL   C261 2979   1.610   5.981   4.169 -0.1747  0.5810  0.3573
   10MOL   C262 2980   1.609   5.842   4.230  0.6521  0.1457 -0.2908
   10MOL   C263 2981   1.969   6.204   4.268  0.4193  0.3741  0.6177
   10MOL   H264 2982   1.988   6.049   4.122  3.0921 -2.0313  0.9420
   10MOL   H265 2983   1.577   6.055   4.242 -0.1269 -0.4780  1.4659
   10MOL   H266 2984   1.545   5.981   4.082 -2.5957 -0.4612  2.1231
   10MOL   H267 2985   1.659   5.843   4.327 -1.6004  0.0223  0.8812
   10MOL   H268 2986   1.509   5.813   4.261 -0.2628  1.1136 -2.2763
   10MOL   H269 2987   1.637   5.763   4.160  0.2788  0.2644 -0.5756
   10MOL   H270 2988   1.881   6.263   4.242  1.5602  0.8795 -2.3556
   10MOL   H271 2989   1.957   6.213   4.376 -0.4634  0.7478  0.4925
   10MOL   C272 2990   2.086   6.275   4.210 -0.3323  1.0955  0.0647
   10MOL   O273 2991   2.070   6.282   4.070 -0.1112  0.3436  0.1317
   10MOL   C274 2992   2.176   6.277   3.990 -0.1620 -0.3279  0.1048
   10MOL   O275 2993   2.291   6.303   4.027 -1.3263  0.3387  0.0110
   10MOL   C276 2994   2.149   6.221   3.854 -0.0665  0.2326  1.3757
   10MOL   C277 2995   2.004   6.225   3.809  1.0872  0.2716  0.0924
   10MOL   C278 2996   2.113   6.409   4.269  0.0241 -0.1210  0.1108
   10MOL   H279 2997   2.175   6.215   4.232 -1.9579 -1.2337  0.4432
   10MOL   H280 2998   2.208   6.267   3.774 -0.1653 -0.0110  1.1604
   10MOL   H281 2999   2.169   6.114   3.856  1.3100  0.4168 -0.7829
   10MOL   H282 3000   1.987   6.306   3.738  2.7566  1.3847  0.9408
   10MOL   H283 3001   1.976   6.132   3.758 -2.7138  1.7886 -0.7682
   10MOL   H284 3002   1.930   6.236   3.888 -2.0919 -1.7579 -2.4278
   10MOL   H285 3003   2.184   6.470   4.214  1.2573 -0.2728  1.5114
   10MOL   H286 3004   2.019   6.466   4.269  0.2030  0.1754 -0.0678
   10MOL   C287 3005   2.176   6.412   4.409 -0.0474  0.2685  0.4480
   10MOL   O288 3006   2.311   6.375   4.397  0.2897 -0.1898  0.2143
   10MOL   C289 3007   2.358   6.249   4.416  0.5288 -0.2417 -0.5370
   10MOL   O290 3008   2.299   6.149   4.443  0.8039 -0.0411  0.3490
   10MOL   C291 3009   2.510   6.227   4.387 -0.1241 -0.1397 -0.5278
   10MOL   C292 3010   2.534   6.155   4.255  0.2673 -0.0394  0.1949
   10MOL   C293 3011   2.182   6.554   4.463  0.0219  0.2951 -0.1026
   10MOL   H294 3012   2.124   6.341   4.472 -2.1779 -0.5932 -2.1647
   10MOL   H295 3013   2.569   6.317   4.401 -0.0075 -0.0600 -1.5172
   10MOL   H296 3014   2.549   6.155   4.459 -1.8999 -1.5147 -0.9036
   10MOL   H297 3015   2.507   6.213   4.167 -0.7326  1.0185  1.1813
   10MOL   H298 3016   2.639   6.128   4.249  0.3657  0.5327 -0.7788
   10MOL   H299 3017   2.473   6.066   4.239 -0.8299  0.7309 -0.0143
   10MOL   H300 3018   2.085   6.579   4.506  0.7045  0.7276  1.2121
   10MOL   H301 3019   2.264   6.565   4.535  0.7150 -2.1224 -0.4881
   10MOL   H302 3020   2.200   6.631   4.389 -0.4358 -0.0711 -0.5991
   11MOL     C1 3021   1.640   3.488   1.795 -0.7168  0.5829 -0.0665
   11MOL     O2 3022   1.529   3.487   1.888 -0.4573  0.1120  0.5970
   11MOL     C3 3023   1.556   3.472   2.023  0.2436 -0.6063 -0.5252
   11MOL     O4 3024   1.669   3.448   2.059  0.4255 -0.3103  0.0308
   11MOL     C5 3025   1.439   3.479   2.118 -0.3064  0.5068  0.7979
   11MOL     C6 3026   1.365   3.609   2.122  0.2074  0.6157 -0.2033
   11MOL     C7 3027   1.602   3.467   1.652  0.0572 -0.2802  0.1175
   11MOL     H8 3028   1.703   3.406   1.829 -1.9844 -0.4985 -0.2852
   11MOL     H9 3029   1.376   3.400   2.080  2.9882 -2.7651  1.8920
   11MOL    H10 3030   1.476   3.455   2.218  0.9351  0.0799  0.2377
   11MOL    H11 3031   1.340   3.634   2.019 -0.5836  1.9466  0.2856
   11MOL    H12 3032   1.278   3.597   2.187  0.7159 -0.0125  0.3616
   11MOL    H13 3033   1.411   3.702   2.157  0.2687  0.8287 -0.8459
   11MOL    H14 3034   1.533   3.382   1.657  3.8198 -3.3908  3.0124
   11MOL    H15 3035   1.550   3.556   1.617 -0.4470 -0.2856  0.8382
   11MOL    H16 3036   1.704   3.570   1.828  0.1244 -0.7292  1.6590
   11MOL    C17 3037   1.728   3.430   1.573  0.0810 -0.4414 -0.3362
   11MOL    O18 3038   1.706   3.391   1.439  0.9256  0.3860  0.7547
   11MOL    C19 3039   1.757   3.270   1.400 -0.1370  0.5513 -0.0468
   11MOL    O20 3040   1.815   3.179   1.460 -0.3861 -0.2174  0.1870
   11MOL    C21 3041   1.745   3.256   1.246 -0.0526 -0.1741 -0.5568
   11MOL    C22 3042   1.854   3.166   1.181  0.3481 -0.3897 -0.5546
   11MOL    C23 3043   1.849   3.524   1.586 -0.4091 -0.5781  0.0616
   11MOL    H24 3044   1.768   3.343   1.625  1.2335 -0.2059 -0.8383
   11MOL    H25 3045   1.644   3.220   1.230 -0.0604 -0.3957 -0.0113
   11MOL    H26 3046   1.753   3.352   1.195 -0.2347 -0.1332 -0.5069
   11MOL    H27 3047   1.950   3.181   1.231 -0.9793 -1.9377  2.6167
   11MOL    H28 3048   1.818   3.064   1.192 -0.3807 -0.2274 -1.3740
   11MOL    H29 3049   1.849   3.175   1.073 -1.7447 -1.0097 -0.5314
   11MOL    H30 3050   1.892   3.539   1.685 -0.3257 -2.0994  0.2732
   11MOL    H31 3051   1.936   3.482   1.535  0.5828  0.1812  1.0932
   11MOL    C32 3052   1.827   3.666   1.530 -0.2246  0.2559  0.0378
   11MOL    O33 3053   1.757   3.743   1.628 -0.7215  0.1961  0.2390
   11MOL    C34 3054   1.687   3.847   1.583  0.0210  0.3859  0.4796
   11MOL    O35 3055   1.680   3.880   1.463  0.0824 -0.1969 -0.2070
   11MOL    C36 3056   1.611   3.913   1.701  0.2443  0.1387 -0.0059
   11MOL    C37 3057   1.491   3.837   1.753 -0.4642 -0.2823  0.4709
   11MOL    C38 3058   1.963   3.733   1.499 -0.0164 -0.4521  0.3408
   11MOL    H39 3059   1.764   3.648   1.443  0.0925  1.5818 -0.4714
   11MOL    H40 3060   1.685   3.940   1.776 -0.1822 -0.9939  0.8392
   11MOL    H41 3061   1.584   4.013   1.665 -1.8086  0.3924  2.0810
   11MOL    H42 3062   1.428   3.816   1.666 -0.4871  1.5352  0.0266
   11MOL    H43 3063   1.522   3.750   1.811 -0.6464 -0.1835  0.7178
   11MOL    H44 3064   1.429   3.902   1.815  0.0907  3.2035 -2.4954
   11MOL    H45 3065   1.932   3.833   1.469  1.2422  0.3593  1.6863
   11MOL    H46 3066   2.022   3.752   1.589 -0.5239  1.5040  0.2869
   11MOL    C47 3067   2.054   3.667   1.389  0.1115  0.3445  0.5814
   11MOL    O48 3068   1.987   3.699   1.265 -0.7878 -0.4341  0.1023
   11MOL    C49 3069   1.945   3.594   1.175 -0.8152  0.9547 -0.2278
   11MOL    O50 3070   1.961   3.473   1.197  0.1146  0.3194  0.9088
   11MOL    C51 3071   1.863   3.660   1.061 -0.2747  0.1845 -0.4428
   11MOL    C52 3072   1.733   3.727   1.094 -0.5087 -0.0057  0.6629
   11MOL    C53 3073   2.195   3.725   1.383 -0.7526 -0.0208  0.0839
   11MOL    H54 3074   2.058   3.558   1.398 -1.3163  0.1846 -0.4566
   11MOL    H55 3075   1.930   3.731   1.011 -0.7083  1.1534  0.3212
   11MOL    H56 3076   1.832   3.580   0.995  0.3650  0.5634 -1.2095
   11MOL    H57 3077   1.741   3.810   1.165  2.1597 -0.1057  0.5249
   11MOL    H58 3078   1.685   3.760   1.002 -2.8971 -3.5935  0.5529
   11MOL    H59 3079   1.671   3.659   1.152 -1.5708  2.3524  2.3938
   11MOL    H60 3080   2.240   3.711   1.285  0.3537 -1.0142  0.7183
   11MOL    H61 3081   2.180   3.829   1.411 -0.4535 -0.6515  2.8017
   11MOL    C62 3082   2.295   3.676   1.487  0.0239 -0.6143 -0.0728
   11MOL    O63 3083   2.336   3.539   1.462 -0.0748 -0.0955 -0.1581
   11MOL    C64 3084   2.267   3.436   1.519 -0.3551 -0.4101  0.1027
   11MOL    O65 3085   2.190   3.450   1.615  0.1072  0.3728  0.2323
   11MOL    C66 3086   2.304   3.301   1.463  0.4567 -1.1454 -0.3643
   11MOL    C67 3087   2.232   3.278   1.328 -0.4243 -0.1564 -1.1899
   11MOL    C68 3088   2.426   3.759   1.471 -0.4977 -0.4453  0.4897
   11MOL    H69 3089   2.263   3.700   1.589  1.5442  0.3767  0.1806
   11MOL    H70 3090   2.411   3.282   1.465  0.6987 -0.0059 -1.6162
   11MOL    H71 3091   2.278   3.226   1.537  1.7335  0.1058  1.3949
   11MOL    H72 3092   2.233   3.171   1.311  1.1311 -0.1160 -1.4317
   11MOL    H73 3093   2.131   3.317   1.337 -0.8845 -1.4004 -0.8707
   11MOL    H74 3094   2.291   3.328   1.251  0.6807 -0.4986 -0.5701
   11MOL    H75 3095   2.507   3.714   1.528 -1.4682 -1.6735  0.9301
   11MOL    H76 3096   2.468   3.762   1.371  1.7117  0.5189  1.4096
   11MOL    C77 3097   2.430   3.909   1.510  0.2777  0.5847  0.2596
   11MOL    O78 3098   2.360   3.982   1.414  0.5847 -0.9194  0.3740
   11MOL    C79 3099   2.419   4.039   1.302 -0.0244 -0.2633 -0.0279
   11MOL    O80 3100   2.526   4.008   1.250  0.1154  0.4991  0.7306
   11MOL    C81 3101   2.334   4.151   1.233 -0.1702 -0.4414 -0.4238
   11MOL    C82 3102   2.359   4.164   1.086 -0.3284 -0.3190 -0.4499
   11MOL    C83 3103   2.365   3.943   1.640  0.1149  0.2885  0.4660
   11MOL    H84 3104   2.532   3.949   1.510  0.9678 -1.1464  0.2929
   11MOL    H85 3105   2.228   4.135   1.249  0.1115  0.1181  2.3032
   11MOL    H86 3106   2.355   4.246   1.283 -0.4700 -0.6044  0.0163
   11MOL    H87 3107   2.379   4.072   1.031  2.4931  1.1178 -1.9485
   11MOL    H88 3108   2.286   4.216   1.024  0.9834  0.8603 -1.0282
   11MOL    H89 3109   2.454   4.215   1.066  0.0490  0.6403  3.4206
   11MOL    H90 3110   2.354   4.052   1.645 -2.1081  0.0549  1.3936
   11MOL    H91 3111   2.261   3.909   1.644  0.3843 -0.5937 -0.0498
   11MOL    C92 3112   2.426   3.896   1.774 -0.6078  0.1600  0.1019
   11MOL    O93 3113   2.551   3.956   1.777  0.1093  0.4331 -0.2119
   11MOL    C94 3114   2.660   3.882   1.764  0.0817  0.0777 -0.1411
   11MOL    O95 3115   2.663   3.760   1.732  0.3494 -0.3913  0.0924
   11MOL    C96 3116   2.783   3.970   1.805 -0.1533 -0.6945 -0.2578
   11MOL    C97 3117   2.911   3.896   1.797 -0.4952  0.3944 -0.3887
   11MOL    C98 3118   2.356   3.949   1.898 -0.4499 -0.0263 -0.4531
   11MOL    H99 3119   2.423   3.787   1.783  1.6551  0.1692  1.2952
   11MOL   H100 3120   2.779   4.063   1.747  0.4315 -0.2118  0.4673
   11MOL   H101 3121   2.769   3.994   1.910  0.9987 -2.7122  0.3749
   11MOL   H102 3122   2.909   3.842   1.703 -2.0023 -0.0138 -0.1300
   11MOL   H103 3123   3.002   3.953   1.780 -0.0315 -0.7470 -1.7786
   11MOL   H104 3124   2.925   3.826   1.879 -0.3655 -0.6019 -1.2538
   11MOL   H105 3125   2.415   3.932   1.987  0.0172 -1.8691 -1.0978
   11MOL   H106 3126   2.346   4.058   1.889 -1.2345 -0.0011  0.6949
   11MOL   C107 3127   2.207   3.905   1.928 -0.2647  0.6653 -0.0356
   11MOL   O108 3128   2.200   3.774   1.995 -0.2394  0.1388 -0.2525
   11MOL   C109 3129   2.101   3.694   1.967 -0.3783 -0.3786  0.5470
   11MOL   O110 3130   2.016   3.720   1.876 -0.8081  0.0640 -0.0569
   11MOL   C111 3131   2.109   3.564   2.048 -0.1543  1.5377  0.3322
   11MOL   C112 3132   1.973   3.520   2.090 -0.4974  0.2538  0.7803
   11MOL   C113 3133   2.135   4.005   2.023  0.0481  0.5809 -0.7150
   11MOL   H114 3134   2.157   3.888   1.833  1.1475 -0.3725 -0.6222
   11MOL   H115 3135   2.154   3.490   1.982 -2.8750 -0.6210  0.8341
   11MOL   H116 3136   2.174   3.574   2.135  0.8678 -2.4361  0.1307
   11MOL   H117 3137   1.935   3.579   2.173  1.0971  0.5429  1.3216
   11MOL   H118 3138   1.902   3.512   2.008  0.1039 -0.2148  0.2925
   11MOL   H119 3139   1.988   3.421   2.134  0.1913  0.4197  0.9296
   11MOL   H120 3140   2.028   3.986   2.009 -0.0501  1.4129 -1.1490
   11MOL   H121 3141   2.172   3.983   2.124  1.1961 -0.4414 -1.3466
   11MOL   C122 3142   2.150   4.154   1.992 -0.6294 -0.2936 -0.0151
   11MOL   O123 3143   2.088   4.191   1.865 -0.2790  0.5792 -0.2965
   11MOL   C124 3144   2.152   4.263   1.775  0.5323 -0.2877 -0.1942
   11MOL   O125 3145   2.265   4.304   1.783  0.0786  0.1355  0.3919
   11MOL   C126 3146   2.073   4.286   1.650 -0.3622  0.0089 -0.3773
   11MOL   C127 3147   2.052   4.163   1.571 -0.4210  0.7467 -0.3831
   11MOL   C128 3148   2.080   4.239   2.097  0.5602  0.0079  0.3068
   11MOL   H129 3149   2.251   4.195   1.985 -0.5251 -0.8928 -2.4518
   11MOL   H130 3150   1.983   4.341   1.676  0.6900  0.8187  1.6933
   11MOL   H131 3151   2.126   4.365   1.596 -0.3911  0.3582  0.0991
   11MOL   H132 3152   2.152   4.135   1.537  0.1663  1.1933  0.9423
   11MOL   H133 3153   1.998   4.089   1.631  0.8026  0.8997  0.9524
   11MOL   H134 3154   1.980   4.193   1.496  0.3380  2.6930 -0.3612
   11MOL   H135 3155   1.975   4.232   2.066  0.5264  1.1656  0.1445
   11MOL   H136 3156   2.076   4.177   2.186  0.2662 -0.5082 -0.0618
   11MOL   C137 3157   2.127   4.380   2.114  0.1211 -0.3166  0.5905
   11MOL   O138 3158   2.021   4.471   2.123 -0.6755 -0.3162  0.0621
   11MOL   C139 3159   1.950   4.509   2.015  0.3876 -0.4277 -0.6603
   11MOL   O140 3160   1.955   4.457   1.901  0.2551  0.3608  0.3144
   11MOL   C141 3161   1.851   4.621   2.058  0.1268 -0.4854  0.5195
   11MOL   C142 3162   1.903   4.763   2.024 -0.2675  0.2704 -0.8091
   11MOL   C143 3163   2.219   4.391   2.244 -0.1423 -0.2809  0.0416
   11MOL   H144 3164   2.188   4.410   2.029 -0.6743  0.2899  0.2287
   11MOL   H145 3165   1.757   4.595   2.009  0.7065  0.5089 -1.2044
   11MOL   H146 3166   1.838   4.612   2.166  0.3732 -0.0729  0.5875
   11MOL   H147 3167   1.922   4.768   1.916  1.5281  2.3964 -0.4152
   11MOL   H148 3168   1.826   4.837   2.045  0.6215  0.9892 -0.0955
   11MOL   H149 3169   1.994   4.800   2.070 -0.1510 -0.5500 -0.3674
   11MOL   H150 3170   2.236   4.498   2.258 -3.3932  0.1980  0.8168
   11MOL   H151 3171   2.172   4.369   2.340  0.6165  1.2924  0.7821
   11MOL   C152 3172   2.352   4.323   2.228 -0.4766 -0.0055 -0.6091
   11MOL   O153 3173   2.432   4.386   2.138  0.0579 -0.5360 -0.1260
   11MOL   C154 3174   2.505   4.314   2.060 -0.1187 -0.6175 -0.2766
   11MOL   O155 3175   2.503   4.196   2.040 -0.2640 -0.2830 -0.7635
   11MOL   C156 3176   2.608   4.388   1.985 -0.2291  0.5368  0.4212
   11MOL   C157 3177   2.654   4.313   1.859 -0.3143  0.4775 -0.0036
   11MOL   C158 3178   2.425   4.318   2.362 -0.3066 -0.2177 -0.2480
   11MOL   H159 3179   2.343   4.220   2.193  2.0988 -0.3329 -0.4424
   11MOL   H160 3180   2.566   4.482   1.949 -0.2392 -0.2183 -1.5864
   11MOL   H161 3181   2.692   4.422   2.047  0.1982 -0.8503  0.6118
   11MOL   H162 3182   2.568   4.265   1.812 -1.4538 -0.1663  2.6508
   11MOL   H163 3183   2.702   4.370   1.779  1.0137 -0.6316 -0.0144
   11MOL   H164 3184   2.720   4.230   1.883  0.2325 -0.1172 -3.3655
   11MOL   H165 3185   2.531   4.299   2.346  0.2580  2.0503  0.5936
   11MOL   H166 3186   2.428   4.420   2.400 -0.0041 -0.6014  0.7713
   11MOL   C167 3187   2.372   4.213   2.455  0.4625 -0.4882  0.1362
   11MOL   O168 3188   2.384   4.076   2.410  0.4402 -0.3049  0.1177
   11MOL   C169 3189   2.276   3.998   2.397  0.5484  0.2613 -0.6275
   11MOL   O170 3190   2.164   4.026   2.425  0.6591 -0.1643  0.1054
   11MOL   C171 3191   2.309   3.858   2.358  0.2736  0.1509  0.0139
   11MOL   C172 3192   2.194   3.757   2.386  0.3046  0.1581 -0.5541
   11MOL   C173 3193   2.426   4.229   2.591  0.4987  0.6182  0.8296
   11MOL   H174 3194   2.265   4.227   2.470  0.3934  0.7252 -1.4095
   11MOL   H175 3195   2.332   3.850   2.251 -1.6647  1.2538 -0.5027
   11MOL   H176 3196   2.393   3.821   2.417  0.6131  0.9745  0.0500
   11MOL   H177 3197   2.185   3.714   2.486  1.6732 -3.4938 -1.9438
   11MOL   H178 3198   2.100   3.802   2.355  1.2223  2.0494 -0.6923
   11MOL   H179 3199   2.203   3.663   2.332  0.8830 -0.1157  0.0090
   11MOL   H180 3200   2.535   4.226   2.589  0.4557 -2.5265  0.9805
   11MOL   H181 3201   2.406   4.327   2.632  0.9421  0.8397  0.5256
   11MOL   C182 3202   2.376   4.127   2.700 -0.1937  0.3135 -0.2468
   11MOL   O183 3203   2.456   4.127   2.821  0.5780 -0.0550 -0.1707
   11MOL   C184 3204   2.568   4.056   2.834  0.3128  0.1085  0.6750
   11MOL   O185 3205   2.609   3.968   2.764 -0.1178 -0.1844  0.6229
   11MOL   C186 3206   2.648   4.092   2.959 -0.0710  0.3939 -0.0688
   11MOL   C187 3207   2.751   4.198   2.928 -0.6548  0.1868  0.5589
   11MOL   C188 3208   2.226   4.148   2.735  0.5762  0.1378 -0.1154
   11MOL   H189 3209   2.398   4.029   2.658 -0.9017 -0.0140  0.1292
   11MOL   H190 3210   2.577   4.130   3.031 -0.1874  0.2967 -0.1319
   11MOL   H191 3211   2.707   4.011   3.001  0.2268  1.7315  2.1489
   11MOL   H192 3212   2.820   4.218   3.010  0.7142 -1.5310 -0.1457
   11MOL   H193 3213   2.807   4.165   2.840 -0.7862  0.3280  0.4212
   11MOL   H194 3214   2.710   4.294   2.896 -1.5933 -0.4994 -0.3105
   11MOL   H195 3215   2.202   4.208   2.823 -0.8512 -0.9328  0.2377
   11MOL   H196 3216   2.182   4.198   2.649 -0.3507 -0.6781 -0.1124
   11MOL   C197 3217   2.153   4.014   2.756  0.0638  0.2869 -0.0056
   11MOL   O198 3218   2.197   3.950   2.874  0.4064  0.4101  1.2088
   11MOL   C199 3219   2.274   3.841   2.874 -0.5059  0.2795 -0.4423
   11MOL   O200 3220   2.320   3.793   2.776 -0.0518  0.3015  0.6572
   11MOL   C201 3221   2.294   3.770   3.009 -0.2403 -0.4297 -0.2048
   11MOL   C202 3222   2.347   3.864   3.123 -0.3023  0.0751  0.4588
   11MOL   C203 3223   1.998   4.029   2.744 -0.7274 -0.1583  0.8810
   11MOL   H204 3224   2.197   3.951   2.679  0.4851  1.1099 -0.4487
   11MOL   H205 3225   2.192   3.746   3.040 -0.4696  1.1460  0.2836
   11MOL   H206 3226   2.358   3.685   2.989 -0.2664 -0.1577 -1.4517
   11MOL   H207 3227   2.321   3.969   3.119 -0.1378  0.1771  1.7051
   11MOL   H208 3228   2.315   3.833   3.223  1.5376 -0.6849  0.8383
   11MOL   H209 3229   2.455   3.852   3.123  0.1172  3.0289 -3.6505
   11MOL   H210 3230   1.951   4.064   2.836  0.5810  0.3531  1.3643
   11MOL   H211 3231   1.974   4.091   2.658 -4.0493 -1.9331  0.4298
   11MOL   C212 3232   1.930   3.898   2.693 -0.3932  0.5050 -0.0396
   11MOL   O213 3233   1.959   3.788   2.782 -0.5942 -1.1378  0.1283
   11MOL   C214 3234   1.948   3.662   2.738  0.0833 -0.3987 -0.2486
   11MOL   O215 3235   1.931   3.632   2.621  0.1617  0.2221  0.0822
   11MOL   C216 3236   1.961   3.558   2.845 -0.0255  0.1517 -0.2629
   11MOL   C217 3237   2.070   3.461   2.813  0.5193 -0.5664 -0.5105
   11MOL   C218 3238   1.775   3.910   2.692 -0.2424  0.5581 -0.9707
   11MOL   H219 3239   1.971   3.881   2.593  1.3113  0.7237  0.6087
   11MOL   H220 3240   1.992   3.615   2.932  1.6821  0.1312 -0.8407
   11MOL   H221 3241   1.866   3.508   2.865  0.1065 -0.7182 -1.6913
   11MOL   H222 3242   2.159   3.512   2.777 -1.5766  2.8679 -1.0469
   11MOL   H223 3243   2.111   3.392   2.887 -0.2051 -3.9550 -3.1351
   11MOL   H224 3244   2.039   3.411   2.721  3.4057 -0.5625 -1.5360
   11MOL   H225 3245   1.727   3.812   2.689  0.5994 -0.0769  3.3535
   11MOL   H226 3246   1.748   3.947   2.791 -0.6278 -1.1222 -0.4268
   11MOL   C227 3247   1.720   3.995   2.579 -0.4119 -0.2929 -0.9181
   11MOL   O228 3248   1.761   3.937   2.455  0.3196 -0.2863  0.5157
   11MOL   C229 3249   1.798   4.011   2.346 -1.3191 -0.0492 -0.3796
   11MOL   O230 3250   1.793   4.131   2.339  0.3814 -0.1467 -0.2974
   11MOL   C231 3251   1.852   3.925   2.235  0.2511 -0.3820  0.3850
   11MOL   C232 3252   1.736   3.903   2.132 -0.4044 -0.0402  0.9610
   11MOL   C233 3253   1.571   4.000   2.564 -0.2760 -0.1457 -0.6514
   11MOL   H234 3254   1.764   4.095   2.586  0.7584 -0.7192 -2.0136
   11MOL   H235 3255   1.943   3.975   2.204  0.2729 -2.1650 -2.5954
   11MOL   H236 3256   1.885   3.824   2.256  1.5266 -0.1462 -0.4662
   11MOL   H237 3257   1.770   3.869   2.034  0.8256  1.1089  0.9749
   11MOL   H238 3258   1.651   3.842   2.163  1.2347 -2.9296 -0.0604
   11MOL   H239 3259   1.688   3.999   2.112  0.5730  0.4031  0.7477
   11MOL   H240 3260   1.545   4.070   2.485  0.2225  2.5534  1.5236
   11MOL   H241 3261   1.543   3.898   2.537  0.1467  0.0885 -2.0571
   11MOL   C242 3262   1.487   4.043   2.686 -0.3997 -0.3927 -0.6639
   11MOL   O243 3263   1.498   4.180   2.731  0.3536  0.1750  0.0579
   11MOL   C244 3264   1.584   4.223   2.825 -0.0975  0.0107  0.1380
   11MOL   O245 3265   1.674   4.156   2.874  0.0623 -0.0740  0.6884
   11MOL   C246 3266   1.548   4.362   2.884  0.5596 -0.1649  0.2037
   11MOL   C247 3267   1.552   4.361   3.037 -0.4630 -0.0935  0.0292
   11MOL   C248 3268   1.337   4.012   2.660  0.3340  0.0743 -0.3342
   11MOL   H249 3269   1.506   3.977   2.771 -0.0940 -1.6088 -1.6503
   11MOL   H250 3270   1.606   4.442   2.839  0.0100  1.3307  2.0453
   11MOL   H251 3271   1.445   4.380   2.854  0.4235 -0.0449  0.7253
   11MOL   H252 3272   1.508   4.453   3.074 -2.3446 -0.6042 -0.9140
   11MOL   H253 3273   1.498   4.282   3.089 -1.2354 -0.1808 -0.9064
   11MOL   H254 3274   1.656   4.349   3.067 -0.4575  0.6162  0.2962
   11MOL   H255 3275   1.338   3.917   2.607 -1.4729 -1.0544  1.5646
   11MOL   H256 3276   1.302   3.983   2.759  1.3965 -2.1843 -0.5825
   11MOL   C257 3277   1.249   4.112   2.580  0.4529 -0.0909  0.1287
   11MOL   O258 3278   1.298   4.111   2.441  0.7425  0.6653 -0.1220
   11MOL   C259 3279   1.278   4.219   2.361 -0.8303 -0.3369  0.0555
   11MOL   O260 3280   1.224   4.328   2.382  0.6170  0.3607 -0.1365
   11MOL   C261 3281   1.336   4.191   2.223 -0.3463 -0.8574  0.0216
   11MOL   C262 3282   1.299   4.054   2.165  0.2042  1.0560  0.4297
   11MOL   C263 3283   1.101   4.072   2.579  0.0463  0.2799 -0.1246
   11MOL   H264 3284   1.264   4.204   2.636 -1.0629  0.9214 -1.1050
   11MOL   H265 3285   1.312   4.272   2.154  0.8597  0.5814  1.2498
   11MOL   H266 3286   1.443   4.206   2.236 -0.0783 -0.5937 -2.2320
   11MOL   H267 3287   1.192   4.046   2.183  0.4901  2.1164  2.7695
   11MOL   H268 3288   1.319   4.052   2.058  0.5483 -1.6710  0.5336
   11MOL   H269 3289   1.337   3.974   2.228 -2.0271  1.1585  1.9467
   11MOL   H270 3290   1.055   4.104   2.672  0.8879  0.9763  0.0644
   11MOL   H271 3291   1.064   4.146   2.508  0.0893 -1.1599 -1.6712
   11MOL   C272 3292   1.066   3.926   2.549  0.1910 -1.2979 -0.2801
   11MOL   O273 3293   0.926   3.931   2.554  0.3861 -0.7942 -0.1594
   11MOL   C274 3294   0.860   3.870   2.665  0.0693  0.4882 -0.8099
   11MOL   O275 3295   0.915   3.815   2.755 -0.1096  0.5321  0.3375
   11MOL   C276 3296   0.710   3.905   2.673  0.0129  0.7004  0.4373
   11MOL   C277 3297   0.623   3.788   2.632 -0.2491  1.0023  0.2342
   11MOL   C278 3298   1.108   3.853   2.421  0.2540  0.4206  0.5329
   11MOL   H279 3299   1.107   3.878   2.638 -1.0956  4.2715  3.6009
   11MOL   H280 3300   0.680   3.944   2.770  2.6310 -2.8945  2.8256
   11MOL   H281 3301   0.696   3.987   2.602 -0.1172 -0.4893 -0.9224
   11MOL   H282 3302   0.639   3.744   2.534  0.2506  0.7756  0.4188
   11MOL   H283 3303   0.635   3.701   2.697  0.5701 -0.7809 -2.2182
   11MOL   H284 3304   0.518   3.817   2.630 -1.8729 -4.2586  1.4911
   11MOL   H285 3305   1.073   3.898   2.329 -1.7259 -0.2837  0.9153
   11MOL   H286 3306   1.217   3.856   2.415  0.1744  0.3197 -1.1718
   11MOL   C287 3307   1.060   3.709   2.405  0.4029  0.3525  0.1003
   11MOL   O288 3308   1.079   3.672   2.269 -0.0065  0.3471 -0.0465
   11MOL   C289 3309   0.981   3.675   2.184  0.7028  0.3053  0.0341
   11MOL   O290 3310   0.864   3.691   2.217  0.3468 -0.4325 -0.0439
   11MOL   C291 3311   1.024   3.657   2.040  0.0980  0.0562 -0.7801
   11MOL   C292 3312   1.109   3.775   1.990 -1.0445 -0.3434 -0.1111
   11MOL   C293 3313   1.155   3.613   2.490 -0.1933 -0.5032 -0.1988
   11MOL   H294 3314   0.962   3.695   2.451  0.7340 -0.4753  0.5724
   11MOL   H295 3315   1.081   3.564   2.030  0.9351  0.6112 -1.2296
   11MOL   H296 3316   0.934   3.653   1.979  1.6106 -3.4328 -2.9252
   11MOL   H297 3317   1.193   3.787   2.058  0.3390 -0.4152 -1.7896
   11MOL   H298 3318   1.150   3.778   1.889  0.9159  0.8730  0.6974
   11MOL   H299 3319   1.045   3.861   2.011  0.7619  1.5111 -1.8892
   11MOL   H300 3320   1.126   3.508   2.481  0.8306 -0.7223 -0.9123
   11MOL   H301 3321   1.255   3.619   2.448  1.0094  1.2457  2.7670
   11MOL   H302 3322   1.161   3.654   2.591  1.9985 -1.2370 -0.0099
   12MOL     C1 3323   1.619   5.835   2.619  0.4775 -0.4920 -0.3422
   12MOL     O2 3324   1.479   5.860   2.630 -0.5094 -0.1606 -0.3180
   12MOL     C3 3325   1.413   5.908   2.521 -0.3585 -0.1505 -0.2659
   12MOL     O4 3326   1.471   5.938   2.417 -0.2443  0.3534 -0.1411
   12MOL     C5 3327   1.259   5.938   2.540  0.6019 -0.1705 -0.4819
   12MOL     C6 3328   1.223   6.044   2.647  0.6688 -0.0924 -0.0740
   12MOL     C7 3329   1.686   5.826   2.757  0.6497  0.4528 -0.6237
   12MOL     H8 3330   1.664   5.899   2.543  0.3176 -0.2192 -0.2058
   12MOL     H9 3331   1.218   5.959   2.441 -2.7511  0.9412  1.0813
   12MOL    H10 3332   1.202   5.853   2.577  0.8024  0.1048  0.4764
   12MOL    H11 3333   1.307   6.048   2.717 -2.1659  0.4013  3.4352
   12MOL    H12 3334   1.213   6.143   2.602  0.2192 -0.5176 -0.9163
   12MOL    H13 3335   1.136   6.007   2.701  0.0882  0.7597 -0.4146
   12MOL    H14 3336   1.647   5.739   2.811  0.7438 -1.2522 -3.1870
   12MOL    H15 3337   1.786   5.798   2.726  0.5719  0.3098 -0.7477
   12MOL    H16 3338   1.621   5.737   2.571  0.3724 -1.3817  1.4027
   12MOL    C17 3339   1.673   5.951   2.850 -0.2006  0.2576  0.2746
   12MOL    O18 3340   1.771   5.931   2.958  0.5837 -0.4400 -0.2684
   12MOL    C19 3341   1.728   5.905   3.086  0.5607 -0.6799 -0.5069
   12MOL    O20 3342   1.615   5.920   3.126 -0.3458 -0.2524 -0.1652
   12MOL    C21 3343   1.841   5.860   3.173 -0.4635  0.3497 -0.5008
   12MOL    C22 3344   1.885   5.711   3.139  0.0476 -0.1287  0.4220
   12MOL    C23 3345   1.703   6.086   2.770  0.4385 -0.4177 -0.2304
   12MOL    H24 3346   1.573   5.963   2.892 -0.5271  0.9980 -0.7096
   12MOL    H25 3347   1.924   5.928   3.156  1.8191 -2.0790  0.5104
   12MOL    H26 3348   1.820   5.875   3.278 -1.6750 -0.6152 -0.5915
   12MOL    H27 3349   1.993   5.702   3.151 -0.0966  0.6125  2.4645
   12MOL    H28 3350   1.831   5.648   3.210 -1.8823 -0.9942 -1.7690
   12MOL    H29 3351   1.850   5.688   3.038 -0.3851  0.8822  0.3437
   12MOL    H30 3352   1.808   6.085   2.738  0.1669  3.1387 -1.5195
   12MOL    H31 3353   1.644   6.093   2.679  0.0400  0.2919  0.0753
   12MOL    C32 3354   1.674   6.223   2.846 -0.0003 -0.3436 -0.3275
   12MOL    O33 3355   1.547   6.192   2.909  0.0336 -0.3558  0.8742
   12MOL    C34 3356   1.447   6.279   2.904  0.0539  0.1450  0.0292
   12MOL    O35 3357   1.444   6.381   2.833 -0.1213 -0.9848 -0.2831
   12MOL    C36 3358   1.320   6.224   2.969 -0.6125  0.0495  0.7396
   12MOL    C37 3359   1.344   6.187   3.113  0.2973 -0.0861  0.4229
   12MOL    C38 3360   1.780   6.266   2.951  0.5237  0.7295  0.8560
   12MOL    H39 3361   1.660   6.310   2.782 -1.8042  0.6355  1.3429
   12MOL    H40 3362   1.248   6.306   2.959 -2.1465 -1.5608 -2.0496
   12MOL    H41 3363   1.279   6.140   2.913  0.3483 -0.4339  0.7490
   12MOL    H42 3364   1.429   6.122   3.131  1.5862  1.1521 -1.0251
   12MOL    H43 3365   1.345   6.270   3.183 -1.1394  0.6002 -0.3328
   12MOL    H44 3366   1.255   6.134   3.146  0.6767 -0.6955  0.4607
   12MOL    H45 3367   1.784   6.199   3.038  0.3909  0.0084  0.3145
   12MOL    H46 3368   1.872   6.236   2.900 -0.5557  0.9845 -1.2959
   12MOL    C47 3369   1.798   6.416   2.996  0.2689  0.6988 -0.1978
   12MOL    O48 3370   1.681   6.439   3.081  0.2957  0.1054  0.0563
   12MOL    C49 3371   1.619   6.555   3.080  0.1587 -0.1277 -0.3083
   12MOL    O50 3372   1.630   6.646   3.003 -0.4372  0.3352  0.3747
   12MOL    C51 3373   1.503   6.568   3.180 -0.2220  0.0722 -1.2955
   12MOL    C52 3374   1.475   6.713   3.229  0.7817 -0.4582 -0.3166
   12MOL    C53 3375   1.929   6.440   3.079  0.3725  0.4267 -0.2129
   12MOL    H54 3376   1.786   6.472   2.903  0.4815  2.0449  0.5752
   12MOL    H55 3377   1.417   6.521   3.132  0.7758 -1.5432 -1.5282
   12MOL    H56 3378   1.522   6.506   3.267 -2.8817 -0.5369 -1.1044
   12MOL    H57 3379   1.395   6.728   3.301  0.2818  1.2784 -1.2078
   12MOL    H58 3380   1.562   6.770   3.263 -0.7521  1.1756  0.9307
   12MOL    H59 3381   1.451   6.777   3.145  2.1166 -0.0239 -0.3855
   12MOL    H60 3382   1.908   6.470   3.182 -4.8382 -1.7049 -0.5105
   12MOL    H61 3383   1.960   6.336   3.089 -1.3417 -0.2895 -2.0656
   12MOL    C62 3384   2.038   6.516   3.013 -0.8618 -0.3750  0.2881
   12MOL    O63 3385   1.999   6.653   2.990  0.0839 -0.6292  0.3781
   12MOL    C64 3386   1.952   6.692   2.867 -0.4016 -0.1935  0.0858
   12MOL    O65 3387   1.958   6.619   2.769 -0.0177  0.0633  0.6740
   12MOL    C66 3388   1.883   6.832   2.859 -0.5535 -0.7999  0.3135
   12MOL    C67 3389   1.966   6.942   2.915 -0.2121  0.1070 -0.4506
   12MOL    C68 3390   2.162   6.527   3.102  0.1742  0.0919 -0.1183
   12MOL    H69 3391   2.064   6.473   2.916 -0.4461 -0.5461  0.4730
   12MOL    H70 3392   1.861   6.857   2.755 -0.8334 -0.0632  0.5517
   12MOL    H71 3393   1.786   6.819   2.908 -1.7612 -2.3115 -2.3348
   12MOL    H72 3394   1.987   6.929   3.021 -0.2376 -0.2878 -0.4936
   12MOL    H73 3395   2.061   6.958   2.864 -1.9415 -0.9009 -4.1872
   12MOL    H74 3396   1.911   7.036   2.912  0.4179  0.4353 -2.7268
   12MOL    H75 3397   2.228   6.612   3.084 -0.8003  1.7211  3.4222
   12MOL    H76 3398   2.126   6.545   3.204 -1.7846  1.6969 -1.0743
   12MOL    C77 3399   2.253   6.395   3.084  0.2841 -0.5792  0.2042
   12MOL    O78 3400   2.300   6.372   2.950  0.4530 -0.6046 -0.8173
   12MOL    C79 3401   2.235   6.289   2.864 -0.1433 -0.2460  0.6822
   12MOL    O80 3402   2.142   6.211   2.887 -0.6769 -0.3549  0.7149
   12MOL    C81 3403   2.313   6.284   2.730 -0.4324 -0.3979 -0.2784
   12MOL    C82 3404   2.315   6.430   2.678 -0.8659  0.0055 -0.4975
   12MOL    C83 3405   2.372   6.397   3.182  0.0671 -0.1926  0.2151
   12MOL    H84 3406   2.189   6.312   3.114  0.7323 -1.5329 -1.4409
   12MOL    H85 3407   2.416   6.250   2.749 -0.3461 -0.0668 -0.1507
   12MOL    H86 3408   2.277   6.205   2.665  0.9086  1.0148 -2.8205
   12MOL    H87 3409   2.380   6.446   2.591 -0.3849  0.5718 -0.0398
   12MOL    H88 3410   2.217   6.474   2.659 -1.2909 -0.1423  1.3082
   12MOL    H89 3411   2.364   6.500   2.746 -0.6093  0.9270 -1.6142
   12MOL    H90 3412   2.435   6.313   3.154 -1.6783 -1.3807 -0.1835
   12MOL    H91 3413   2.430   6.488   3.161 -3.1492  2.0306  0.6939
   12MOL    C92 3414   2.336   6.398   3.327 -0.5219 -0.0471  1.0441
   12MOL    O93 3415   2.266   6.275   3.337 -0.6639 -0.1717 -0.2459
   12MOL    C94 3416   2.144   6.262   3.391  0.4436  0.6638  0.3450
   12MOL    O95 3417   2.080   6.361   3.421  0.8088 -0.0081 -0.4627
   12MOL    C96 3418   2.106   6.120   3.430  0.4684 -0.0178  0.0718
   12MOL    C97 3419   2.221   6.043   3.508 -0.6925  0.5272  0.8384
   12MOL    C98 3420   2.461   6.396   3.417 -0.7118  0.2149 -0.2352
   12MOL    H99 3421   2.271   6.485   3.334  0.4888  0.6436  2.0150
   12MOL   H100 3422   2.032   6.138   3.509  0.7147 -1.1024  0.5593
   12MOL   H101 3423   2.071   6.078   3.336  0.9607 -2.6302  1.0335
   12MOL   H102 3424   2.306   6.018   3.445 -1.8381 -5.7955  1.5000
   12MOL   H103 3425   2.253   6.101   3.594  0.5403  1.5231 -0.2802
   12MOL   H104 3426   2.189   5.943   3.537  0.8917 -0.1975  0.1557
   12MOL   H105 3427   2.525   6.308   3.412 -1.1377 -0.1494  0.5627
   12MOL   H106 3428   2.522   6.471   3.367  0.7135 -0.0696  1.0439
   12MOL   C107 3429   2.438   6.413   3.566  0.1983 -0.0461 -0.9161
   12MOL   O108 3430   2.548   6.380   3.644 -0.2013  0.6591  0.2464
   12MOL   C109 3431   2.583   6.254   3.670  0.2588 -0.3787 -0.1681
   12MOL   O110 3432   2.539   6.153   3.622  0.0550  0.0837 -0.4436
   12MOL   C111 3433   2.698   6.260   3.770 -0.3615  0.5567  0.1626
   12MOL   C112 3434   2.667   6.234   3.918 -0.2122 -0.1357  0.2157
   12MOL   C113 3435   2.381   6.554   3.599  0.2990 -0.5206 -0.6760
   12MOL   H114 3436   2.360   6.348   3.604  0.5944  1.3155  2.3642
   12MOL   H115 3437   2.780   6.192   3.747 -0.2901  0.7060 -0.0190
   12MOL   H116 3438   2.751   6.354   3.756 -0.5609  0.5190 -0.8535
   12MOL   H117 3439   2.767   6.235   3.961 -0.3497  2.4966  0.5476
   12MOL   H118 3440   2.593   6.308   3.949  2.1515  2.8367 -1.0121
   12MOL   H119 3441   2.619   6.138   3.936 -1.7974  0.7114  0.6433
   12MOL   H120 3442   2.294   6.563   3.534 -0.2177 -1.7280 -0.1702
   12MOL   H121 3443   2.340   6.552   3.700  1.2729  3.8524 -0.0903
   12MOL   C122 3444   2.475   6.670   3.571  0.0257  0.1601  0.3899
   12MOL   O123 3445   2.402   6.774   3.502 -0.2444 -0.4074 -0.6024
   12MOL   C124 3446   2.394   6.780   3.369 -0.0977  0.0559  1.3424
   12MOL   O125 3447   2.433   6.700   3.284 -0.3393 -0.3468  0.0339
   12MOL   C126 3448   2.298   6.893   3.328 -0.4907 -0.5169 -0.3640
   12MOL   C127 3449   2.286   6.903   3.176  0.1730 -0.4606 -0.3072
   12MOL   C128 3450   2.541   6.727   3.699 -0.0578  0.3889 -0.3698
   12MOL   H129 3451   2.557   6.641   3.506  0.5060  0.8566  0.6723
   12MOL   H130 3452   2.205   6.873   3.382 -1.3039  0.9426 -1.1916
   12MOL   H131 3453   2.367   6.974   3.352 -0.5891 -0.1652 -1.2596
   12MOL   H132 3454   2.220   6.985   3.146 -1.7425 -3.0721 -3.5782
   12MOL   H133 3455   2.382   6.933   3.134  0.1172  0.6662  0.3498
   12MOL   H134 3456   2.244   6.828   3.109 -1.6506 -0.0969  0.3851
   12MOL   H135 3457   2.480   6.802   3.749 -0.7598  0.4118 -1.2640
   12MOL   H136 3458   2.549   6.643   3.768 -2.9160  0.3137 -0.0690
   12MOL   C137 3459   2.683   6.777   3.668  0.1943  0.1494 -0.0321
   12MOL   O138 3460   2.672   6.920   3.635 -0.1861  0.3858 -0.3711
   12MOL   C139 3461   2.694   6.956   3.498  0.3612 -0.0411  0.0834
   12MOL   O140 3462   2.721   6.880   3.405 -0.1720 -0.4997 -0.2570
   12MOL   C141 3463   2.677   7.106   3.479 -0.2853  0.3616  0.0109
   12MOL   C142 3464   2.561   7.171   3.559 -0.4755  0.1625  0.5338
   12MOL   C143 3465   2.780   6.761   3.788 -0.5563  0.3529  0.4563
   12MOL   H144 3466   2.725   6.724   3.583  0.3819 -0.1368  0.2385
   12MOL   H145 3467   2.773   7.152   3.499 -0.4061  1.3527 -1.5818
   12MOL   H146 3468   2.664   7.125   3.372  0.1998  0.0181 -0.1112
   12MOL   H147 3469   2.501   7.098   3.613  0.2671  0.4299  1.7411
   12MOL   H148 3470   2.596   7.241   3.635 -2.6043  0.2235  1.4910
   12MOL   H149 3471   2.488   7.227   3.501  0.9963 -0.1457 -1.6710
   12MOL   H150 3472   2.776   6.654   3.811  0.3955  0.0237 -0.8255
   12MOL   H151 3473   2.882   6.780   3.752 -0.9319  0.9914 -0.2851
   12MOL   C152 3474   2.741   6.844   3.917 -0.1988  0.7777 -0.7124
   12MOL   O153 3475   2.648   6.765   3.991  0.3696  0.3599 -0.1976
   12MOL   C154 3476   2.543   6.815   4.059 -0.6543 -0.3832  0.4937
   12MOL   O155 3477   2.510   6.932   4.045 -0.1287  0.4129  0.3739
   12MOL   C156 3478   2.474   6.716   4.154  0.2541  0.0630  0.4560
   12MOL   C157 3479   2.524   6.568   4.138  0.1551  0.5873  0.9735
   12MOL   C158 3480   2.857   6.894   4.000  0.5192 -0.2925  0.4217
   12MOL   H159 3481   2.689   6.936   3.890 -1.5148 -0.3387 -2.1058
   12MOL   H160 3482   2.488   6.742   4.258  0.5696 -1.5783  0.8464
   12MOL   H161 3483   2.367   6.717   4.133  0.5206  0.0981 -0.9794
   12MOL   H162 3484   2.521   6.544   4.031  0.8651  0.6862  0.9309
   12MOL   H163 3485   2.630   6.561   4.164 -0.3830  1.4437  3.5272
   12MOL   H164 3486   2.466   6.494   4.193 -0.9051  0.3828 -0.3828
   12MOL   H165 3487   2.925   6.961   3.949  0.4933  0.0958  0.8926
   12MOL   H166 3488   2.803   6.956   4.072 -0.5715 -0.8838  0.1126
   12MOL   C167 3489   2.938   6.786   4.069 -0.0755 -0.0520  0.2718
   12MOL   O168 3490   3.018   6.711   3.976 -0.2242  0.0306  0.3479
   12MOL   C169 3491   3.012   6.580   3.965 -0.4778  0.1195 -0.2712
   12MOL   O170 3492   2.942   6.500   4.035  0.1832  0.7330  0.4662
   12MOL   C171 3493   3.096   6.534   3.843 -0.2833  0.3691  0.8166
   12MOL   C172 3494   3.075   6.380   3.810  0.3025  0.2751 -0.9387
   12MOL   C173 3495   3.039   6.846   4.177 -0.7199 -0.0228 -0.5100
   12MOL   H174 3496   2.875   6.712   4.118  0.4750 -2.2728 -2.2503
   12MOL   H175 3497   3.074   6.587   3.750  0.2023  1.5625  1.3715
   12MOL   H176 3498   3.200   6.547   3.871  0.2254 -2.0609  0.1089
   12MOL   H177 3499   3.109   6.357   3.709 -0.8638  1.9573 -1.7560
   12MOL   H178 3500   3.131   6.315   3.876 -0.8878  0.2022  0.0214
   12MOL   H179 3501   2.972   6.345   3.812  0.4170 -0.1085 -1.7498
   12MOL   H180 3502   3.121   6.778   4.198 -0.0212  1.1837  0.7617
   12MOL   H181 3503   3.078   6.936   4.129 -4.1106  0.5408 -2.3720
   12MOL   C182 3504   2.975   6.893   4.307  0.5261 -0.0097 -0.6015
   12MOL   O183 3505   2.921   6.771   4.366 -0.0618  0.4623 -0.0362
   12MOL   C184 3506   2.795   6.754   4.393 -0.4927 -0.5961  0.2116
   12MOL   O185 3507   2.704   6.828   4.361  0.5602  0.1412 -0.8134
   12MOL   C186 3508   2.769   6.633   4.482  0.1408 -0.4945  0.4147
   12MOL   C187 3509   2.832   6.502   4.430 -0.4609  0.6341  0.9991
   12MOL   C188 3510   3.071   6.959   4.405  0.2762 -0.1838  0.3861
   12MOL   H189 3511   2.898   6.967   4.283  2.2145  1.8198 -0.4539
   12MOL   H190 3512   2.818   6.647   4.578 -1.7304  0.6190  1.2440
   12MOL   H191 3513   2.663   6.623   4.505  0.0702  1.9259  1.3081
   12MOL   H192 3514   2.941   6.502   4.422 -0.5221  2.7538 -0.1679
   12MOL   H193 3515   2.797   6.424   4.498  2.2064 -0.3669  1.3032
   12MOL   H194 3516   2.801   6.470   4.330  0.0995  0.7083  0.8010
   12MOL   H195 3517   3.004   6.967   4.491 -1.0715 -0.4992 -0.6234
   12MOL   H196 3518   3.153   6.892   4.432  1.4739  1.0816 -0.0683
   12MOL   C197 3519   3.116   7.101   4.369 -0.4600 -0.1954 -0.1643
   12MOL   O198 3520   3.005   7.185   4.335 -0.1109  0.1054 -0.2330
   12MOL   C199 3521   2.970   7.214   4.207  0.8888 -0.2850  0.0855
   12MOL   O200 3522   3.035   7.175   4.111 -0.1460 -0.3058 -0.4094
   12MOL   C201 3523   2.855   7.309   4.191 -0.0266  0.8522  0.4419
   12MOL   C202 3524   2.723   7.241   4.214 -0.0689 -0.2492 -0.1828
   12MOL   C203 3525   3.186   7.172   4.490  0.5563 -0.0088 -0.1774
   12MOL   H204 3526   3.187   7.088   4.288 -1.3074 -1.0838 -0.7677
   12MOL   H205 3527   2.864   7.398   4.253  1.7030 -0.2946  1.8860
   12MOL   H206 3528   2.852   7.349   4.090 -0.4053 -0.7780 -0.2084
   12MOL   H207 3529   2.646   7.298   4.164  1.2994  1.3177 -0.5402
   12MOL   H208 3530   2.707   7.143   4.168  0.6448 -0.1762 -0.6006
   12MOL   H209 3531   2.703   7.229   4.321  0.3437  0.7365  0.0136
   12MOL   H210 3532   3.193   7.278   4.467 -2.2441  0.1231 -0.5860
   12MOL   H211 3533   3.130   7.151   4.581  0.5563 -2.5795 -0.7169
   12MOL   C212 3534   3.328   7.122   4.505 -0.2434 -0.2181 -0.3407
   12MOL   O213 3535   3.404   7.162   4.392  0.4205 -0.1071 -0.4189
   12MOL   C214 3536   3.508   7.092   4.351 -0.7352 -0.4134 -0.0645
   12MOL   O215 3537   3.550   6.979   4.383 -0.0745 -0.6675  0.1549
   12MOL   C216 3538   3.571   7.156   4.226  0.6691 -0.6861 -0.2072
   12MOL   C217 3539   3.599   7.054   4.117  0.3507 -0.2191 -0.1233
   12MOL   C218 3540   3.399   7.170   4.636  0.1174 -0.2085  0.0648
   12MOL   H219 3541   3.325   7.014   4.514  1.4959 -0.3890 -1.6774
   12MOL   H220 3542   3.502   7.234   4.195  1.2518 -0.3895 -0.7675
   12MOL   H221 3543   3.660   7.206   4.264 -0.6918  2.3020 -0.8136
   12MOL   H222 3544   3.520   6.979   4.113  0.3876 -0.3368  1.1709
   12MOL   H223 3545   3.608   7.084   4.013 -3.8684 -0.0962 -0.5239
   12MOL   H224 3546   3.692   7.004   4.144 -0.4109 -1.0547  1.0261
   12MOL   H225 3547   3.507   7.166   4.622 -0.1267 -3.3207 -1.3927
   12MOL   H226 3548   3.385   7.273   4.670 -1.0005 -1.1813  2.6368
   12MOL   C227 3549   3.367   7.079   4.756 -0.2090 -0.5851  1.0706
   12MOL   O228 3550   3.397   6.941   4.739  0.1481  0.5872  0.7023
   12MOL   C229 3551   3.300   6.851   4.743  0.9136  0.6185 -0.6570
   12MOL   O230 3552   3.180   6.870   4.765  0.3321 -0.1714  0.0266
   12MOL   C231 3553   3.342   6.708   4.715  0.0456 -0.1982  0.4463
   12MOL   C232 3554   3.400   6.692   4.573 -0.5755 -0.5136  0.0190
   12MOL   C233 3555   3.440   7.122   4.891  0.0984  0.0673 -0.0504
   12MOL   H234 3556   3.258   7.086   4.764 -0.4332  0.1118 -1.8324
   12MOL   H235 3557   3.420   6.694   4.791 -1.1160 -1.3694  1.4419
   12MOL   H236 3558   3.258   6.640   4.725  0.0756 -0.1083  1.3699
   12MOL   H237 3559   3.499   6.738   4.568 -1.0146  0.2228 -2.5504
   12MOL   H238 3560   3.433   6.595   4.535  2.3561  0.0016  1.0530
   12MOL   H239 3561   3.340   6.742   4.497  0.8293 -1.9685 -2.1113
   12MOL   H240 3562   3.424   7.227   4.913 -1.7010 -0.4601  1.3013
   12MOL   H241 3563   3.408   7.066   4.979  0.1266 -0.2215 -0.2218
   12MOL   C242 3564   3.588   7.092   4.905 -0.1680 -0.1598 -0.1917
   12MOL   O243 3565   3.662   7.192   4.830  0.1348  0.5235  0.3436
   12MOL   C244 3566   3.777   7.155   4.774  0.4391 -0.5875 -0.8589
   12MOL   O245 3567   3.834   7.051   4.800  0.5860 -1.0334  0.5879
   12MOL   C246 3568   3.831   7.257   4.666  0.6257  0.1642 -0.5303
   12MOL   C247 3569   3.826   7.402   4.708 -0.8377 -0.2372  0.0065
   12MOL   C248 3570   3.639   7.103   5.049  0.8131  0.2496  0.3929
   12MOL   H249 3571   3.608   6.997   4.856 -0.5098 -1.0707  1.4021
   12MOL   H250 3572   3.931   7.224   4.637 -0.4190 -1.4811 -2.3136
   12MOL   H251 3573   3.760   7.242   4.584  0.4518 -0.0295 -0.3480
   12MOL   H252 3574   3.883   7.458   4.633  1.6340 -0.6806  1.4751
   12MOL   H253 3575   3.724   7.439   4.713 -1.1028 -0.9873  0.1882
   12MOL   H254 3576   3.889   7.411   4.797 -1.8542 -0.7615  0.7913
   12MOL   H255 3577   3.746   7.112   5.030  0.9581  0.6222  1.3837
   12MOL   H256 3578   3.609   7.196   5.096  3.2479  1.6559 -0.7339
   12MOL   C257 3579   3.616   6.976   5.132 -0.3920 -0.5366 -0.5254
   12MOL   O258 3580   3.687   6.865   5.070  0.0637 -0.3529 -0.1838
   12MOL   C259 3581   3.623   6.762   5.029 -0.5586 -0.2145  0.2178
   12MOL   O260 3582   3.502   6.754   5.023 -0.2426  0.0593  0.7731
   12MOL   C261 3583   3.716   6.655   4.964  0.7809 -0.1964  0.0247
   12MOL   C262 3584   3.758   6.677   4.815  0.7962  0.4248 -0.1664
   12MOL   C263 3585   3.654   6.994   5.282  0.4090  0.6357 -0.3098
   12MOL   H264 3586   3.510   6.953   5.140 -0.2019 -2.0154 -2.0305
   12MOL   H265 3587   3.812   6.657   5.015 -0.9804 -0.7827  3.4992
   12MOL   H266 3588   3.683   6.553   4.985 -2.0051  0.8823  1.1020
   12MOL   H267 3589   3.862   6.711   4.808  0.2323  2.3015  0.2491
   12MOL   H268 3590   3.760   6.587   4.753 -0.9099 -0.5306  1.1336
   12MOL   H269 3591   3.698   6.755   4.768  1.0727 -0.0009 -1.2643
   12MOL   H270 3592   3.641   6.897   5.328 -0.0709  0.4918 -0.7504
   12MOL   H271 3593   3.761   7.014   5.297  0.2417  1.8868 -0.7592
   12MOL   C272 3594   3.561   7.095   5.359  0.5827  0.0771  0.1772
   12MOL   O273 3595   3.443   7.024   5.383  0.5174 -0.0472 -0.7639
   12MOL   C274 3596   3.327   7.053   5.313  0.0299  0.1673 -0.4408
   12MOL   O275 3597   3.311   7.151   5.238  0.2070  0.2786  0.1913
   12MOL   C276 3598   3.207   6.969   5.367 -0.0191  0.0256 -0.1110
   12MOL   C277 3599   3.218   6.820   5.316 -0.3786  0.0866  0.2750
   12MOL   C278 3600   3.622   7.132   5.499  0.7072  0.0430  0.1734
   12MOL   H279 3601   3.538   7.186   5.303 -0.1591  0.8106  1.6256
   12MOL   H280 3602   3.197   6.978   5.475 -2.1115  3.1877 -0.4950
   12MOL   H281 3603   3.118   7.015   5.325  0.4061  0.0049 -1.0691
   12MOL   H282 3604   3.224   6.836   5.208  2.5105 -1.2404  0.1908
   12MOL   H283 3605   3.305   6.765   5.352  1.1138  1.1178 -1.6363
   12MOL   H284 3606   3.128   6.760   5.325  0.6624 -1.2979  1.7498
   12MOL   H285 3607   3.592   7.060   5.575 -0.0200  1.3905  1.2008
   12MOL   H286 3608   3.730   7.124   5.494  0.8289  0.8491  1.2055
   12MOL   C287 3609   3.584   7.274   5.535 -0.4551  0.7631 -0.1637
   12MOL   O288 3610   3.441   7.270   5.526 -0.4757  0.4014 -0.1042
   12MOL   C289 3611   3.369   7.387   5.512  0.0323 -0.6062  0.4252
   12MOL   O290 3612   3.415   7.498   5.490 -0.5722  0.0763 -0.5614
   12MOL   C291 3613   3.222   7.353   5.522  0.1336 -0.3617 -0.1628
   12MOL   C292 3614   3.125   7.452   5.457 -0.8453 -0.0440  0.7552
   12MOL   C293 3615   3.637   7.318   5.675  0.2500 -0.1484 -0.4692
   12MOL   H294 3616   3.621   7.345   5.461  0.5288 -0.8555 -1.2614
   12MOL   H295 3617   3.197   7.252   5.490 -1.7733 -0.1126  0.4996
   12MOL   H296 3618   3.196   7.346   5.628 -0.1457 -0.3369 -0.2300
   12MOL   H297 3619   3.034   7.397   5.431 -0.6574 -0.2651  0.5583
   12MOL   H298 3620   3.107   7.540   5.518 -1.0870  2.1609 -2.3519
   12MOL   H299 3621   3.164   7.491   5.363 -1.4669  1.2031  1.0067
   12MOL   H300 3622   3.578   7.270   5.753  1.8270  0.8080  1.3602
   12MOL   H301 3623   3.744   7.298   5.683  0.0908 -1.1066 -0.6602
   12MOL   H302 3624   3.630   7.424   5.697  1.2438 -0.5387  1.9264
   13MOL     C1 3625   4.896   7.805   5.002  0.7259 -0.3747 -0.4958
   13MOL     O2 3626   5.017   7.735   4.986  0.1835 -0.2629  0.4285
   13MOL     C3 3627   5.055   7.665   5.091  0.3917 -0.1090  0.5448
   13MOL     O4 3628   4.990   7.631   5.187  0.3377 -0.2204 -0.0416
   13MOL     C5 3629   5.200   7.626   5.090 -0.2129  0.1503 -0.3565
   13MOL     C6 3630   5.236   7.531   4.982  0.7266 -0.0307  0.9771
   13MOL     C7 3631   4.861   7.883   4.872  0.1829  0.1613 -0.2671
   13MOL     H8 3632   4.902   7.868   5.091  0.7194 -1.3956  0.2306
   13MOL     H9 3633   5.245   7.723   5.069 -0.8783  0.7520  0.9194
   13MOL    H10 3634   5.232   7.582   5.184  1.5671  1.7913 -0.1628
   13MOL    H11 3635   5.214   7.424   4.987  1.1153 -0.2627 -1.5348
   13MOL    H12 3636   5.184   7.563   4.892 -1.9026  1.0894  2.8529
   13MOL    H13 3637   5.340   7.533   4.947 -0.8069  2.9125 -3.9095
   13MOL    H14 3638   4.954   7.918   4.827  0.7581  0.1692  0.9312
   13MOL    H15 3639   4.825   7.805   4.805 -2.7404  1.3855 -0.1848
   13MOL    H16 3640   4.812   7.739   5.021 -0.3476  0.7192 -1.3710
   13MOL    C17 3641   4.756   0.049   4.883 -0.4187 -0.4155 -0.2916
   13MOL    O18 3642   4.812   0.149   4.958  0.4398 -0.2916 -0.0474
   13MOL    C19 3643   4.737   0.251   5.022 -0.2497  0.3730 -0.0658
   13MOL    O20 3644   4.614   0.250   5.028  0.5372 -0.1400 -0.5446
   13MOL    C21 3645   4.823   0.364   5.078  0.2878  0.3298  1.0389
   13MOL    C22 3646   4.770   0.507   5.024  0.2584 -0.2664 -0.6231
   13MOL    C23 3647   4.718   0.092   4.742  0.2120 -0.6120  0.3606
   13MOL    H24 3648   4.670   0.002   4.932  0.9119 -1.2213  1.3383
   13MOL    H25 3649   4.823   0.350   5.186 -2.2285 -1.8589  0.8110
   13MOL    H26 3650   4.925   0.348   5.044 -0.5044 -0.0519 -1.2454
   13MOL    H27 3651   4.827   0.580   5.082  0.7700 -0.3958 -0.9577
   13MOL    H28 3652   4.776   0.518   4.916 -3.8191  2.0364 -0.7028
   13MOL    H29 3653   4.667   0.525   5.056  0.6355 -0.3707  0.6659
   13MOL    H30 3654   4.789   0.172   4.723 -0.8889  0.1085 -0.8468
   13MOL    H31 3655   4.735   0.010   4.672  0.2340 -0.1222 -0.2136
   13MOL    C32 3656   4.577   0.147   4.720  0.4246 -0.1325 -0.7353
   13MOL    O33 3657   4.567   0.210   4.592 -0.5932  0.2074  0.8348
   13MOL    C34 3658   4.626   0.330   4.579  0.9407  0.2276  0.2774
   13MOL    O35 3659   4.671   0.400   4.670  0.1007 -0.0179 -0.3616
   13MOL    C36 3660   4.614   0.383   4.436  0.3672 -0.5484  0.3275
   13MOL    C37 3661   4.710   0.487   4.413 -0.0541  0.1581 -0.0178
   13MOL    C38 3662   4.470   0.035   4.709  0.0549 -0.5670 -0.5844
   13MOL    H39 3663   4.543   0.223   4.790 -2.6074 -2.6774  0.6503
   13MOL    H40 3664   4.620   0.302   4.363  0.0646  0.3392 -0.6921
   13MOL    H41 3665   4.517   0.431   4.429 -0.1764 -1.4035  1.8510
   13MOL    H42 3666   4.703   0.511   4.307  0.4281  3.0868  0.5831
   13MOL    H43 3667   4.680   0.567   4.480 -0.7887  0.0346 -0.1940
   13MOL    H44 3668   4.816   0.462   4.424  0.0115  1.3336  2.3719
   13MOL    H45 3669   4.476   7.934   4.610 -0.5937  2.4105 -2.0778
   13MOL    H46 3670   4.479   7.897   4.779 -1.4175 -0.4222 -0.2012
   13MOL    C47 3671   4.320   0.088   4.706  0.4701 -0.0372 -0.0065
   13MOL    O48 3672   4.223   7.927   4.678  0.5287 -0.0655  0.2983
   13MOL    C49 3673   4.099   0.018   4.631  0.6629  0.3874  0.2465
   13MOL    O50 3674   4.059   0.135   4.613 -0.2914 -0.0607 -0.6198
   13MOL    C51 3675   4.021   7.836   4.590 -0.0526 -0.2761  0.1626
   13MOL    C52 3676   3.891   7.875   4.509 -0.7089 -0.7892  0.7496
   13MOL    C53 3677   4.279   0.164   4.839 -0.2404 -0.7392 -0.0613
   13MOL    H54 3678   4.321   0.156   4.621 -1.5635 -0.8595 -0.7236
   13MOL    H55 3679   4.088   7.777   4.528 -2.3427  0.3857 -3.1045
   13MOL    H56 3680   3.994   7.780   4.680  0.9790  2.4124  2.2375
   13MOL    H57 3681   3.911   7.913   4.409 -1.0601 -1.5544  0.3902
   13MOL    H58 3682   3.838   7.780   4.500  0.4488 -1.3599 -0.2708
   13MOL    H59 3683   3.830   0.002   4.565 -0.1167  0.4055 -0.1166
   13MOL    H60 3684   4.183   0.126   4.875 -1.1507 -0.5569 -2.2112
   13MOL    H61 3685   4.349   0.128   4.915 -0.7154 -0.5571  0.4598
   13MOL    C62 3686   4.283   0.316   4.829 -0.5332  0.0602  0.4575
   13MOL    O63 3687   4.194   0.343   4.725  0.0318 -0.3115 -0.5102
   13MOL    C64 3688   4.205   0.457   4.652  0.5194  0.6991 -0.2475
   13MOL    O65 3689   4.287   0.547   4.652 -0.3645 -0.1957 -0.1844
   13MOL    C66 3690   4.087   0.481   4.551 -1.2066  0.3700 -0.3782
   13MOL    C67 3691   3.953   0.464   4.613 -0.3087 -0.0468 -0.0439
   13MOL    C68 3692   4.227   0.376   4.966 -0.1304  0.2812  0.1003
   13MOL    H69 3693   4.384   0.351   4.808 -0.8759  0.6961 -0.1462
   13MOL    H70 3694   4.098   0.587   4.528 -0.5278  0.2058 -0.8372
   13MOL    H71 3695   4.091   0.423   4.458 -1.5736 -1.6611  0.8543
   13MOL    H72 3696   3.929   0.544   4.684 -1.8595  0.4231 -1.0741
   13MOL    H73 3697   3.869   0.464   4.543  0.4149 -1.9063 -0.9277
   13MOL    H74 3698   3.948   0.376   4.677 -0.3007  0.4116  0.5890
   13MOL    H75 3699   4.123   0.349   4.978 -0.3051  1.1058  0.5275
   13MOL    H76 3700   4.279   0.334   5.052 -1.7053 -2.8511 -0.4188
   13MOL    C77 3701   4.236   0.527   4.974  0.0621  0.7089  0.4687
   13MOL    O78 3702   4.194   0.560   5.104  0.1659  0.3127 -0.0822
   13MOL    C79 3703   4.064   0.596   5.125  0.4684  0.0395 -0.0844
   13MOL    O80 3704   3.981   0.613   5.038 -0.2213 -0.6565 -0.1079
   13MOL    C81 3705   4.031   0.609   5.277 -0.3594  0.5167 -0.2612
   13MOL    C82 3706   3.884   0.569   5.317 -0.1058 -0.6313  0.3993
   13MOL    C83 3707   4.377   0.584   4.961  0.0653 -0.3279  0.4439
   13MOL    H84 3708   4.172   0.575   4.900 -0.4297 -0.5905  0.0340
   13MOL    H85 3709   4.094   0.543   5.337 -0.4261 -0.0177 -0.7775
   13MOL    H86 3710   4.059   0.712   5.299 -0.8197  0.6546 -0.3085
   13MOL    H87 3711   3.858   0.590   5.421  0.5203  0.4167  0.3481
   13MOL    H88 3712   3.812   0.624   5.257 -2.0190 -0.0846  3.1032
   13MOL    H89 3713   3.860   0.464   5.301  0.2555 -0.5932 -0.4293
   13MOL    H90 3714   4.441   0.535   5.034  0.2508 -0.9060 -0.1018
   13MOL    H91 3715   4.437   0.555   4.874 -2.1229 -2.6317 -0.3733
   13MOL    C92 3716   4.379   0.737   4.986 -0.4091  0.7859  0.7124
   13MOL    O93 3717   4.513   0.801   4.995  0.6379  0.2752 -0.2893
   13MOL    C94 3718   4.588   0.780   5.096 -0.6942 -0.3398 -0.5712
   13MOL    O95 3719   4.562   0.724   5.203  0.3189 -0.4473  0.1939
   13MOL    C96 3720   4.714   0.863   5.090 -0.5141  0.6004  0.0906
   13MOL    C97 3721   4.695   1.005   5.146 -0.0619 -0.0091  0.0623
   13MOL    C98 3722   4.322   0.812   4.865 -0.5168 -0.1743 -0.5502
   13MOL    H99 3723   4.341   0.764   5.084 -0.0492 -0.8040  1.3068
   13MOL   H100 3724   4.786   0.812   5.154 -0.8319 -0.3478 -0.2913
   13MOL   H101 3725   4.762   0.857   4.992  0.2161 -1.1116  0.5224
   13MOL   H102 3726   4.697   1.081   5.068  1.5953  0.1371  0.2317
   13MOL   H103 3727   4.607   1.010   5.210  0.1431  1.4875  0.2292
   13MOL   H104 3728   4.782   1.046   5.196  0.5458 -1.5257  0.2919
   13MOL   H105 3729   4.383   0.802   4.776  0.8213  2.6439  0.0027
   13MOL   H106 3730   4.227   0.767   4.836 -0.1134 -0.8749 -0.7992
   13MOL   C107 3731   4.300   0.962   4.879 -0.0087  0.3186  0.0962
   13MOL   O108 3732   4.416   1.032   4.843 -0.3578  0.2888  0.2787
   13MOL   C109 3733   4.457   1.140   4.910  0.1561 -0.4799  0.7119
   13MOL   O110 3734   4.401   1.184   5.012 -0.5829 -0.6710 -0.0399
   13MOL   C111 3735   4.578   1.202   4.851  0.4547 -0.6349  0.1653
   13MOL   C112 3736   4.559   1.244   4.705  0.1938 -0.3726  0.2799
   13MOL   C113 3737   4.184   1.014   4.789  0.3370  0.0199 -0.0891
   13MOL   H114 3738   4.281   0.986   4.983  0.3079 -0.5668  0.3557
   13MOL   H115 3739   4.608   1.280   4.922 -0.7462 -0.4251  0.4424
   13MOL   H116 3740   4.664   1.135   4.836  1.4856  1.0037 -1.4602
   13MOL   H117 3741   4.657   1.248   4.657 -0.7406  1.1013 -1.5627
   13MOL   H118 3742   4.504   1.175   4.641  0.0974 -0.5573  0.5588
   13MOL   H119 3743   4.515   1.343   4.693 -0.4350 -0.7727 -0.7240
   13MOL   H120 3744   4.196   1.121   4.774  0.9050  0.5690  3.7941
   13MOL   H121 3745   4.177   0.964   4.693 -0.9383  2.3639 -1.2626
   13MOL   C122 3746   4.044   0.999   4.859  0.6969  0.1611 -0.1372
   13MOL   O123 3747   4.018   1.101   4.949  0.1812  0.0710  0.4175
   13MOL   C124 3748   4.008   1.081   5.079  0.0222 -0.1467 -0.2032
   13MOL   O125 3749   4.029   0.975   5.135  0.1975 -0.2876 -0.0093
   13MOL   C126 3750   3.979   1.204   5.162  0.3592  0.6088 -1.0232
   13MOL   C127 3751   3.925   1.322   5.078  0.1393  0.5686  0.1737
   13MOL   C128 3752   3.926   0.995   4.755 -0.0242 -0.0678 -0.3512
   13MOL   H129 3753   4.052   0.906   4.916  0.5143  0.8294  1.0029
   13MOL   H130 3754   3.905   1.179   5.238  2.7411 -1.3694  0.7561
   13MOL   H131 3755   4.075   1.231   5.207  0.2613 -0.4248 -0.1751
   13MOL   H132 3756   4.001   1.365   5.013  0.0220  0.9736  0.2999
   13MOL   H133 3757   3.840   1.308   5.010 -0.0929  1.1707  0.3348
   13MOL   H134 3758   3.899   1.400   5.150  1.2465  0.6554  0.4883
   13MOL   H135 3759   3.907   1.095   4.716  0.6967 -0.2606 -1.1869
   13MOL   H136 3760   3.941   0.927   4.672  0.3649 -0.7387  0.2650
   13MOL   C137 3761   3.795   0.965   4.822  0.0996  0.0987  0.1650
   13MOL   O138 3762   3.691   0.960   4.717  0.3102  0.4119  0.2941
   13MOL   C139 3763   3.592   1.046   4.722 -0.2531  0.2298  0.0586
   13MOL   O140 3764   3.583   1.158   4.780 -0.5255 -0.1379 -0.7969
   13MOL   C141 3765   3.479   1.000   4.630  0.1386  0.4679  0.3812
   13MOL   C142 3766   3.394   0.886   4.685 -0.5557  0.4941 -0.3591
   13MOL   C143 3767   3.789   0.837   4.902  0.1385 -0.8261  0.6749
   13MOL   H144 3768   3.762   1.038   4.896  1.4146  1.9677 -1.0537
   13MOL   H145 3769   3.420   1.089   4.609  2.1817  1.6164 -0.7026
   13MOL   H146 3770   3.514   0.966   4.532 -0.4308 -3.6205  1.4978
   13MOL   H147 3771   3.448   0.792   4.701 -1.4930  0.1467  0.9041
   13MOL   H148 3772   3.352   0.900   4.785 -2.4978  1.5755 -1.3236
   13MOL   H149 3773   3.315   0.860   4.616  0.9253 -0.3098 -1.7928
   13MOL   H150 3774   3.810   0.760   4.827  1.4094  0.8765 -0.7735
   13MOL   H151 3775   3.876   0.829   4.967  0.5526 -0.4240  0.1807
   13MOL   C152 3776   3.663   0.798   4.994  0.6902  0.1239  0.6096
   13MOL   O153 3777   3.667   0.662   5.017 -0.2601  0.0765 -0.1610
   13MOL   C154 3778   3.606   0.578   4.938 -0.2499  0.2606  0.2651
   13MOL   O155 3779   3.545   0.600   4.836  0.4243 -0.1509 -0.0319
   13MOL   C156 3780   3.596   0.439   5.006 -0.0045 -0.2388  0.4570
   13MOL   C157 3781   3.545   0.449   5.156 -0.0681  0.1189 -0.0638
   13MOL   C158 3782   3.648   0.863   5.129 -0.5703  0.2956 -0.2683
   13MOL   H159 3783   3.574   0.824   4.936  0.3713  0.8649  1.4247
   13MOL   H160 3784   3.532   0.381   4.940 -0.1927 -1.9089  2.0450
   13MOL   H161 3785   3.695   0.394   5.014 -1.4772 -3.5877  0.6394
   13MOL   H162 3786   3.633   0.454   5.220 -1.9702  0.4804  2.5884
   13MOL   H163 3787   3.486   0.539   5.174 -1.0868 -0.5099 -0.1970
   13MOL   H164 3788   3.474   0.370   5.180 -1.6857  1.7845  0.7844
   13MOL   H165 3789   3.648   0.780   5.200  0.1028  1.0144  0.6026
   13MOL   H166 3790   3.743   0.914   5.146  0.3616 -1.7090  0.6916
   13MOL   C167 3791   3.532   0.962   5.142 -0.5050  0.0416  0.2941
   13MOL   O168 3792   3.415   0.898   5.198  0.1264  0.7551 -0.2127
   13MOL   C169 3793   3.294   0.924   5.150 -0.0998  0.1223  0.6206
   13MOL   O170 3794   3.271   0.985   5.048  0.1150 -0.4770  0.0594
   13MOL   C171 3795   3.183   0.860   5.227 -0.0071 -0.6186 -0.1893
   13MOL   C172 3796   3.159   0.714   5.172  0.0434 -0.5207 -0.0818
   13MOL   C173 3797   3.577   1.088   5.218 -0.1150  0.7667  0.2921
   13MOL   H174 3798   3.511   0.990   5.039  1.0672 -0.4363 -0.1617
   13MOL   H175 3799   3.217   0.870   5.330  2.4881  3.1337 -1.2587
   13MOL   H176 3800   3.089   0.912   5.207  0.5551  0.0979 -0.9994
   13MOL   H177 3801   3.130   0.705   5.067 -1.1751 -1.6988  0.3365
   13MOL   H178 3802   3.238   0.640   5.182  1.5646  0.9352 -1.0033
   13MOL   H179 3803   3.064   0.682   5.215  0.6804 -1.2090  0.8380
   13MOL   H180 3804   3.598   1.050   5.318  2.0440 -0.8122 -0.7255
   13MOL   H181 3805   3.675   1.114   5.179  0.1609 -0.9568 -0.2239
   13MOL   C182 3806   3.490   1.211   5.217 -0.5041 -0.3024  0.2329
   13MOL   O183 3807   3.517   1.290   5.330  0.6104 -0.0642  0.0504
   13MOL   C184 3808   3.413   1.329   5.407  0.6240  0.4669 -0.5366
   13MOL   O185 3809   3.295   1.332   5.371 -0.3261  0.3877  0.1924
   13MOL   C186 3810   3.457   1.384   5.538 -0.6633  0.7108  1.0328
   13MOL   C187 3811   3.406   1.525   5.552  0.1411 -0.1541  0.7060
   13MOL   C188 3812   3.528   1.304   5.093  0.0772 -0.0946 -0.0599
   13MOL   H189 3813   3.383   1.187   5.221 -0.8044  0.4184 -2.5872
   13MOL   H190 3814   3.414   1.323   5.618 -0.5978 -0.1618  0.4048
   13MOL   H191 3815   3.565   1.387   5.551 -0.5464  2.0327 -0.1363
   13MOL   H192 3816   3.318   1.555   5.496  1.0931  0.4422 -0.4918
   13MOL   H193 3817   3.388   1.560   5.654 -0.9225 -0.2566  0.5583
   13MOL   H194 3818   3.484   1.591   5.513 -0.7460  0.5721  0.1495
   13MOL   H195 3819   3.610   1.369   5.120 -2.4439  2.5303  1.5494
   13MOL   H196 3820   3.557   1.247   5.005 -0.5831 -2.5849  1.2876
   13MOL   C197 3821   3.416   1.408   5.061  0.5324  0.1892  0.1337
   13MOL   O198 3822   3.477   1.508   4.983 -0.0593  0.3589  0.3106
   13MOL   C199 3823   3.485   1.634   5.031 -0.3307 -0.3233  0.1776
   13MOL   O200 3824   3.431   1.683   5.125 -0.3333  0.0925 -0.0961
   13MOL   C201 3825   3.577   1.714   4.941 -0.1217  0.1599 -0.8550
   13MOL   C202 3826   3.616   1.849   5.003 -0.2172  0.2320  0.0403
   13MOL   C203 3827   3.299   1.336   4.993 -0.0423 -0.0608  0.7622
   13MOL   H204 3828   3.377   1.447   5.155  0.2475  1.3165 -0.4377
   13MOL   H205 3829   3.653   1.645   4.905  0.1657  0.9570 -1.8020
   13MOL   H206 3830   3.518   1.738   4.852  1.3132 -0.4450 -1.9953
   13MOL   H207 3831   3.693   1.906   4.952  0.3450  0.5996  1.2825
   13MOL   H208 3832   3.528   1.913   4.995 -1.9199 -2.1676 -1.1375
   13MOL   H209 3833   3.639   1.844   5.109 -1.6177 -1.2681  0.2946
   13MOL   H210 3834   3.327   1.273   4.909 -1.5742  1.8732 -1.2501
   13MOL   H211 3835   3.275   1.251   5.058  0.2115 -1.1523 -0.5575
   13MOL   C212 3836   3.176   1.440   4.969 -0.1199  0.1404  1.0579
   13MOL   O213 3837   3.084   1.372   4.878 -0.1382 -0.1534 -0.1916
   13MOL   C214 3838   3.128   1.350   4.747 -0.4290  0.5418 -0.2377
   13MOL   O215 3839   3.237   1.386   4.705  0.0007 -0.2439 -0.0365
   13MOL   C216 3840   3.042   1.249   4.667 -0.1827  0.2428  0.7549
   13MOL   C217 3841   3.086   1.099   4.683  0.0525  0.3826  0.4846
   13MOL   C218 3842   3.091   1.463   5.094  0.4838 -0.2839 -0.7148
   13MOL   H219 3843   3.204   1.533   4.921 -2.3291  0.1645 -0.2524
   13MOL   H220 3844   2.946   1.262   4.717  0.7086  0.7680  2.3645
   13MOL   H221 3845   3.045   1.300   4.571 -2.2042  0.2564  0.6745
   13MOL   H222 3846   3.107   1.074   4.787  0.8016  2.9170  0.9726
   13MOL   H223 3847   3.013   1.031   4.640  1.1451  1.0489 -2.5859
   13MOL   H224 3848   3.181   1.089   4.630 -0.6237  1.3533 -0.9375
   13MOL   H225 3849   3.079   1.373   5.154  2.2241  1.1464  1.8788
   13MOL   H226 3850   3.147   1.536   5.154 -0.8635 -0.6820  1.0542
   13MOL   C227 3851   2.945   1.511   5.083  0.1682 -0.7984 -0.4906
   13MOL   O228 3852   2.901   1.558   5.215  0.7910 -0.2430  0.0286
   13MOL   C229 3853   2.851   1.471   5.305  0.3730 -0.1064 -0.4638
   13MOL   O230 3854   2.839   1.349   5.296 -0.1087  0.6854 -0.0307
   13MOL   C231 3855   2.818   1.538   5.434  0.6043  0.3588 -0.4702
   13MOL   C232 3856   2.933   1.611   5.497 -0.2359 -0.3039  0.0079
   13MOL   C233 3857   2.921   1.622   4.977 -0.3200  0.1544 -0.1086
   13MOL   H234 3858   2.893   1.421   5.052  0.8335 -0.5108 -2.5025
   13MOL   H235 3859   2.739   1.612   5.423  2.1276  2.3053  1.3519
   13MOL   H236 3860   2.784   1.462   5.504  1.9394 -0.2487 -0.4566
   13MOL   H237 3861   2.898   1.657   5.589 -0.0933  2.4811 -1.2762
   13MOL   H238 3862   3.007   1.540   5.535 -1.7104  0.3228  4.3763
   13MOL   H239 3863   2.976   1.693   5.439  2.4577 -1.9003 -0.3619
   13MOL   H240 3864   2.989   1.703   5.004 -3.5146  3.0836 -0.4943
   13MOL   H241 3865   2.948   1.586   4.877 -1.2926  4.0125 -1.8768
   13MOL   C242 3866   2.773   1.674   4.968 -0.6429 -0.4437 -0.4208
   13MOL   O243 3867   2.767   1.799   4.912 -0.6487 -0.5438  0.1510
   13MOL   C244 3868   2.731   1.908   4.982 -0.3471  0.1215  0.5331
   13MOL   O245 3869   2.683   1.910   5.093  0.3090  0.2195  0.0154
   13MOL   C246 3870   2.786   2.025   4.914 -0.1388 -0.4244  0.0444
   13MOL   C247 3871   2.776   2.152   4.998  0.0400  0.2938  0.2011
   13MOL   C248 3872   2.685   1.588   4.884 -0.5304  0.0274 -0.1256
   13MOL   H249 3873   2.736   1.675   5.070 -2.4177  0.8735 -1.0556
   13MOL   H250 3874   2.891   2.010   4.886 -0.0395 -0.0700  0.2157
   13MOL   H251 3875   2.739   2.029   4.816  0.0069 -0.7036 -0.0364
   13MOL   H252 3876   2.786   2.129   5.104  2.9079  0.7440  0.0763
   13MOL   H253 3877   2.859   2.219   4.974  1.5627 -0.8079  2.1804
   13MOL   H254 3878   2.674   2.191   4.994  0.6977  2.1454  0.5810
   13MOL   H255 3879   2.665   1.638   4.790 -2.1356 -1.5778 -0.6761
   13MOL   H256 3880   2.735   1.493   4.863  0.9832  0.6900  0.4111
   13MOL   C257 3881   2.551   1.551   4.938  0.5204  0.3703 -0.0965
   13MOL   O258 3882   2.578   1.473   5.053 -0.1130  0.1087  0.3977
   13MOL   C259 3883   2.514   1.361   5.072 -0.4519  0.4567 -0.6055
   13MOL   O260 3884   2.463   1.284   4.989  0.1103  0.2649  0.0648
   13MOL   C261 3885   2.505   1.332   5.216 -0.2024 -0.0810  0.1598
   13MOL   C262 3886   2.415   1.431   5.291  0.2012  0.1236 -0.2187
   13MOL   C263 3887   2.463   1.674   4.977  0.1949  0.1279  0.4904
   13MOL   H264 3888   2.496   1.503   4.857  0.4959 -1.1023  0.7770
   13MOL   H265 3889   2.469   1.230   5.230  0.4874 -0.5814 -1.5625
   13MOL   H266 3890   2.604   1.323   5.259  0.1395  2.1184 -0.1039
   13MOL   H267 3891   2.457   1.532   5.295  0.1556  0.1560 -0.4994
   13MOL   H268 3892   2.319   1.447   5.242  0.3969  2.6950  0.1405
   13MOL   H269 3893   2.390   1.388   5.387  0.8483  3.1744  1.3840
   13MOL   H270 3894   2.377   1.631   5.029  0.4803 -0.3616  0.5671
   13MOL   H271 3895   2.512   1.730   5.056 -0.6640  0.5702  0.7182
   13MOL   C272 3896   2.406   1.769   4.866 -0.1030 -0.5659 -0.1953
   13MOL   O273 3897   2.309   1.704   4.783 -0.0904  0.5984  0.7221
   13MOL   C274 3898   2.343   1.684   4.652  0.7865  0.6270 -0.9450
   13MOL   O275 3899   2.452   1.710   4.595  0.4901 -0.3606 -0.1234
   13MOL   C276 3900   2.225   1.623   4.575 -0.5736  0.5396 -0.1819
   13MOL   C277 3901   2.091   1.690   4.599 -0.4293  0.4587 -0.3327
   13MOL   C278 3902   2.345   1.895   4.928  0.4078 -0.5582 -0.6262
   13MOL   H279 3903   2.497   1.793   4.811  1.2985 -1.1351  1.8238
   13MOL   H280 3904   2.253   1.642   4.471  2.5641  0.7307  0.6426
   13MOL   H281 3905   2.215   1.515   4.588 -0.6108  0.6395  0.6470
   13MOL   H282 3906   2.063   1.653   4.697  2.4343 -1.0957 -0.0703
   13MOL   H283 3907   2.094   1.798   4.584 -0.4610  0.5558  0.3652
   13MOL   H284 3908   2.010   1.656   4.533  0.5132 -0.4466 -1.0317
   13MOL   H285 3909   2.253   1.869   4.980 -0.6408 -0.8282 -2.5880
   13MOL   H286 3910   2.417   1.922   5.005  0.0255 -2.1138  0.3062
   13MOL   C287 3911   2.319   2.015   4.841  0.0932  0.7878 -0.2412
   13MOL   O288 3912   2.215   2.087   4.902  0.1830 -0.4697 -0.0618
   13MOL   C289 3913   2.121   2.143   4.822  0.1451 -0.0323  0.4781
   13MOL   O290 3914   2.089   2.110   4.710  0.2153  0.6389 -0.6201
   13MOL   C291 3915   2.042   2.247   4.900  0.6852 -0.1737 -0.1309
   13MOL   C292 3916   1.926   2.309   4.828  0.2962  0.5624 -0.2253
   13MOL   C293 3917   2.445   2.111   4.828  0.8650  0.7521  0.5273
   13MOL   H294 3918   2.299   1.978   4.741 -0.5146  1.9926 -0.5663
   13MOL   H295 3919   2.013   2.210   4.998  0.3219  1.2544  0.3082
   13MOL   H296 3920   2.101   2.336   4.917 -0.7309  0.3964  1.9497
   13MOL   H297 3921   1.955   2.398   4.772 -1.3767  1.3305  0.1296
   13MOL   H298 3922   1.870   2.243   4.762  0.7966  0.4480 -0.5415
   13MOL   H299 3923   1.857   2.353   4.899 -0.4430 -0.8533 -0.0513
   13MOL   H300 3924   2.416   2.179   4.749 -0.4374 -0.8294 -0.3855
   13MOL   H301 3925   2.471   2.165   4.919  0.6721  1.9206 -0.1104
   13MOL   H302 3926   2.536   2.057   4.802  1.1450 -0.0897  3.0595
   14MOL     C1 3927   1.560   0.394   4.934  0.8654 -0.1402  0.7155
   14MOL     O2 3928   1.572   0.257   4.968  0.3218 -0.0069  0.1025
   14MOL     C3 3929   1.667   0.221   5.050 -0.0907 -0.3834 -0.5136
   14MOL     O4 3930   1.740   0.291   5.115 -0.2998 -0.0392  0.4722
   14MOL     C5 3931   1.692   0.068   5.049  0.0852  0.6182  0.7314
   14MOL     C6 3932   1.562   7.945   5.089 -0.4915 -0.1748  0.5733
   14MOL     C7 3933   1.414   0.430   4.951  0.0389  0.1643  0.2835
   14MOL     H8 3934   1.602   0.422   4.837 -0.0245  0.1005  0.4009
   14MOL     H9 3935   1.709   0.050   4.943 -1.1569 -0.9540  0.7745
   14MOL    H10 3936   1.774   0.024   5.105 -1.6197 -1.0425  1.9882
   14MOL    H11 3937   1.550   7.841   5.059  0.3145  0.0693 -0.6298
   14MOL    H12 3938   1.554   0.011   5.198  2.0380  0.3861  0.7365
   14MOL    H13 3939   1.476   0.038   5.035  0.7671  0.3637 -1.1005
   14MOL    H14 3940   1.345   0.351   4.923 -0.2025  0.1537  0.9036
   14MOL    H15 3941   1.389   0.438   5.057  0.0107 -1.3878  0.3988
   14MOL    H16 3942   1.610   0.455   5.009  0.1777  0.4614  0.6861
   14MOL    C17 3943   1.370   0.565   4.890  0.4725 -0.0180  0.5025
   14MOL    O18 3944   1.404   0.575   4.753 -0.1026  0.0865  0.1920
   14MOL    C19 3945   1.491   0.653   4.692 -0.2761 -0.6292 -0.7228
   14MOL    O20 3946   1.557   0.737   4.748  0.7197  0.3041 -0.4623
   14MOL    C21 3947   1.485   0.635   4.536 -0.4799 -0.1585 -0.1068
   14MOL    C22 3948   1.575   0.505   4.501  0.1212 -0.6554  0.1760
   14MOL    C23 3949   1.219   0.591   4.889 -0.2481 -0.0609 -1.0499
   14MOL    H24 3950   1.414   0.647   4.947 -0.9652  0.2526  1.2441
   14MOL    H25 3951   1.380   0.632   4.510 -0.4324  1.6600 -0.5527
   14MOL    H26 3952   1.533   0.721   4.489  1.5498 -2.0489 -1.5859
   14MOL    H27 3953   1.683   0.521   4.511  0.0357 -0.0695  0.2254
   14MOL    H28 3954   1.538   0.411   4.541 -1.9085 -0.0989 -0.3324
   14MOL    H29 3955   1.569   0.479   4.395  0.0687  0.5820 -0.1346
   14MOL    H30 3956   1.187   0.563   4.989  0.9371 -0.2400 -0.7100
   14MOL    H31 3957   1.195   0.698   4.891 -1.4567 -0.3580  1.0930
   14MOL    C32 3958   1.135   0.502   4.789 -0.2617 -0.2052 -0.5275
   14MOL    O33 3959   1.005   0.485   4.847  0.2268 -0.0719 -0.5649
   14MOL    C34 3960   0.950   0.360   4.857  0.1316  0.2068 -0.4573
   14MOL    O35 3961   0.994   0.267   4.789 -0.0491  0.6819  0.1673
   14MOL    C36 3962   0.832   0.355   4.951 -0.0701  0.0029  0.2617
   14MOL    C37 3963   0.708   0.401   4.876  0.6667 -0.7932 -0.1132
   14MOL    C38 3964   1.098   0.567   4.652  0.0508  0.8616  0.6967
   14MOL    H39 3965   1.196   0.414   4.770 -0.4797 -0.3680 -0.4596
   14MOL    H40 3966   0.822   0.251   4.983 -1.8285 -0.5771 -1.9987
   14MOL    H41 3967   0.849   0.416   5.039 -1.7205  0.2235  0.4409
   14MOL    H42 3968   0.693   0.507   4.898  0.6193 -0.6195 -0.9579
   14MOL    H43 3969   0.711   0.405   4.767  0.2990  0.2115 -0.1022
   14MOL    H44 3970   0.619   0.341   4.895 -0.1348 -0.1821 -1.7639
   14MOL    H45 3971   1.026   0.648   4.665 -1.8209 -0.9259  1.8073
   14MOL    H46 3972   1.186   0.617   4.611  0.1001 -0.6318 -1.0760
   14MOL    C47 3973   1.056   0.475   4.532  0.4869 -0.2600 -0.1007
   14MOL    O48 3974   1.006   0.549   4.426 -0.0310 -0.3876  0.1960
   14MOL    C49 3975   0.882   0.602   4.437  0.3091 -0.3010 -0.7673
   14MOL    O50 3976   0.808   0.599   4.536 -0.0685 -0.5628  0.5187
   14MOL    C51 3977   0.836   0.661   4.304  0.2675  0.1892 -0.4893
   14MOL    C52 3978   0.836   0.551   4.190  0.2712 -0.0162  0.0827
   14MOL    C53 3979   1.175   0.387   4.480 -0.2305 -0.1242 -0.2636
   14MOL    H54 3980   0.979   0.408   4.568 -0.3018 -0.5485 -2.2435
   14MOL    H55 3981   0.733   0.694   4.312  0.4404  0.3578  1.2738
   14MOL    H56 3982   0.904   0.743   4.280  0.4388 -0.2469 -1.5177
   14MOL    H57 3983   0.757   0.478   4.211 -2.5893  2.8976 -0.1289
   14MOL    H58 3984   0.808   0.598   4.096 -0.4047 -0.1370  0.2180
   14MOL    H59 3985   0.930   0.501   4.168 -0.3992 -0.5026 -1.7964
   14MOL    H60 3986   1.257   0.452   4.452 -2.1461  1.9834 -1.1243
   14MOL    H61 3987   1.212   0.337   4.570 -0.9455  1.2975  0.8262
   14MOL    C62 3988   1.142   0.283   4.376 -0.5736 -0.1619 -0.2781
   14MOL    O63 3989   1.262   0.212   4.368 -0.4282  0.0861  0.4239
   14MOL    C64 3990   1.350   0.219   4.260 -0.0379  0.1389 -0.1847
   14MOL    O65 3991   1.332   0.293   4.166  0.2767 -0.0574 -0.3527
   14MOL    C66 3992   1.471   0.134   4.270  0.6861 -0.2456 -0.4730
   14MOL    C67 3993   1.569   0.179   4.384  0.3482  0.1990 -0.0796
   14MOL    C68 3994   1.033   0.175   4.416  0.1837  0.2840 -0.7237
   14MOL    H69 3995   1.114   0.336   4.285 -0.8441 -0.0012 -0.0999
   14MOL    H70 3996   1.437   0.036   4.303 -2.3833  0.4604 -1.3271
   14MOL    H71 3997   1.512   0.108   4.172 -1.1122 -2.3658 -0.7006
   14MOL    H72 3998   1.646   0.102   4.387  0.1549 -0.0302 -0.8456
   14MOL    H73 3999   1.631   0.266   4.362  0.6056 -0.4030 -1.8190
   14MOL    H74 4000   1.522   0.200   4.480 -0.9181  1.3467 -0.9351
   14MOL    H75 4001   1.080   0.079   4.436 -1.5673 -0.8608 -2.0034
   14MOL    H76 4002   0.985   0.202   4.511  3.1644  1.3324  0.5452
   14MOL    C77 4003   0.914   0.151   4.321 -0.0580 -0.0750 -0.7063
   14MOL    O78 4004   0.810   0.250   4.345 -0.2257 -0.4088 -0.2354
   14MOL    C79 4005   0.726   0.237   4.451  0.0992 -0.2998  0.3265
   14MOL    O80 4006   0.734   0.153   4.540  0.4556  0.2177 -0.6167
   14MOL    C81 4007   0.609   0.334   4.444  0.5220  0.4161 -0.2015
   14MOL    C82 4008   0.516   0.285   4.332 -0.3477  1.3174 -0.4685
   14MOL    C83 4009   0.939   0.159   4.167  0.4283 -0.4166 -0.3916
   14MOL    H84 4010   0.887   0.048   4.345 -0.6762  0.4860  1.0503
   14MOL    H85 4011   0.556   0.333   4.539 -0.9491 -2.5834 -0.9960
   14MOL    H86 4012   0.643   0.437   4.434  0.1560  0.9251  3.1169
   14MOL    H87 4013   0.548   0.329   4.238  0.6793 -0.0488 -0.7580
   14MOL    H88 4014   0.517   0.177   4.322 -0.6651  1.1402  1.2576
   14MOL    H89 4015   0.413   0.317   4.351  0.4005  2.3818  2.1198
   14MOL    H90 4016   0.856   0.107   4.120  0.5093 -0.4165 -0.5380
   14MOL    H91 4017   0.936   0.263   4.133  1.0631 -0.8283 -1.7466
   14MOL    C92 4018   1.065   0.091   4.111 -0.6104 -0.1587  0.0685
   14MOL    O93 4019   1.041   7.897   4.142 -0.6055 -0.0816  0.3314
   14MOL    C94 4020   1.138   7.814   4.175 -0.4504 -0.2327 -0.0292
   14MOL    O95 4021   1.258   7.847   4.176 -0.3585  0.2405  0.1659
   14MOL    C96 4022   1.099   7.670   4.192  0.4515  0.0996  0.4854
   14MOL    C97 4023   1.101   7.572   4.070  0.0142  0.2382  0.1188
   14MOL    C98 4024   1.068   0.105   3.960  0.6233 -0.7650  1.0238
   14MOL    H99 4025   1.159   0.130   4.150 -1.0094  0.2901  0.5894
   14MOL   H100 4026   1.167   7.629   4.267  0.0267 -0.1146  0.7549
   14MOL   H101 4027   0.999   7.661   4.233 -0.5112 -1.1789 -1.9891
   14MOL   H102 4028   1.010   7.589   4.011  1.5493 -0.3351 -2.5100
   14MOL   H103 4029   1.183   7.582   3.999  0.0942  2.3432  0.4608
   14MOL   H104 4030   1.090   7.469   4.102 -2.4952  0.5344  0.3303
   14MOL   H105 4031   0.972   0.071   3.920  0.7709 -0.5462  0.4891
   14MOL   H106 4032   1.079   0.210   3.935  0.0311 -1.1887 -1.1348
   14MOL   C107 4033   1.174   0.027   3.880 -0.0031 -0.2215  0.0288
   14MOL   O108 4034   1.150   0.057   3.743  0.9418 -0.0892 -0.1238
   14MOL   C109 4035   1.100   7.909   3.655 -0.1425 -0.0130 -0.1360
   14MOL   O110 4036   1.072   7.796   3.690 -0.8412  0.2365 -0.3610
   14MOL   C111 4037   1.103   0.008   3.508  0.6058 -0.1234 -0.9348
   14MOL   C112 4038   1.216   0.106   3.478 -0.5452  0.6516  0.6353
   14MOL   C113 4039   1.323   0.060   3.911 -0.1914 -0.1046  0.3832
   14MOL   H114 4040   1.172   7.864   3.892 -0.0668 -0.2746 -0.4364
   14MOL   H115 4041   1.123   7.872   3.437  0.5766  0.2356 -1.3582
   14MOL   H116 4042   1.008   0.055   3.479  0.1755 -1.2403 -1.3847
   14MOL   H117 4043   1.196   0.202   3.527 -0.8438  1.1531 -0.4639
   14MOL   H118 4044   1.315   0.075   3.511 -0.6318 -1.4691 -0.9915
   14MOL   H119 4045   1.218   0.128   3.372 -0.3384  1.2908  0.7683
   14MOL   H120 4046   1.346   0.151   3.856 -1.7528  1.0832  1.6773
   14MOL   H121 4047   1.337   0.086   4.016 -1.3562  0.1591  0.4751
   14MOL   C122 4048   1.417   7.886   3.868  0.6665 -0.3131  0.2906
   14MOL   O123 4049   1.417   7.848   3.734  0.5809 -0.4954  0.0693
   14MOL   C124 4050   1.411   7.717   3.698 -0.0477 -0.3932 -0.1038
   14MOL   O125 4051   1.405   7.618   3.777 -0.1908 -0.3657 -0.0547
   14MOL   C126 4052   1.422   7.701   3.545  0.4366  0.1586 -0.0735
   14MOL   C127 4053   1.347   7.579   3.499  0.4124  0.7219  0.4735
   14MOL   C128 4054   1.560   7.902   3.927  0.2674 -0.4666  0.1838
   14MOL   H129 4055   1.366   7.803   3.917  0.3546  0.6174  1.5542
   14MOL   H130 4056   1.370   7.791   3.513  0.0894  0.6237  1.7847
   14MOL   H131 4057   1.528   7.692   3.523  0.2298 -1.2685 -0.6150
   14MOL   H132 4058   1.403   7.486   3.501 -0.2634  0.2793 -0.9471
   14MOL   H133 4059   1.256   7.577   3.558  2.2366  1.9745  3.5015
   14MOL   H134 4060   1.311   7.592   3.398 -0.4606  3.6649  1.1150
   14MOL   H135 4061   1.558   7.915   4.035  0.9852 -0.3437  0.1820
   14MOL   H136 4062   1.608   7.805   3.912  1.6999 -0.2306  2.9484
   14MOL   C137 4063   1.638   0.081   3.867 -0.2035 -0.3084  0.3339
   14MOL   O138 4064   1.754   0.107   3.946 -0.0706  0.0741 -0.1241
   14MOL   C139 4065   1.762   0.224   4.021 -0.2657  0.5044 -0.1725
   14MOL   O140 4066   1.691   0.324   3.996  0.4129  0.0281 -0.4832
   14MOL   C141 4067   1.874   0.225   4.126 -0.0405 -0.0727  0.1465
   14MOL   C142 4068   2.013   0.172   4.083  0.0527  0.6242 -0.4146
   14MOL   C143 4069   1.698   0.062   3.723  0.0309  0.4421 -0.2747
   14MOL   H144 4070   1.567   0.164   3.858  0.8833  0.5630 -0.2400
   14MOL   H145 4071   1.888   0.329   4.155  0.2857  0.4612 -1.8531
   14MOL   H146 4072   1.825   0.169   4.206  1.8052 -1.5838  0.2502
   14MOL   H147 4073   2.064   0.144   4.175 -1.4452  2.2528  0.9697
   14MOL   H148 4074   1.995   0.073   4.042 -0.6254 -0.5293  2.5352
   14MOL   H149 4075   2.073   0.237   4.020  1.7152 -0.2623  0.2186
   14MOL   H150 4076   1.755   7.915   3.730 -1.4492 -0.3438  2.0337
   14MOL   H151 4077   1.616   0.034   3.656  0.7580 -0.8526 -0.6430
   14MOL   C152 4078   1.790   0.175   3.670 -0.1569  0.2876 -0.5373
   14MOL   O153 4079   1.847   0.135   3.547 -0.5049 -0.5434 -0.3686
   14MOL   C154 4080   1.980   0.095   3.541 -0.4747 -0.6297  0.0340
   14MOL   O155 4081   2.052   0.082   3.646  0.3233 -0.4828  0.1819
   14MOL   C156 4082   2.037   0.061   3.405  0.5117  0.4337  0.5178
   14MOL   C157 4083   2.189   0.091   3.400  0.5917  0.3370 -0.0320
   14MOL   C158 4084   1.705   0.308   3.644 -0.8606 -0.2571  0.4390
   14MOL   H159 4085   1.860   0.201   3.749 -0.2725  2.6210 -1.1561
   14MOL   H160 4086   2.027   7.899   3.386 -1.0529  0.5009  0.8386
   14MOL   H161 4087   1.976   0.112   3.331 -1.5422 -0.5409  1.4820
   14MOL   H162 4088   2.244   0.060   3.488  0.6659  0.5394 -0.0088
   14MOL   H163 4089   2.242   0.042   3.318  0.4912  0.0874  0.0507
   14MOL   H164 4090   2.207   0.197   3.387 -1.0444  0.5491 -0.7459
   14MOL   H165 4091   1.625   0.280   3.576 -1.0518  1.1538  0.0741
   14MOL   H166 4092   1.648   0.337   3.733 -2.8434 -0.4528 -0.7344
   14MOL   C167 4093   1.792   0.434   3.602  0.3411 -0.5981  0.0516
   14MOL   O168 4094   1.913   0.458   3.678 -0.2127 -0.3434 -0.4290
   14MOL   C169 4095   1.897   0.529   3.795 -0.4653 -0.4054 -0.0361
   14MOL   O170 4096   1.810   0.614   3.819 -0.4671  0.0358 -0.1073
   14MOL   C171 4097   2.008   0.503   3.898 -0.1096  0.4179  1.0060
   14MOL   C172 4098   2.135   0.469   3.821  0.0910 -0.4523  0.3487
   14MOL   C173 4099   1.823   0.432   3.453 -0.2691 -0.3306  0.3868
   14MOL   H174 4100   1.728   0.522   3.615 -0.0932 -0.9588  0.3938
   14MOL   H175 4101   2.023   0.584   3.969 -0.3695 -1.6735  3.5225
   14MOL   H176 4102   1.988   0.414   3.957 -1.1298  0.6461  1.0244
   14MOL   H177 4103   2.218   0.451   3.889 -0.8791 -3.5418  0.8015
   14MOL   H178 4104   2.130   0.379   3.760 -1.3674  1.1137 -1.9429
   14MOL   H179 4105   2.162   0.547   3.750 -0.0654  0.5655  1.3898
   14MOL   H180 4106   1.896   0.510   3.430 -1.3589  0.9224  1.1132
   14MOL   H181 4107   1.868   0.337   3.422 -0.5869 -0.9356  1.7626
   14MOL   C182 4108   1.697   0.439   3.360  0.7360 -0.1378  0.9471
   14MOL   O183 4109   1.624   0.551   3.406 -0.0972 -0.3956 -0.4260
   14MOL   C184 4110   1.502   0.543   3.455  0.0970 -0.2259  0.0266
   14MOL   O185 4111   1.442   0.434   3.450  0.1264 -0.1335 -0.1382
   14MOL   C186 4112   1.436   0.670   3.518  0.6778  1.2221  0.4771
   14MOL   C187 4113   1.494   0.701   3.661 -0.3377 -0.0791  0.6481
   14MOL   C188 4114   1.716   0.468   3.208  0.1222 -0.4709 -0.0678
   14MOL   H189 4115   1.651   0.342   3.377 -1.1773  0.1902 -2.0072
   14MOL   H190 4116   1.449   0.754   3.449  1.8269 -0.7320 -1.7830
   14MOL   H191 4117   1.327   0.660   3.524  0.8587 -1.5071  0.0660
   14MOL   H192 4118   1.434   0.788   3.691 -1.9534 -0.3603 -1.6399
   14MOL   H193 4119   1.470   0.621   3.731  0.1631 -1.1061 -0.3429
   14MOL   H194 4120   1.596   0.740   3.664 -0.2363 -0.3095  0.1454
   14MOL   H195 4121   1.716   0.576   3.192 -2.6418 -0.4312  0.0081
   14MOL   H196 4122   1.814   0.429   3.181 -0.7054 -1.1222 -2.2450
   14MOL   C197 4123   1.625   0.399   3.101  0.6773  0.9920  0.0408
   14MOL   O198 4124   1.492   0.458   3.111 -0.9706 -0.0985 -0.7140
   14MOL   C199 4125   1.385   0.384   3.142 -0.2730  0.5718  0.0067
   14MOL   O200 4126   1.380   0.262   3.150  0.1547  0.2178  0.2370
   14MOL   C201 4127   1.263   0.458   3.174 -0.2177 -0.2850 -0.0414
   14MOL   C202 4128   1.163   0.459   3.066 -0.1590  0.6054  1.1701
   14MOL   C203 4129   1.681   0.426   2.963 -0.2390 -0.3422  0.2345
   14MOL   H204 4130   1.633   0.292   3.118  0.1826  1.2130  1.8121
   14MOL   H205 4131   1.208   0.433   3.265 -1.4788 -0.6681 -0.8969
   14MOL   H206 4132   1.293   0.562   3.182 -1.0708 -0.0154 -0.3234
   14MOL   H207 4133   1.089   0.537   3.084  1.9309  3.0623 -0.4306
   14MOL   H208 4134   1.216   0.476   2.972 -2.0132 -1.3102 -0.2841
   14MOL   H209 4135   1.117   0.360   3.061  0.3753  0.3977  0.1987
   14MOL   H210 4136   1.686   0.534   2.965  0.5225 -0.4006  2.1000
   14MOL   H211 4137   1.784   0.395   2.948 -0.7201 -1.4682 -0.8349
   14MOL   C212 4138   1.597   0.360   2.845 -0.3381  1.0924 -0.5180
   14MOL   O213 4139   1.620   0.419   2.719 -0.7895 -0.5036  0.2546
   14MOL   C214 4140   1.528   0.503   2.669 -0.3616  0.4454  0.2406
   14MOL   O215 4141   1.417   0.524   2.718 -0.0917 -0.2911 -0.8175
   14MOL   C216 4142   1.579   0.577   2.552 -0.2863  0.6914 -0.0153
   14MOL   C217 4143   1.499   0.561   2.429  0.3944  0.6949 -0.1017
   14MOL   C218 4144   1.631   0.211   2.818  0.3629 -0.2492  0.4293
   14MOL   H219 4145   1.491   0.366   2.870 -0.5034 -1.1155 -0.5578
   14MOL   H220 4146   1.589   0.683   2.575 -1.4651  0.7129  0.4443
   14MOL   H221 4147   1.678   0.542   2.525 -0.5123  0.1369 -0.1336
   14MOL   H222 4148   1.485   0.459   2.391 -0.9069  0.6981  0.3442
   14MOL   H223 4149   1.396   0.587   2.449  0.0181 -1.2933  0.7066
   14MOL   H224 4150   1.540   0.621   2.348  1.4150 -2.4412 -2.0081
   14MOL   H225 4151   1.691   0.184   2.731  1.6700 -1.1347  1.6019
   14MOL   H226 4152   1.697   0.174   2.896  1.2373 -0.9726 -0.6263
   14MOL   C227 4153   1.509   0.122   2.807 -0.0236  0.0209 -0.5318
   14MOL   O228 4154   1.437   0.162   2.692  0.2245 -0.8181 -0.2626
   14MOL   C229 4155   1.306   0.193   2.700 -0.3673 -0.1288  0.2766
   14MOL   O230 4156   1.242   0.202   2.808 -0.0760 -0.4676  0.4932
   14MOL   C231 4157   1.252   0.228   2.558 -0.2321  0.1813  0.5497
   14MOL   C232 4158   1.268   0.114   2.455  0.0045  0.0981  0.3843
   14MOL   C233 4159   1.563   7.922   2.783  0.1660 -0.0688 -0.0042
   14MOL   H234 4160   1.450   0.120   2.898 -0.7986  0.6757 -1.0065
   14MOL   H235 4161   1.148   0.254   2.582 -0.5866 -0.7974  0.0824
   14MOL   H236 4162   1.289   0.325   2.524  1.9347 -1.6985 -2.6721
   14MOL   H237 4163   1.331   0.029   2.482 -0.0977 -0.3687 -0.7983
   14MOL   H238 4164   1.172   0.064   2.437  0.9905 -2.2818  1.4659
   14MOL   H239 4165   1.299   0.171   2.367 -1.4406  1.3117  0.6518
   14MOL   H240 4166   1.584   7.912   2.677  2.2975  0.9363  0.2958
   14MOL   H241 4167   1.649   7.918   2.850  0.2854  2.5074  0.0290
   14MOL   C242 4168   1.462   7.812   2.833  0.2664 -0.0725  0.2044
   14MOL   O243 4169   1.355   7.819   2.738  0.0144  0.2502 -0.2818
   14MOL   C244 4170   1.236   7.757   2.764 -0.0494 -0.3545  0.2399
   14MOL   O245 4171   1.219   7.681   2.865  0.4312 -0.8703  0.7266
   14MOL   C246 4172   1.124   7.785   2.664 -0.0237  0.6701  0.6357
   14MOL   C247 4173   1.144   7.723   2.525  0.6866  0.1540 -0.5230
   14MOL   C248 4174   1.522   7.670   2.831  0.7625  0.0705 -0.1156
   14MOL   H249 4175   1.430   7.834   2.935 -0.5215  0.4782 -0.1598
   14MOL   H250 4176   1.035   7.744   2.712 -0.0704 -1.2825 -1.0495
   14MOL   H251 4177   1.101   7.889   2.644  0.3068  0.2872 -1.8978
   14MOL   H252 4178   1.154   7.615   2.527  1.8777  0.2604  0.2215
   14MOL   H253 4179   1.067   7.751   2.453 -1.3763 -2.6388  0.5524
   14MOL   H254 4180   1.238   7.756   2.480  0.5691 -3.2994 -3.5377
   14MOL   H255 4181   1.444   7.600   2.861  1.3832 -0.4102  0.3617
   14MOL   H256 4182   1.560   7.631   2.737  1.2401 -0.1031  0.1488
   14MOL   C257 4183   1.634   7.639   2.939  0.6280 -0.1908  0.3159
   14MOL   O258 4184   1.594   7.696   3.067  0.0917  0.3433 -0.1136
   14MOL   C259 4185   1.664   7.784   3.126  0.3599 -0.1546  0.0266
   14MOL   O260 4186   1.769   7.842   3.087  0.5066  0.2544  0.5833
   14MOL   C261 4187   1.606   7.818   3.260 -0.6651 -0.2259 -0.1594
   14MOL   C262 4188   1.466   7.886   3.253  0.2694 -0.8342 -0.4284
   14MOL   C263 4189   1.647   7.489   2.961  1.1376 -0.1850  0.0598
   14MOL   H264 4190   1.729   7.673   2.898  0.0288 -1.8977 -2.5781
   14MOL   H265 4191   1.606   7.726   3.317 -2.7236 -0.4188 -0.4299
   14MOL   H266 4192   1.675   7.895   3.294  1.4022 -2.0519 -0.1016
   14MOL   H267 4193   1.455   0.002   3.163 -0.1227  0.4418  0.4617
   14MOL   H268 4194   1.384   7.816   3.240 -1.5656  1.5283 -2.0215
   14MOL   H269 4195   1.452   0.013   3.334  0.7790 -0.6728 -0.4809
   14MOL   H270 4196   1.554   7.463   3.011  1.4074 -1.4872 -0.0985
   14MOL   H271 4197   1.644   7.429   2.869 -0.7987 -1.8829  1.1916
   14MOL   C272 4198   1.763   7.453   3.056  0.2558 -0.6414 -0.1427
   14MOL   O273 4199   1.741   7.321   3.108 -0.1055 -0.4324 -0.1006
   14MOL   C274 4200   1.695   7.299   3.234  0.2512  0.4123 -0.6113
   14MOL   O275 4201   1.662   7.381   3.315 -0.6432 -0.0733 -0.0740
   14MOL   C276 4202   1.694   7.148   3.269 -0.0991 -0.0009 -0.4261
   14MOL   C277 4203   1.611   7.073   3.156  0.0007 -0.7083 -0.2011
   14MOL   C278 4204   1.903   7.454   2.992 -0.0236  0.2396 -0.1966
   14MOL   H279 4205   1.769   7.515   3.145 -1.5181 -0.4635 -0.1135
   14MOL   H280 4206   1.791   7.102   3.287 -0.5632 -0.5303  0.8012
   14MOL   H281 4207   1.644   7.132   3.365  0.9324  2.1294  0.4841
   14MOL   H282 4208   1.672   7.037   3.074  1.3728  0.8582  0.1173
   14MOL   H283 4209   1.549   6.997   3.205 -0.0669 -0.6116 -0.1354
   14MOL   H284 4210   1.540   7.144   3.113 -1.3697 -1.6907  0.3659
   14MOL   H285 4211   1.912   7.357   2.944 -3.2111  1.3929 -3.4035
   14MOL   H286 4212   1.921   7.522   2.909  1.0798 -1.2724 -1.2137
   14MOL   C287 4213   2.010   7.468   3.095  0.4037 -0.2104  0.1531
   14MOL   O288 4214   2.132   7.413   3.058 -0.1157 -0.0847  0.2219
   14MOL   C289 4215   2.156   7.283   3.064 -0.6160 -0.1913  0.7870
   14MOL   O290 4216   2.076   7.198   3.108 -0.6053  0.0484  0.2646
   14MOL   C291 4217   2.289   7.236   3.005 -1.1834  0.5883  0.6045
   14MOL   C292 4218   2.399   7.255   3.108 -0.4667 -0.0711  0.2677
   14MOL   C293 4219   2.051   7.614   3.112 -0.6947 -0.5749 -0.2294
   14MOL   H294 4220   1.975   7.426   3.189  0.5199  0.6587  0.5932
   14MOL   H295 4221   2.281   7.130   2.982 -0.7793  1.0327 -1.6192
   14MOL   H296 4222   2.308   7.286   2.910 -0.9691 -0.6579 -0.0163
   14MOL   H297 4223   2.413   7.349   3.161  2.0277 -0.3406  0.1130
   14MOL   H298 4224   2.377   7.187   3.191  2.8073  1.6342  2.6478
   14MOL   H299 4225   2.498   7.231   3.070 -0.6169 -0.0765 -0.1209
   14MOL   H300 4226   2.091   7.660   3.021 -0.3445  1.2131  0.8054
   14MOL   H301 4227   1.962   7.673   3.134  1.3465  1.8735  1.8013
   14MOL   H302 4228   2.127   7.626   3.189 -1.6619 -4.1221  1.3768
   15MOL     C1 4229   6.534   3.599   3.177  0.2684 -0.2945 -0.0000
   15MOL     O2 4230   6.538   3.456   3.184  0.2717  0.7210  0.2288
   15MOL     C3 4231   6.632   3.391   3.121 -0.5938 -0.0579 -0.0462
   15MOL     O4 4232   6.721   3.440   3.050 -0.3981  0.0852 -0.3153
   15MOL     C5 4233   6.628   3.242   3.146 -0.5395  0.1859 -0.4603
   15MOL     C6 4234   6.503   3.188   3.082  0.0983 -0.4354  0.1773
   15MOL     C7 4235   6.442   3.638   3.052  0.0413  1.0446  0.0508
   15MOL     H8 4236   6.630   3.650   3.171 -0.4297  0.8310 -2.1923
   15MOL     H9 4237   6.714   3.193   3.101  0.4242  0.1779  1.3462
   15MOL    H10 4238   6.632   3.230   3.254 -2.6521 -0.8750 -0.4812
   15MOL    H11 4239   6.508   3.082   3.060 -2.7723 -0.8338  1.1574
   15MOL    H12 4240   6.426   3.204   3.158 -1.5992 -1.3538 -1.2973
   15MOL    H13 4241   6.458   3.237   2.995  1.1766  1.4835  0.6701
   15MOL    H14 4242   6.467   3.583   2.961 -1.0976 -1.2827  1.1009
   15MOL    H15 4243   6.339   3.606   3.069 -0.4318  1.1196 -2.5110
   15MOL    H16 4244   6.499   3.646   3.269  3.0327  0.6908  0.5993
   15MOL    C17 4245   6.461   3.792   3.019  0.6843 -0.2235  0.3317
   15MOL    O18 4246   6.599   3.823   3.003  0.0587 -0.1491 -0.3150
   15MOL    C19 4247   6.671   3.884   3.103  0.7553 -0.5031 -0.4570
   15MOL    O20 4248   6.625   3.924   3.206  0.1930 -0.9132  0.2632
   15MOL    C21 4249   6.819   3.913   3.056 -0.2646  0.0636  0.6015
   15MOL    C22 4250   6.885   3.790   2.987 -0.1200 -0.8548  0.3520
   15MOL    C23 4251   6.377   3.825   2.888  0.2933  0.3407 -0.1452
   15MOL    H24 4252   6.417   3.845   3.103 -0.1180  0.1505 -0.3163
   15MOL    H25 4253   6.808   4.004   2.997 -1.0222 -0.4410 -0.0513
   15MOL    H26 4254   6.886   3.926   3.141  0.7272 -0.6687 -0.0581
   15MOL    H27 4255   6.852   3.703   3.044 -0.5900 -2.7723 -2.7961
   15MOL    H28 4256   6.855   3.782   2.883 -1.1070  0.1987  0.5369
   15MOL    H29 4257   6.993   3.797   2.993 -0.0459  0.2128 -1.6818
   15MOL    H30 4258   6.433   3.800   2.798 -1.0911 -2.4664 -0.2845
   15MOL    H31 4259   6.288   3.762   2.896  0.5317  0.3470  2.9944
   15MOL    C32 4260   6.333   3.973   2.881  0.1713 -0.4020 -0.1046
   15MOL    O33 4261   6.446   4.046   2.820 -0.1491 -0.2000  0.1423
   15MOL    C34 4262   6.487   4.165   2.861  0.6385  0.1926 -0.0320
   15MOL    O35 4263   6.440   4.233   2.952  0.6443  0.5194 -0.4132
   15MOL    C36 4264   6.602   4.216   2.779  0.0358  0.5379  0.0989
   15MOL    C37 4265   6.604   4.370   2.756 -0.2993  0.0629 -0.4190
   15MOL    C38 4266   6.207   3.984   2.794 -0.1065  0.3807  0.5481
   15MOL    H39 4267   6.308   4.015   2.978  0.0257  0.7917 -0.6426
   15MOL    H40 4268   6.701   4.195   2.818  1.5367 -0.1994 -3.8334
   15MOL    H41 4269   6.596   4.177   2.677 -2.1999  2.8317 -0.6868
   15MOL    H42 4270   6.511   4.413   2.718  0.9563  0.7563 -2.8303
   15MOL    H43 4271   6.615   4.416   2.854  1.4882 -0.7868 -0.2009
   15MOL    H44 4272   6.687   4.397   2.691 -1.8931  0.9852 -2.1421
   15MOL    H45 4273   6.230   3.938   2.698  1.3691 -2.3727  2.1873
   15MOL    H46 4274   6.121   3.922   2.820 -0.9885  0.5699 -1.8141
   15MOL    C47 4275   6.164   4.128   2.779  0.0212  0.8655  0.2617
   15MOL    O48 4276   6.065   4.120   2.676  0.0081 -0.3634  0.0624
   15MOL    C49 4277   6.087   4.144   2.546  0.0174 -0.4267 -0.6718
   15MOL    O50 4278   6.204   4.151   2.501  0.5200  0.6628  0.4833
   15MOL    C51 4279   5.963   4.184   2.468  0.0522  0.0445 -0.3503
   15MOL    C52 4280   5.891   4.055   2.438  1.3123 -0.5870  0.1485
   15MOL    C53 4281   6.100   4.193   2.907  0.1598 -0.1595 -0.4774
   15MOL    H54 4282   6.248   4.190   2.748  1.4166  0.3012  2.7750
   15MOL    H55 4283   5.910   4.245   2.542  1.9431 -0.4935  1.4807
   15MOL    H56 4284   5.995   4.246   2.384  0.7581  1.7963  1.1682
   15MOL    H57 4285   5.953   3.986   2.381  2.1776 -1.0678  1.6387
   15MOL    H58 4286   5.852   4.009   2.528  0.5271  2.3831  1.4067
   15MOL    H59 4287   5.809   4.082   2.370  3.7043  2.1611 -1.7741
   15MOL    H60 4288   6.012   4.140   2.943 -0.2746  0.9578  0.1179
   15MOL    H61 4289   6.177   4.176   2.982  0.7252  1.3487 -0.7105
   15MOL    C62 4290   6.067   4.342   2.896 -0.8613  0.2417  0.6200
   15MOL    O63 4291   5.942   4.358   2.829 -0.0546  0.2428  0.1542
   15MOL    C64 4292   5.939   4.437   2.719 -0.9051  0.8889 -0.0574
   15MOL    O65 4293   6.040   4.482   2.662  0.5554  0.2143 -0.0708
   15MOL    C66 4294   5.796   4.449   2.664 -0.7484 -0.1319  0.5284
   15MOL    C67 4295   5.721   4.569   2.716 -0.1171 -0.3948 -0.1407
   15MOL    C68 4296   6.070   4.415   3.032  0.4054  0.5039  0.0461
   15MOL    H69 4297   6.149   4.388   2.841  0.8525  0.6096  3.4441
   15MOL    H70 4298   5.796   4.459   2.555 -1.0180 -1.7269  0.3655
   15MOL    H71 4299   5.743   4.357   2.687  0.1054 -0.9498 -0.6984
   15MOL    H72 4300   5.755   4.663   2.674 -0.0033 -0.3992 -0.0593
   15MOL    H73 4301   5.615   4.564   2.694 -0.2991 -0.3182  0.6966
   15MOL    H74 4302   5.730   4.571   2.825  2.2559 -4.2859 -0.1639
   15MOL    H75 4303   5.998   4.496   3.045  1.4853  1.9520 -2.5277
   15MOL    H76 4304   6.044   4.340   3.107  0.6595  0.2094 -0.1622
   15MOL    C77 4305   6.211   4.481   3.063  0.6103 -0.2387  0.9059
   15MOL    O78 4306   6.237   4.581   2.967 -0.1625  0.6685  0.0101
   15MOL    C79 4307   6.359   4.608   2.923 -0.1135 -0.4947 -0.1323
   15MOL    O80 4308   6.457   4.561   2.980 -0.1921  0.7929 -0.1323
   15MOL    C81 4309   6.369   4.687   2.796  0.0030 -0.5507 -0.0289
   15MOL    C82 4310   6.397   4.835   2.812 -0.2884  0.4569 -0.2898
   15MOL    C83 4311   6.217   4.560   3.200 -0.1535 -0.1457 -0.4975
   15MOL    H84 4312   6.289   4.405   3.059 -0.7997 -1.6201 -1.7013
   15MOL    H85 4313   6.445   4.636   2.736 -0.3984  0.2975 -1.2778
   15MOL    H86 4314   6.268   4.681   2.756 -0.4874  2.9781  0.5690
   15MOL    H87 4315   6.321   4.872   2.881  0.9783  3.5620 -0.4846
   15MOL    H88 4316   6.496   4.860   2.850 -0.2736 -0.8023  0.5257
   15MOL    H89 4317   6.386   4.901   2.726 -1.5755  1.3236  0.5115
   15MOL    H90 4318   6.317   4.601   3.212  0.8818 -2.4871 -0.8001
   15MOL    H91 4319   6.147   4.643   3.197  1.5193  1.2940 -0.6364
   15MOL    C92 4320   6.194   4.480   3.326  0.2556 -0.2165  0.4418
   15MOL    O93 4321   6.309   4.394   3.342 -0.6722 -0.0147  0.2374
   15MOL    C94 4322   6.325   4.277   3.282  0.2627  0.7687 -0.8749
   15MOL    O95 4323   6.245   4.221   3.215  0.1964  0.2922 -0.6695
   15MOL    C96 4324   6.462   4.214   3.307  0.1816 -0.5780 -0.7328
   15MOL    C97 4325   6.573   4.296   3.247 -0.2424  0.1808  0.0873
   15MOL    C98 4326   6.192   4.566   3.454  0.1801 -0.1417 -0.0191
   15MOL    H99 4327   6.108   4.413   3.320 -1.4410  1.7791  1.6086
   15MOL   H100 4328   6.492   4.201   3.411  2.3128 -1.8056 -1.4778
   15MOL   H101 4329   6.471   4.110   3.276 -0.9738 -1.2921  1.2145
   15MOL   H102 4330   6.535   4.373   3.181  2.3549  3.2812  2.0712
   15MOL   H103 4331   6.635   4.331   3.329 -0.9858  2.4862 -0.3002
   15MOL   H104 4332   6.634   4.227   3.188  1.2658  1.2471  0.3659
   15MOL   H105 4333   6.290   4.598   3.488  0.5243  0.7791 -1.7933
   15MOL   H106 4334   6.151   4.663   3.425  2.8349  1.3059  0.9257
   15MOL   C107 4335   6.122   4.493   3.575  1.3261 -0.0156 -0.6177
   15MOL   O108 4336   6.218   4.413   3.639 -0.5686  0.4857 -0.4020
   15MOL   C109 4337   6.188   4.286   3.670  0.5061 -0.5941 -0.1473
   15MOL   O110 4338   6.082   4.228   3.642 -0.0285  0.4897  0.1324
   15MOL   C111 4339   6.302   4.213   3.744 -0.6684 -0.2414  0.3296
   15MOL   C112 4340   6.356   4.281   3.873 -0.1436  0.1503  0.5408
   15MOL   C113 4341   6.071   4.594   3.681  0.0298  0.6152 -0.4848
   15MOL   H114 4342   6.036   4.432   3.547 -0.9837  1.7072  2.3034
   15MOL   H115 4343   6.267   4.111   3.763 -1.1114 -0.6114 -2.3397
   15MOL   H116 4344   6.388   4.206   3.677  0.2389 -3.3098  1.7172
   15MOL   H117 4345   6.277   4.318   3.938  0.7543 -0.1720  1.8474
   15MOL   H118 4346   6.433   4.223   3.924 -0.0901 -1.0825 -0.9200
   15MOL   H119 4347   6.418   4.370   3.856  0.7448 -0.5757 -0.0505
   15MOL   H120 4348   6.055   4.554   3.782 -1.5133  0.9091 -0.6015
   15MOL   H121 4349   6.156   4.658   3.701  0.0626  0.3770  0.1738
   15MOL   C122 4350   5.941   4.662   3.634 -0.3548 -0.3630 -0.1359
   15MOL   O123 4351   5.838   4.561   3.624 -0.0495 -0.2529 -0.3629
   15MOL   C124 4352   5.757   4.541   3.513  0.2864 -0.3578  0.5911
   15MOL   O125 4353   5.742   4.617   3.421  0.8265 -0.2649  0.3768
   15MOL   C126 4354   5.682   4.409   3.516 -0.2824 -0.2333 -0.2177
   15MOL   C127 4355   5.747   4.289   3.585  0.2739 -0.4951  0.4755
   15MOL   C128 4356   5.882   4.785   3.716 -0.8920  0.7508  0.2707
   15MOL   H129 4357   5.963   4.698   3.534  0.6439 -0.3833  0.0627
   15MOL   H130 4358   5.589   4.434   3.566 -0.6311 -1.4051 -0.2572
   15MOL   H131 4359   5.654   4.382   3.415 -0.4783 -1.4739  0.1590
   15MOL   H132 4360   5.723   4.196   3.532  0.4307 -0.6187  0.6197
   15MOL   H133 4361   5.856   4.291   3.579  0.2515  1.4699  0.5326
   15MOL   H134 4362   5.710   4.277   3.687 -1.2633  1.6231  0.1982
   15MOL   H135 4363   5.797   4.823   3.659 -0.2544  0.1702 -1.0743
   15MOL   H136 4364   5.854   4.741   3.811  1.8644  0.3180  0.9243
   15MOL   C137 4365   5.976   4.898   3.742  0.3919  0.0996 -0.1610
   15MOL   O138 4366   5.986   4.983   3.629  0.0110  0.1492 -0.5337
   15MOL   C139 4367   6.082   4.972   3.528 -0.2540  0.4692  0.3268
   15MOL   O140 4368   6.181   4.900   3.523  0.5822  0.7363 -0.3719
   15MOL   C141 4369   6.052   5.061   3.400 -0.0549  0.9189  0.3844
   15MOL   C142 4370   5.930   5.008   3.324  0.0423 -0.0005 -0.4279
   15MOL   C143 4371   5.915   4.976   3.861  0.1793 -0.1869  0.5950
   15MOL   H144 4372   6.075   4.856   3.761  0.2504  0.1345  0.6858
   15MOL   H145 4373   6.038   5.159   3.446 -1.3228  1.1788 -0.5393
   15MOL   H146 4374   6.138   5.070   3.334  0.4719  0.2467  0.9649
   15MOL   H147 4375   5.934   4.911   3.275 -0.8017  0.8686 -2.2703
   15MOL   H148 4376   5.845   4.996   3.391 -0.2310 -2.6389 -1.1953
   15MOL   H149 4377   5.904   5.075   3.242  0.0810 -1.8823 -2.0195
   15MOL   H150 4378   5.811   5.004   3.843  0.7000  0.8923 -0.8717
   15MOL   H151 4379   5.911   4.901   3.940  0.6153 -0.0588  0.7354
   15MOL   C152 4380   5.992   5.102   3.905 -0.0913  0.1357 -0.9442
   15MOL   O153 4381   5.923   5.208   3.834 -0.5136 -0.2821 -0.0477
   15MOL   C154 4382   5.994   5.280   3.747 -0.2127 -0.1324 -0.5760
   15MOL   O155 4383   6.115   5.290   3.735 -0.5215 -0.5473  0.3968
   15MOL   C156 4384   5.896   5.369   3.664 -0.3104 -0.6700 -1.2252
   15MOL   C157 4385   5.920   5.517   3.703  0.0472  0.3944  0.1108
   15MOL   C158 4386   5.988   5.126   4.061  0.4193  0.2245 -0.9998
   15MOL   H159 4387   6.097   5.093   3.879  0.5978  2.4739  0.8780
   15MOL   H160 4388   5.902   5.346   3.558  0.0547  1.6244 -1.7445
   15MOL   H161 4389   5.792   5.357   3.694 -0.1229  1.7157  0.5049
   15MOL   H162 4390   5.952   5.520   3.807 -1.0512  0.1894  0.4545
   15MOL   H163 4391   6.001   5.560   3.644  3.1451 -1.2368  2.9602
   15MOL   H164 4392   5.831   5.579   3.695 -0.6556 -0.6588 -0.2339
   15MOL   H165 4393   5.893   5.111   4.112  0.8873 -1.0195 -0.4830
   15MOL   H166 4394   6.045   5.044   4.104  1.6189  1.6879  0.2828
   15MOL   C167 4395   6.048   5.255   4.123 -0.0497 -0.0498  0.5225
   15MOL   O168 4396   6.048   5.234   4.267 -0.0826  0.2588  0.2418
   15MOL   C169 4397   6.008   5.333   4.355  0.2323  0.1609  0.4712
   15MOL   O170 4398   5.966   5.443   4.322  0.1883 -0.7707 -0.1835
   15MOL   C171 4399   6.032   5.287   4.499  0.2911  0.3256 -0.1305
   15MOL   C172 4400   6.181   5.278   4.531  0.0530 -0.3538 -0.4609
   15MOL   C173 4401   6.191   5.265   4.075 -0.2868 -0.1756 -0.2524
   15MOL   H174 4402   5.980   5.336   4.095 -0.4667 -0.6554 -0.1970
   15MOL   H175 4403   5.974   5.360   4.555  0.5925  1.2344 -0.9870
   15MOL   H176 4404   5.990   5.190   4.523  0.5154  0.1495 -0.4414
   15MOL   H177 4405   6.201   5.283   4.638 -1.6920 -1.0114 -0.0885
   15MOL   H178 4406   6.225   5.186   4.492  3.1207  1.0482 -0.5010
   15MOL   H179 4407   6.228   5.358   4.473  1.3976 -0.6333  0.2091
   15MOL   H180 4408   6.250   5.185   4.120  1.1741  0.5284 -0.8844
   15MOL   H181 4409   6.204   5.260   3.966 -1.2358  0.6515 -0.4155
   15MOL   C182 4410   6.257   5.401   4.108  0.1143 -0.0442 -0.1785
   15MOL   O183 4411   6.396   5.396   4.085 -0.3837  0.1176 -0.4282
   15MOL   C184 4412   6.482   5.351   4.187  0.8828 -0.3990  0.1285
   15MOL   O185 4413   6.457   5.338   4.307  0.2719 -0.1414  0.2990
   15MOL   C186 4414   6.622   5.323   4.140 -1.2656  0.9276  0.2267
   15MOL   C187 4415   6.722   5.294   4.252  0.2484  0.0873  0.4443
   15MOL   C188 4416   6.194   5.516   4.025 -0.1137 -0.5527 -0.2244
   15MOL   H189 4417   6.231   5.422   4.212 -2.0699 -0.8619 -0.5381
   15MOL   H190 4418   6.619   5.240   4.070  0.1969  0.7080  0.4156
   15MOL   H191 4419   6.659   5.410   4.086  0.6447  0.0377  0.0838
   15MOL   H192 4420   6.731   5.389   4.305 -1.7986  0.0375  0.8930
   15MOL   H193 4421   6.684   5.215   4.317  0.0999 -0.6304 -0.5041
   15MOL   H194 4422   6.823   5.268   4.219 -0.0957  1.9632 -2.2761
   15MOL   H195 4423   6.220   5.489   3.923 -0.9494 -1.1677 -0.2858
   15MOL   H196 4424   6.090   5.508   4.056  0.2815 -2.8125  0.5864
   15MOL   C197 4425   6.246   5.655   4.059  0.8360  0.2113 -0.9696
   15MOL   O198 4426   6.192   5.743   3.961 -0.0560 -0.1779  0.1696
   15MOL   C199 4427   6.272   5.794   3.870  0.5386  0.1473  0.1353
   15MOL   O200 4428   6.394   5.776   3.859 -0.0062  0.7287  0.5974
   15MOL   C201 4429   6.210   5.906   3.784  0.4420  0.1411 -0.2174
   15MOL   C202 4430   6.174   6.031   3.861 -0.2014  0.4051  0.0440
   15MOL   C203 4431   6.197   5.710   4.196  0.3421  0.7335  0.1801
   15MOL   H204 4432   6.354   5.646   4.065  0.7792 -0.7759 -1.2855
   15MOL   H205 4433   6.282   5.933   3.707 -0.6272  1.3389 -0.7997
   15MOL   H206 4434   6.127   5.861   3.730  0.5010 -1.8070  1.2121
   15MOL   H207 4435   6.076   6.028   3.909  0.1252 -2.4791  0.6055
   15MOL   H208 4436   6.251   6.053   3.934 -0.2089  1.0689 -0.1433
   15MOL   H209 4437   6.178   6.113   3.789  0.9181 -0.6724 -1.1465
   15MOL   H210 4438   6.135   5.800   4.190  0.3563  0.7858  0.7531
   15MOL   H211 4439   6.140   5.637   4.254 -0.7800  1.8265  0.4916
   15MOL   C212 4440   6.314   5.752   4.285 -0.2078  0.0246 -0.5030
   15MOL   O213 4441   6.377   5.862   4.232  0.1153 -0.4659  0.4103
   15MOL   C214 4442   6.515   5.863   4.219  0.1187 -0.1940  0.3348
   15MOL   O215 4443   6.588   5.780   4.249 -0.6350  0.3132  0.1627
   15MOL   C216 4444   6.568   5.995   4.165  0.3539  0.0274 -0.5380
   15MOL   C217 4445   6.565   6.104   4.272  0.6708  0.7839  1.0110
   15MOL   C218 4446   6.258   5.787   4.426  0.0094 -0.7844 -0.2616
   15MOL   H219 4447   6.384   5.670   4.277  2.8882  2.4898  0.4477
   15MOL   H220 4448   6.661   5.998   4.109  1.6621  0.9234  1.6205
   15MOL   H221 4449   6.488   6.019   4.094  0.4326  0.3709 -0.5122
   15MOL   H222 4450   6.578   6.060   4.370 -0.2265  0.0722  0.8069
   15MOL   H223 4451   6.633   6.190   4.266  1.2926  0.2601  0.3264
   15MOL   H224 4452   6.467   6.150   4.276 -0.6903 -2.0891  1.7707
   15MOL   H225 4453   6.217   5.887   4.416  0.1482 -0.6401  0.5315
   15MOL   H226 4454   6.174   5.720   4.447  0.9592 -1.9478 -0.0953
   15MOL   C227 4455   6.367   5.794   4.531 -0.5609  0.6853 -0.1511
   15MOL   O228 4456   6.308   5.856   4.643 -0.1999  0.1188 -0.1564
   15MOL   C229 4457   6.360   5.962   4.714  0.0562  0.4609  0.1823
   15MOL   O230 4458   6.477   6.007   4.711  0.0920 -0.1348  0.1535
   15MOL   C231 4459   6.245   6.024   4.804 -0.7864  0.5156  0.2371
   15MOL   C232 4460   6.284   6.148   4.892 -0.4592 -0.5215 -0.7968
   15MOL   C233 4461   6.414   5.654   4.569 -0.3146 -0.7446 -0.5023
   15MOL   H234 4462   6.441   5.855   4.479  2.5491 -0.9831  2.1616
   15MOL   H235 4463   6.157   6.045   4.743 -1.2223 -1.3865  0.1658
   15MOL   H236 4464   6.210   5.941   4.866  2.0302 -0.9890 -0.0914
   15MOL   H237 4465   6.379   6.124   4.940 -0.3146  0.4512 -0.5801
   15MOL   H238 4466   6.312   6.237   4.836  2.3642 -0.1715  1.0514
   15MOL   H239 4467   6.209   6.172   4.966  0.3035  1.5277 -0.6592
   15MOL   H240 4468   6.324   5.616   4.618 -0.8977 -0.1223 -1.0896
   15MOL   H241 4469   6.425   5.600   4.475  0.6710  1.0756 -1.4555
   15MOL   C242 4470   6.543   5.635   4.648 -0.2077  0.3837  0.5884
   15MOL   O243 4471   6.580   5.503   4.657 -0.3162  0.2844 -0.0778
   15MOL   C244 4472   6.533   5.416   4.758 -0.5813 -0.2200  0.2506
   15MOL   O245 4473   6.441   5.439   4.836 -0.7383  0.0688  0.2016
   15MOL   C246 4474   6.596   5.277   4.751 -0.2487 -0.3837  0.6936
   15MOL   C247 4475   6.597   5.222   4.610  0.3798 -0.9992 -0.2069
   15MOL   C248 4476   6.666   5.718   4.600  0.4444 -0.6584  0.8158
   15MOL   H249 4477   6.529   5.671   4.750 -0.8050 -3.2196  1.8228
   15MOL   H250 4478   6.701   5.284   4.778 -0.3313 -0.2661  0.9905
   15MOL   H251 4479   6.549   5.213   4.826  2.1674 -1.1323  1.5877
   15MOL   H252 4480   6.497   5.238   4.570  1.0431  1.1291 -1.1096
   15MOL   H253 4481   6.661   5.277   4.541  2.8725 -0.7775  2.2337
   15MOL   H254 4482   6.615   5.115   4.608 -0.1483 -1.1504  2.2563
   15MOL   H255 4483   6.710   5.665   4.515 -0.7720  2.9876 -2.1811
   15MOL   H256 4484   6.643   5.817   4.562 -0.2341 -0.9137  0.5691
   15MOL   C257 4485   6.796   5.732   4.688 -0.1879  0.5663 -0.6101
   15MOL   O258 4486   6.893   5.802   4.613  0.0234 -1.0332  0.4601
   15MOL   C259 4487   7.023   5.772   4.627  0.2392 -0.2354 -0.3693
   15MOL   O260 4488   7.075   5.709   4.712 -0.4353  0.2626  0.0794
   15MOL   C261 4489   7.115   5.844   4.533  0.3961  0.7484  0.6085
   15MOL   C262 4490   7.102   5.795   4.392 -0.2566  0.1024 -0.2741
   15MOL   C263 4491   6.768   5.814   4.821  0.5013  0.3081 -0.1695
   15MOL   H264 4492   6.825   5.630   4.712  0.3064  0.4009 -1.8478
   15MOL   H265 4493   7.081   5.946   4.551  0.9316  0.4972  3.2576
   15MOL   H266 4494   7.219   5.839   4.567  0.5809  0.7758  0.0403
   15MOL   H267 4495   7.005   5.827   4.354 -0.6514 -0.2328  0.4241
   15MOL   H268 4496   7.173   5.820   4.314 -0.9306  1.6947 -0.3845
   15MOL   H269 4497   7.081   5.688   4.385 -0.4702  0.2372 -1.7681
   15MOL   H270 4498   6.862   5.853   4.859 -0.7823  1.6724  1.7262
   15MOL   H271 4499   6.702   5.898   4.799 -3.0573 -2.4316 -0.2997
   15MOL   C272 4500   6.709   5.726   4.943  0.0606 -0.8947 -0.4256
   15MOL   O273 4501   6.826   5.674   5.007  0.6826 -0.6451 -0.2068
   15MOL   C274 4502   6.858   5.547   5.003 -0.6993  0.0753  0.5316
   15MOL   O275 4503   6.790   5.453   4.970 -0.5735 -0.0719 -0.0363
   15MOL   C276 4504   6.996   5.534   5.067 -0.2811  0.9393  0.1228
   15MOL   C277 4505   7.094   5.435   5.000 -0.6796 -0.2730 -0.4244
   15MOL   C278 4506   6.650   5.817   5.050  0.2635 -0.6868 -0.5489
   15MOL   H279 4507   6.640   5.648   4.909  0.9574 -1.7937 -0.2125
   15MOL   H280 4508   7.048   5.629   5.064 -0.8170  1.2148 -0.4734
   15MOL   H281 4509   6.991   5.502   5.171 -0.8490  1.2491  0.1936
   15MOL   H282 4510   7.047   5.372   4.925 -1.1615 -2.5780  1.7407
   15MOL   H283 4511   7.192   5.476   4.972 -1.6323  1.1985 -1.6715
   15MOL   H284 4512   7.126   5.365   5.077 -2.1293  1.4371  1.8000
   15MOL   H285 4513   6.727   5.879   5.095  2.4475 -2.6658 -1.5032
   15MOL   H286 4514   6.585   5.888   4.997  0.4974 -0.6059 -0.7269
   15MOL   C287 4515   6.569   5.732   5.156 -0.4013 -0.6177  0.2704
   15MOL   O288 4516   6.541   5.824   5.261  0.1541 -0.3389 -0.3852
   15MOL   C289 4517   6.607   5.819   5.378 -0.3353  0.6951 -0.1092
   15MOL   O290 4518   6.710   5.751   5.386 -0.4982 -0.4286 -0.0077
   15MOL   C291 4519   6.540   5.883   5.500  0.5357 -0.9029  0.1534
   15MOL   C292 4520   6.500   5.787   5.610  0.3256 -0.5191 -0.0484
   15MOL   C293 4521   6.432   5.689   5.095  0.0226 -0.7055 -0.5645
   15MOL   H294 4522   6.625   5.646   5.193 -1.7001 -1.8909 -0.6526
   15MOL   H295 4523   6.612   5.952   5.543  1.9355 -2.3814  0.2164
   15MOL   H296 4524   6.452   5.937   5.466  1.6374  1.4766  0.9871
   15MOL   H297 4525   6.580   5.723   5.645 -0.0554 -1.8460 -1.5250
   15MOL   H298 4526   6.458   5.832   5.700  0.5253 -0.4255 -0.0040
   15MOL   H299 4527   6.415   5.731   5.570 -1.4838 -0.7057  3.8607
   15MOL   H300 4528   6.453   5.618   5.015  1.4367 -1.5232  0.5091
   15MOL   H301 4529   6.376   5.634   5.170 -0.9510 -0.7805 -1.3294
   15MOL   H302 4530   6.388   5.784   5.066  0.0231 -1.0547 -1.7679
   16MOL     C1 4531   0.935   4.390   2.309  0.4457  0.2043 -0.0289
   16MOL     O2 4532   0.867   4.391   2.181 -0.0551 -0.2251  0.3411
   16MOL     C3 4533   0.917   4.322   2.075 -0.8579 -0.4943  0.6924
   16MOL     O4 4534   1.005   4.242   2.085  0.6693  0.4580  0.3154
   16MOL     C5 4535   0.829   4.348   1.954  1.2583  0.3516  0.1378
   16MOL     C6 4536   0.866   4.268   1.828 -0.5831 -0.0599 -0.4821
   16MOL     C7 4537   0.843   4.463   2.414 -0.1007 -0.1232  0.6729
   16MOL     H8 4538   1.019   4.460   2.309  0.6813 -0.0499  1.8636
   16MOL     H9 4539   0.723   4.337   1.979  1.3935 -0.6626  0.2959
   16MOL    H10 4540   0.832   4.455   1.936 -0.2389  0.3232 -0.4038
   16MOL    H11 4541   0.920   4.175   1.844 -1.9151 -1.0951 -1.8496
   16MOL    H12 4542   0.780   4.253   1.762  0.1358 -1.1155 -1.1910
   16MOL    H13 4543   0.933   4.335   1.774  0.5711  1.6001  2.8337
   16MOL    H14 4544   0.843   4.565   2.376  0.6356 -1.1912 -2.3205
   16MOL    H15 4545   0.741   4.425   2.417 -0.6480  1.4015  2.9154
   16MOL    H16 4546   0.970   4.297   2.354  1.7166  0.9463  0.5446
   16MOL    C17 4547   0.913   4.459   2.549 -0.1978 -0.1776  0.4141
   16MOL    O18 4548   1.031   4.543   2.529  0.3089 -0.2035 -0.1985
   16MOL    C19 4549   1.149   4.524   2.597 -0.3117 -0.1781 -0.2250
   16MOL    O20 4550   1.171   4.428   2.666 -0.3207  0.0126 -0.1313
   16MOL    C21 4551   1.241   4.637   2.577 -0.2798  0.5303  0.6627
   16MOL    C22 4552   1.380   4.605   2.631  0.3272 -0.6931  0.1727
   16MOL    C23 4553   0.839   4.533   2.658 -0.9741 -0.1490 -0.5990
   16MOL    H24 4554   0.941   4.355   2.566  0.0087 -0.1040  0.5201
   16MOL    H25 4555   1.250   4.656   2.470 -1.0799  0.8984  0.6550
   16MOL    H26 4556   1.191   4.718   2.630 -2.0819  1.4484 -2.3037
   16MOL    H27 4557   1.397   4.619   2.737 -2.8741 -0.7177  0.7197
   16MOL    H28 4558   1.396   4.502   2.599  1.4360 -0.1917 -0.9682
   16MOL    H29 4559   1.462   4.659   2.582  2.2772 -2.3996  1.4537
   16MOL    H30 4560   0.908   4.569   2.735  1.1838 -2.2955 -1.4266
   16MOL    H31 4561   0.798   4.625   2.616 -0.5108  0.6181  0.6161
   16MOL    C32 4562   0.732   4.442   2.728 -0.5533  0.2340  1.1175
   16MOL    O33 4563   0.795   4.384   2.847 -0.3040 -0.2832 -0.3328
   16MOL    C34 4564   0.801   4.255   2.857  0.3943 -0.2894 -0.2550
   16MOL    O35 4565   0.776   4.182   2.762  0.0451 -0.5758  0.8816
   16MOL    C36 4566   0.839   4.200   2.996  0.3805  0.7467  0.2195
   16MOL    C37 4567   0.902   4.062   3.004  0.1737  0.2573 -0.4901
   16MOL    C38 4568   0.601   4.501   2.783  0.0832  0.1499 -0.5719
   16MOL    H39 4569   0.699   4.368   2.655 -0.5190  1.7131 -0.4171
   16MOL    H40 4570   0.906   4.270   3.047 -1.2161  0.4942  2.7882
   16MOL    H41 4571   0.745   4.201   3.051  0.7495  0.5487  0.8623
   16MOL    H42 4572   0.946   4.056   3.104  1.5914 -0.7053 -1.1595
   16MOL    H43 4573   0.832   3.980   2.989 -0.8448  1.2433 -1.2519
   16MOL    H44 4574   0.980   4.041   2.930 -0.0134  0.6111 -0.7926
   16MOL    H45 4575   0.563   4.428   2.855 -0.9820  0.0808 -1.1968
   16MOL    H46 4576   0.612   4.585   2.853  0.4486  0.8071 -1.4117
   16MOL    C47 4577   0.503   4.535   2.676  0.2100 -0.0253 -0.4808
   16MOL    O48 4578   0.421   4.416   2.667 -0.1964  0.0925 -0.1106
   16MOL    C49 4579   0.430   4.327   2.568  0.7313  0.5346  0.0281
   16MOL    O50 4580   0.505   4.334   2.473 -0.0099 -0.0816  0.2283
   16MOL    C51 4581   0.341   4.212   2.591  0.5457  0.3596 -0.7547
   16MOL    C52 4582   0.373   4.077   2.529 -0.0018  0.1095  0.7784
   16MOL    C53 4583   0.413   4.652   2.704  0.1770 -0.0412 -0.5416
   16MOL    H54 4584   0.570   4.550   2.591  0.4288 -0.2253 -0.3424
   16MOL    H55 4585   0.329   4.199   2.698  0.8049 -1.4966 -0.9324
   16MOL    H56 4586   0.241   4.248   2.567  0.2895 -0.6683 -1.2558
   16MOL    H57 4587   0.463   4.042   2.580  0.0447  1.0327  1.3398
   16MOL    H58 4588   0.295   4.004   2.550  0.1500  0.4594  2.6338
   16MOL    H59 4589   0.387   4.076   2.421  0.6050 -2.7255  0.8315
   16MOL    H60 4590   0.382   4.645   2.809  0.9423  0.9911 -0.2397
   16MOL    H61 4591   0.466   4.747   2.696  2.6748 -1.3550  0.1320
   16MOL    C62 4592   0.298   4.649   2.596 -0.0300 -0.0417 -0.5217
   16MOL    O63 4593   0.183   4.612   2.656 -0.1222  0.5608 -0.1306
   16MOL    C64 4594   0.108   4.504   2.606 -0.2164 -0.0943 -0.0955
   16MOL    O65 4595   0.120   4.455   2.499 -0.0284 -0.1545 -0.2639
   16MOL    C66 4596   0.009   4.453   2.707 -0.3012 -0.0289  0.8938
   16MOL    C67 4597   0.052   4.327   2.784  0.0634 -0.4513 -0.0155
   16MOL    C68 4598   0.268   4.782   2.524  0.2786 -0.4204 -0.6297
   16MOL    H69 4599   0.328   4.584   2.514  0.0538  1.3316 -1.6106
   16MOL    H70 4600   7.905   4.525   2.773 -0.8053 -0.1422  0.6435
   16MOL    H71 4601   7.874   4.417   2.643  1.0504 -0.9035 -0.3441
   16MOL    H72 4602   0.078   4.254   2.707 -2.5278 -0.3166 -1.0613
   16MOL    H73 4603   0.134   4.353   2.851 -0.2888  0.3466  0.1078
   16MOL    H74 4604   7.919   4.286   2.848 -1.1985  2.3227  0.2885
   16MOL    H75 4605   0.179   4.755   2.468 -1.0939 -0.8289  1.6785
   16MOL    H76 4606   0.239   4.859   2.596 -1.6368 -0.2359 -1.5704
   16MOL    C77 4607   0.380   4.832   2.430 -0.0363  0.9010  0.2576
   16MOL    O78 4608   0.423   4.722   2.350 -0.1622 -0.3451 -0.3672
   16MOL    C79 4609   0.557   4.702   2.314  0.6578 -0.2250 -0.6330
   16MOL    O80 4610   0.652   4.762   2.370 -0.1817  0.1716  0.2381
   16MOL    C81 4611   0.573   4.583   2.214 -0.5452  0.0204  0.3085
   16MOL    C82 4612   0.481   4.595   2.095 -0.0214  0.0680  0.2871
   16MOL    C83 4613   0.344   4.952   2.339  0.1608  0.1855  0.0203
   16MOL    H84 4614   0.462   4.864   2.495 -1.7015  1.7735  1.9651
   16MOL    H85 4615   0.676   4.585   2.178  0.2904  0.8041  2.6598
   16MOL    H86 4616   0.553   4.486   2.260  0.2667  0.5805  1.8697
   16MOL    H87 4617   0.376   4.599   2.123  0.3972  2.3133  1.6943
   16MOL    H88 4618   0.508   4.680   2.032 -1.0387  0.2881  0.1380
   16MOL    H89 4619   0.504   4.506   2.036 -2.4726 -0.1611 -0.3590
   16MOL    H90 4620   0.434   4.966   2.278  0.5567 -0.3988  0.4531
   16MOL    H91 4621   0.262   4.935   2.270  0.6181 -0.8156 -0.2921
   16MOL    C92 4622   0.312   5.092   2.400  0.1864 -0.2598 -0.1048
   16MOL    O93 4623   0.333   5.189   2.298 -0.2233  0.8937 -0.2765
   16MOL    C94 4624   0.430   5.289   2.306 -0.5574  0.0674  0.1600
   16MOL    O95 4625   0.518   5.297   2.392  0.4900  0.2332 -0.1398
   16MOL    C96 4626   0.418   5.395   2.201  0.4011  0.1279  0.6528
   16MOL    C97 4627   0.416   5.335   2.062  0.1728  0.5847 -0.0075
   16MOL    C98 4628   0.171   5.116   2.453 -0.3353  0.4675  0.3209
   16MOL    H99 4629   0.379   5.109   2.485 -0.3212 -2.7825  0.8519
   16MOL   H100 4630   0.326   5.453   2.209 -0.4807 -1.3028  1.0671
   16MOL   H101 4631   0.500   5.466   2.206  1.4338 -0.8765 -0.9963
   16MOL   H102 4632   0.416   5.401   1.975  3.2724 -0.3036 -0.7468
   16MOL   H103 4633   0.510   5.283   2.044 -0.5970 -0.8313 -0.0252
   16MOL   H104 4634   0.340   5.258   2.046  1.1661 -0.5487  0.6545
   16MOL   H105 4635   0.115   5.137   2.361  0.6795  0.4548 -0.3071
   16MOL   H106 4636   0.139   5.029   2.509 -1.4889 -0.0061 -1.0330
   16MOL   C107 4637   0.151   5.241   2.542  0.2349  0.9090  0.0194
   16MOL   O108 4638   0.009   5.273   2.542 -0.1824 -0.2030  0.6026
   16MOL   C109 4639   7.899   5.338   2.435  0.3864 -0.2545 -0.1666
   16MOL   O110 4640   0.012   5.359   2.325  0.3716  0.0999  0.2981
   16MOL   C111 4641   7.758   5.394   2.463 -0.7914 -0.4368  0.1114
   16MOL   C112 4642   7.696   5.472   2.343 -0.0174 -0.5602  0.7989
   16MOL   C113 4643   0.184   5.213   2.690 -0.1580 -0.1219  0.2156
   16MOL   H114 4644   0.206   5.324   2.497  1.9406 -0.5774 -0.7192
   16MOL   H115 4645   7.696   5.308   2.490  1.4149 -2.0860  0.0427
   16MOL   H116 4646   7.768   5.465   2.545 -2.6038  0.4147 -0.3862
   16MOL   H117 4647   7.754   5.561   2.319 -0.5605 -0.3769  0.1546
   16MOL   H118 4648   7.696   5.405   2.256  1.1636 -0.0957  0.4343
   16MOL   H119 4649   7.591   5.495   2.361  0.5532  1.5315  1.5796
   16MOL   H120 4650   0.098   5.167   2.739 -2.3045 -0.3003 -3.5211
   16MOL   H121 4651   0.252   5.129   2.698 -1.9384 -1.8301 -1.8389
   16MOL   C122 4652   0.223   5.328   2.789 -0.1435  0.0711 -0.2189
   16MOL   O123 4653   0.124   5.432   2.803  0.0325  0.1751 -0.2702
   16MOL   C124 4654   0.131   5.544   2.737  0.3329  0.0983 -0.6205
   16MOL   O125 4655   0.213   5.570   2.656 -0.3981 -0.1310 -0.1387
   16MOL   C126 4656   0.021   5.637   2.781 -0.1863 -0.0189 -0.4532
   16MOL   C127 4657   7.929   5.756   2.698  0.3609  0.0340 -0.1605
   16MOL   C128 4658   0.267   5.279   2.936  0.3008 -0.4563 -1.1487
   16MOL   H129 4659   0.320   5.361   2.751  0.7085 -1.7526  0.3230
   16MOL   H130 4660   7.885   5.567   2.803 -1.2757  1.4785  0.3831
   16MOL   H131 4661   0.066   5.673   2.874 -2.5257  0.0226  0.7029
   16MOL   H132 4662   0.062   5.788   2.629  0.9583  1.2114  1.0223
   16MOL   H133 4663   7.834   5.744   2.646  0.4384 -0.5898 -0.1644
   16MOL   H134 4664   7.921   5.847   2.758  4.9702  0.0983  0.4915
   16MOL   H135 4665   0.306   5.361   2.997  0.2384 -0.5030 -1.0471
   16MOL   H136 4666   0.178   5.237   2.982  1.2174  1.8748  3.0069
   16MOL   C137 4667   0.370   5.165   2.931 -0.2051 -0.2917 -0.0804
   16MOL   O138 4668   0.492   5.218   2.868 -0.1385  0.1022  0.3137
   16MOL   C139 4669   0.549   5.169   2.753  0.5360  0.0736  0.0164
   16MOL   O140 4670   0.513   5.075   2.684 -0.6723 -0.0161 -0.4022
   16MOL   C141 4671   0.684   5.238   2.732 -0.1202 -0.1734  0.2052
   16MOL   C142 4672   0.663   5.389   2.701  0.2727  0.5920  0.2604
   16MOL   C143 4673   0.424   5.111   3.063  0.1938  0.1479  0.6776
   16MOL   H144 4674   0.329   5.076   2.885 -2.9604  0.8241  0.1585
   16MOL   H145 4675   0.751   5.228   2.818  1.4685 -0.1044 -1.0186
   16MOL   H146 4676   0.749   5.185   2.663  0.3919  0.0181  0.5360
   16MOL   H147 4677   0.606   5.448   2.772  0.5044  0.3770  0.6239
   16MOL   H148 4678   0.752   5.450   2.690  0.0707  0.7829 -0.3345
   16MOL   H149 4679   0.598   5.391   2.613 -1.8922  2.1996  1.8432
   16MOL   H150 4680   0.489   5.034   3.021 -0.4287 -0.3378  0.6093
   16MOL   H151 4681   0.478   5.194   3.109 -1.1225  0.8305  1.0040
   16MOL   C152 4682   0.317   5.059   3.155  0.0542  0.2127 -0.0817
   16MOL   O153 4683   0.259   4.944   3.106  0.6410  0.0949 -0.3454
   16MOL   C154 4684   0.125   4.939   3.100 -0.6345  0.5706 -0.6006
   16MOL   O155 4685   0.037   5.027   3.137  0.1416 -0.1170 -0.6372
   16MOL   C156 4686   0.083   4.805   3.015  0.5874 -0.3661 -0.1378
   16MOL   C157 4687   0.146   4.665   3.058 -0.7501 -0.1288 -0.8389
   16MOL   C158 4688   0.348   5.048   3.307  0.3888  0.2112  0.1606
   16MOL   H159 4689   0.241   5.137   3.157  0.9000  1.1293 -2.0763
   16MOL   H160 4690   7.920   4.792   3.006  0.6679 -1.5500  0.5656
   16MOL   H161 4691   0.117   4.826   2.913 -0.8505 -0.5551 -0.6728
   16MOL   H162 4692   0.112   4.582   2.996  1.5447 -1.4127 -0.4134
   16MOL   H163 4693   0.253   4.668   3.041 -0.8330 -0.5488 -1.4618
   16MOL   H164 4694   0.136   4.647   3.165 -1.0619  0.0181 -0.8400
   16MOL   H165 4695   0.420   4.967   3.313  0.1272 -0.2289 -2.0927
   16MOL   H166 4696   0.419   5.122   3.344 -0.1637  1.0242 -0.3752
   16MOL   C167 4697   0.231   5.022   3.414  0.2330 -0.1108  0.0739
   16MOL   O168 4698   0.258   4.935   3.517  0.4657  0.3111  0.4369
   16MOL   C169 4699   0.271   4.807   3.481 -0.1096 -0.6074 -0.6279
   16MOL   O170 4700   0.257   4.757   3.371  0.0050  0.4146  0.3438
   16MOL   C171 4701   0.296   4.718   3.605  0.1585 -0.1163 -0.2594
   16MOL   C172 4702   0.244   4.575   3.585  0.1279  0.4790 -0.1956
   16MOL   C173 4703   0.173   5.159   3.478 -0.9513 -0.5024  0.0640
   16MOL   H174 4704   0.145   4.986   3.357  2.0400 -1.0253 -2.1390
   16MOL   H175 4705   0.401   4.710   3.632 -0.0258 -1.3626  0.1505
   16MOL   H176 4706   0.248   4.761   3.693 -1.2338  1.5307 -1.8110
   16MOL   H177 4707   0.137   4.584   3.567  0.4890  1.6867 -1.8372
   16MOL   H178 4708   0.289   4.518   3.504  1.4659  0.2433  0.7065
   16MOL   H179 4709   0.256   4.518   3.677  0.7311 -1.0950 -1.2296
   16MOL   H180 4710   0.255   5.186   3.545 -0.1544  0.0821 -1.1303
   16MOL   H181 4711   0.162   5.234   3.400  1.6766 -0.8346 -0.6636
   16MOL   C182 4712   0.050   5.147   3.565  0.6492 -0.3404  0.6514
   16MOL   O183 4713   0.078   5.211   3.685  0.3194  0.5522 -0.1882
   16MOL   C184 4714   0.007   5.173   3.796 -0.0786  0.5003  0.1092
   16MOL   O185 4715   7.865   5.084   3.805 -0.5604 -0.1704 -0.3837
   16MOL   C186 4716   0.033   5.262   3.910  1.2504  0.7726 -0.5197
   16MOL   C187 4717   7.856   5.344   3.956 -0.8001 -0.1265 -0.3431
   16MOL   C188 4718   7.862   5.186   3.498  0.2265  0.3005 -0.5587
   16MOL   H189 4719   0.051   5.041   3.589  1.5292 -0.6110 -0.5091
   16MOL   H190 4720   0.093   5.210   3.985 -0.6280 -0.0483  0.4575
   16MOL   H191 4721   0.103   5.335   3.872  3.0475 -0.5803  0.1406
   16MOL   H192 4722   7.789   5.298   4.028 -1.0534  2.3683  1.0667
   16MOL   H193 4723   7.902   5.430   4.004 -0.0948 -0.3660 -0.5835
   16MOL   H194 4724   7.803   5.390   3.872 -1.7243 -1.5467 -0.5541
   16MOL   H195 4725   7.794   5.217   3.577  3.0140  1.5469  1.4087
   16MOL   H196 4726   7.881   5.270   3.431  0.1148  0.2662 -0.6343
   16MOL   C197 4727   7.803   5.064   3.414  0.2660 -0.2104 -0.8387
   16MOL   O198 4728   7.738   4.972   3.501  0.4255  0.3894 -0.0791
   16MOL   C199 4729   7.800   4.858   3.525  0.0370  0.0857 -0.0363
   16MOL   O200 4730   7.907   4.826   3.482 -0.5467 -0.2668  0.2332
   16MOL   C201 4731   7.716   4.773   3.617 -0.2603  0.1356  0.3333
   16MOL   C202 4732   7.643   4.664   3.534  1.1061  0.1705 -0.5642
   16MOL   C203 4733   7.711   5.097   3.296  0.1359 -0.0189 -0.0464
   16MOL   H204 4734   7.890   5.024   3.361 -0.0909 -0.7972 -0.9818
   16MOL   H205 4735   7.771   4.733   3.702 -3.4885  0.0485  2.4881
   16MOL   H206 4736   7.643   4.831   3.674 -0.6704  0.7271 -0.7931
   16MOL   H207 4737   7.566   4.611   3.590 -0.8349  0.2221 -3.1050
   16MOL   H208 4738   7.587   4.721   3.460 -0.1986 -0.3922 -0.0277
   16MOL   H209 4739   7.714   4.593   3.490  1.0559 -0.2396  0.0065
   16MOL   H210 4740   7.758   5.179   3.241 -1.6531  1.1831  0.1417
   16MOL   H211 4741   7.707   5.027   3.213  1.2804  0.5517 -0.5969
   16MOL   C212 4742   7.569   5.146   3.349 -1.0135 -0.1262  0.2757
   16MOL   O213 4743   7.538   5.244   3.250 -0.1666  0.2532 -0.0965
   16MOL   C214 4744   7.478   5.366   3.275  0.0684 -0.1511 -0.1981
   16MOL   O215 4745   7.438   5.397   3.388  0.6278 -0.3187 -0.1192
   16MOL   C216 4746   7.491   5.463   3.155  0.1462  0.7689  0.0402
   16MOL   C217 4747   7.629   5.538   3.159  0.5053 -0.7069 -0.0115
   16MOL   C218 4748   7.470   5.025   3.348  0.0734  0.6001  0.5427
   16MOL   H219 4749   7.597   5.186   3.446  0.5669 -1.0983  0.2282
   16MOL   H220 4750   7.480   5.412   3.060 -1.7500 -0.3087  0.8282
   16MOL   H221 4751   7.406   5.531   3.156  0.1941  0.8592 -1.0731
   16MOL   H222 4752   7.620   5.612   3.238  1.1080 -1.3216  0.6442
   16MOL   H223 4753   7.715   5.475   3.181  1.1526 -0.3521 -1.4821
   16MOL   H224 4754   7.651   5.586   3.063  2.1173 -1.4244 -0.0182
   16MOL   H225 4755   7.488   4.965   3.258 -0.8915  2.7020 -1.1080
   16MOL   H226 4756   7.505   4.955   3.423 -0.1664 -1.7436 -1.4478
   16MOL   C227 4757   7.325   5.056   3.370 -0.1463  0.9940  0.4169
   16MOL   O228 4758   7.250   4.935   3.346 -0.1795  0.6681  0.7823
   16MOL   C229 4759   7.149   4.936   3.247  0.6162 -0.3395  0.6986
   16MOL   O230 4760   7.124   5.031   3.174 -0.0117 -0.0676  0.6322
   16MOL   C231 4761   7.069   4.806   3.256 -0.1528 -0.2864 -0.9436
   16MOL   C232 4762   7.159   4.688   3.228  0.6016  0.5871 -0.8136
   16MOL   C233 4763   7.292   5.111   3.513 -0.1017  0.0115 -0.5694
   16MOL   H234 4764   7.296   5.133   3.299  2.3804 -1.2609 -3.2485
   16MOL   H235 4765   7.021   4.821   3.353 -0.4726  2.6118 -1.4997
   16MOL   H236 4766   6.984   4.823   3.191 -0.6558 -0.7892 -0.4182
   16MOL   H237 4767   7.245   4.668   3.292 -1.1964  0.3937  1.5998
   16MOL   H238 4768   7.093   4.602   3.232  3.2251 -1.3970  2.0763
   16MOL   H239 4769   7.188   4.704   3.124  0.1676  0.6290 -0.9288
   16MOL   H240 4770   7.308   5.028   3.581  1.4912 -0.4054 -1.4362
   16MOL   H241 4771   7.356   5.191   3.551  2.0459 -1.4908 -0.9775
   16MOL   C242 4772   7.138   5.151   3.537 -0.3951 -0.4782 -0.2191
   16MOL   O243 4773   7.117   5.186   3.675  0.3766  0.1273 -0.0941
   16MOL   C244 4774   7.026   5.115   3.744  0.0349  0.6987 -0.1830
   16MOL   O245 4775   6.978   5.005   3.716 -0.4600  0.0448 -0.0382
   16MOL   C246 4776   6.984   5.185   3.874 -0.8227  0.2599 -0.0711
   16MOL   C247 4777   6.950   5.334   3.846 -0.3156 -0.1860 -0.1249
   16MOL   C248 4778   7.096   5.268   3.445  0.8417  0.5207 -0.0133
   16MOL   H249 4779   7.091   5.059   3.503  0.9987 -1.3119  0.0805
   16MOL   H250 4780   6.894   5.140   3.914 -0.1849 -1.1086 -0.1694
   16MOL   H251 4781   7.056   5.179   3.956  1.2051 -0.5872 -1.8774
   16MOL   H252 4782   7.030   5.390   3.797 -0.1148  0.8842  1.4079
   16MOL   H253 4783   6.873   5.353   3.771 -0.7375 -0.8419  0.1340
   16MOL   H254 4784   6.930   5.390   3.937 -0.4367  0.1717 -0.3732
   16MOL   H255 4785   7.140   5.361   3.482  1.0708 -1.0494  3.9108
   16MOL   H256 4786   7.129   5.245   3.344  0.7304 -1.0163  0.2915
   16MOL   C257 4787   6.941   5.291   3.426  0.1323  0.3234  0.3550
   16MOL   O258 4788   6.911   5.393   3.329 -0.2953  0.0067 -0.6375
   16MOL   C259 4789   6.870   5.516   3.358 -0.5834  0.2623 -0.5465
   16MOL   O260 4790   6.879   5.553   3.473  0.0590  0.1782  0.1734
   16MOL   C261 4791   6.812   5.600   3.242  0.2294 -0.2182  0.5410
   16MOL   C262 4792   6.700   5.524   3.170 -0.0407 -0.4548  0.2623
   16MOL   C263 4793   6.870   5.170   3.368 -0.0844  0.1161 -0.1099
   16MOL   H264 4794   6.891   5.325   3.517  0.0753 -0.8820  0.7752
   16MOL   H265 4795   6.761   5.683   3.292 -1.2840 -2.0637  2.1256
   16MOL   H266 4796   6.890   5.632   3.173 -0.2856  0.1716  0.1329
   16MOL   H267 4797   6.602   5.572   3.172 -0.8553 -2.0744  2.5304
   16MOL   H268 4798   6.736   5.512   3.068  0.1376  3.1890 -0.1693
   16MOL   H269 4799   6.685   5.423   3.209  1.1363 -0.9398 -0.4980
   16MOL   H270 4800   6.878   5.169   3.259 -0.1620  0.3372 -0.1169
   16MOL   H271 4801   6.906   5.074   3.404 -1.5932 -1.1834 -1.9145
   16MOL   C272 4802   6.719   5.170   3.400  0.3315  0.4694 -0.0591
   16MOL   O273 4803   6.660   5.072   3.320  0.3641 -0.3737  0.4035
   16MOL   C274 4804   6.576   5.094   3.216 -0.1474  0.3159 -0.2544
   16MOL   O275 4805   6.544   5.205   3.172  0.3172 -0.3639  0.2876
   16MOL   C276 4806   6.523   4.954   3.163  0.3562  0.0769  0.0161
   16MOL   C277 4807   6.400   4.902   3.241 -0.6388 -0.1180  0.3909
   16MOL   C278 4808   6.685   5.141   3.548  1.0964  0.6547  0.5056
   16MOL   H279 4809   6.667   5.257   3.361 -0.9687 -0.4329 -0.4030
   16MOL   H280 4810   6.509   4.963   3.056 -0.2496  0.1258  0.1002
   16MOL   H281 4811   6.603   4.879   3.160  0.1023 -0.1865 -0.1805
   16MOL   H282 4812   6.347   4.823   3.188 -2.9318  1.2772  0.5582
   16MOL   H283 4813   6.426   4.889   3.346 -0.9075  4.0697  1.0520
   16MOL   H284 4814   6.324   4.980   3.242 -0.2947  0.2190  0.3936
   16MOL   H285 4815   6.685   5.032   3.549  3.3391  0.6105 -0.3462
   16MOL   H286 4816   6.759   5.172   3.622  1.0249 -1.6633  1.5914
   16MOL   C287 4817   6.550   5.203   3.602  0.2086  0.2185  0.2062
   16MOL   O288 4818   6.553   5.345   3.589  0.0612  0.2402  0.1349
   16MOL   C289 4819   6.570   5.424   3.698 -0.9497 -0.6303 -0.1513
   16MOL   O290 4820   6.621   5.392   3.803 -0.7120 -0.2643 -0.0523
   16MOL   C291 4821   6.524   5.566   3.678  0.3125  0.1298  0.4045
   16MOL   C292 4822   6.457   5.601   3.544 -0.3759  0.2353 -0.2623
   16MOL   C293 4823   6.420   5.150   3.547 -0.0799  0.2418  0.4992
   16MOL   H294 4824   6.549   5.177   3.708  0.7508 -0.8829 -0.0536
   16MOL   H295 4825   6.445   5.554   3.751 -0.2969  0.4956 -0.1871
   16MOL   H296 4826   6.603   5.634   3.710 -1.1911  1.7695  0.6311
   16MOL   H297 4827   6.518   5.594   3.454 -1.0169  0.7201 -0.7388
   16MOL   H298 4828   6.368   5.540   3.527  0.3432 -1.3775  1.5516
   16MOL   H299 4829   6.423   5.704   3.552 -0.0167  0.3894 -0.6947
   16MOL   H300 4830   6.405   5.173   3.442  2.5953  6.0454  1.2154
   16MOL   H301 4831   6.421   5.042   3.536  1.5709  0.6196 -4.1531
   16MOL   H302 4832   6.336   5.183   3.608 -1.6426 -1.1697 -0.8403
   17MOL     C1 4833   1.166   6.338   3.761 -0.1588 -0.9959  0.3969
   17MOL     O2 4834   1.168   6.283   3.892 -0.5559 -0.0738 -0.1053
   17MOL     C3 4835   1.080   6.335   3.979  0.5774  0.1890 -0.0157
   17MOL     O4 4836   1.004   6.423   3.944 -0.5273  0.0711 -0.0059
   17MOL     C5 4837   1.071   6.259   4.108  0.0848 -0.6859 -0.1403
   17MOL     C6 4838   1.071   6.109   4.101 -0.7120  0.3768  0.0134
   17MOL     C7 4839   1.261   6.265   3.665 -0.5851 -0.4173  0.7007
   17MOL     H8 4840   1.205   6.438   3.782 -0.0615 -1.0819  0.6261
   17MOL     H9 4841   1.136   6.307   4.180 -0.2385  1.8366 -1.4996
   17MOL    H10 4842   0.970   6.289   4.138 -0.2220 -0.5160 -1.3125
   17MOL    H11 4843   1.158   6.070   4.048  1.2215  0.4685  3.0003
   17MOL    H12 4844   1.050   6.080   4.204 -1.1051  0.3893 -0.0635
   17MOL    H13 4845   0.989   6.073   4.039 -0.9064  1.4098 -0.3389
   17MOL    H14 4846   1.361   6.271   3.709  0.7159  0.3052 -2.1836
   17MOL    H15 4847   1.241   6.158   3.665 -4.2574  0.2093 -0.1367
   17MOL    H16 4848   1.065   6.338   3.719  0.6773 -1.0860 -1.6702
   17MOL    C17 4849   1.278   6.321   3.522 -0.0489  0.4230  0.6395
   17MOL    O18 4850   1.146   6.328   3.462  0.1701  0.1656 -0.1002
   17MOL    C19 4851   1.083   6.225   3.395 -0.1904  0.2636  0.3722
   17MOL    O20 4852   1.133   6.113   3.365 -0.4949  0.0348  0.2246
   17MOL    C21 4853   0.943   6.261   3.352 -0.1272 -0.0178 -0.2018
   17MOL    C22 4854   0.851   6.236   3.479 -0.0014  0.1983  0.2044
   17MOL    C23 4855   1.338   6.463   3.508 -0.1801 -0.6617 -0.0019
   17MOL    H24 4856   1.334   6.245   3.467 -1.8886 -2.5535  2.7359
   17MOL    H25 4857   0.931   6.366   3.326 -1.4196  0.2021  1.1655
   17MOL    H26 4858   0.911   6.206   3.264  1.6701  0.3244 -1.0725
   17MOL    H27 4859   0.880   6.153   3.545 -0.5932 -1.4374 -1.5449
   17MOL    H28 4860   0.849   6.327   3.538  1.0700 -0.9972  2.1597
   17MOL    H29 4861   0.747   6.214   3.459 -0.4655 -1.2899  3.7815
   17MOL    H30 4862   1.339   6.503   3.406 -2.0001  0.0947  0.2717
   17MOL    H31 4863   1.267   6.532   3.553  1.7358  1.0419  0.5292
   17MOL    C32 4864   1.481   6.478   3.578  0.4368  0.3281 -0.1053
   17MOL    O33 4865   1.575   6.388   3.513  0.4078 -0.0898 -0.1774
   17MOL    C34 4866   1.636   6.281   3.576  0.1908  0.1419  0.7081
   17MOL    O35 4867   1.613   6.248   3.687  0.1229 -0.8294  0.5784
   17MOL    C36 4868   1.744   6.214   3.497  0.0171  0.1159  0.2076
   17MOL    C37 4869   1.718   6.196   3.345  0.0502  0.5994 -0.2507
   17MOL    C38 4870   1.548   6.620   3.578 -0.1191  0.3930  0.9905
   17MOL    H39 4871   1.476   6.447   3.682 -0.1730 -1.5449 -0.6657
   17MOL    H40 4872   1.830   6.279   3.515  0.2649 -0.3633  0.7564
   17MOL    H41 4873   1.763   6.117   3.542  0.3866  0.1980  0.2279
   17MOL    H42 4874   1.788   6.127   3.299  0.1611 -0.3950  1.3837
   17MOL    H43 4875   1.633   6.136   3.313 -0.1776  0.9392 -0.2928
   17MOL    H44 4876   1.725   6.288   3.286 -1.4548  1.1098  0.3412
   17MOL    H45 4877   1.628   6.614   3.653 -0.2756  1.9124  1.3101
   17MOL    H46 4878   1.592   6.643   3.481 -0.2891 -1.5888  0.4300
   17MOL    C47 4879   1.451   6.733   3.619 -0.0032 -0.2911 -0.3235
   17MOL    O48 4880   1.402   6.713   3.751 -0.0612  0.3014  0.2211
   17MOL    C49 4881   1.288   6.771   3.800  0.4643  0.1371  0.2775
   17MOL    O50 4882   1.211   6.843   3.739 -0.0322  0.4843  0.5358
   17MOL    C51 4883   1.266   6.729   3.938 -0.4201  0.1581 -0.3209
   17MOL    C52 4884   1.367   6.786   4.041 -0.0494 -0.1212 -0.0541
   17MOL    C53 4885   1.528   6.865   3.595 -0.1926 -0.1559  0.0699
   17MOL    H54 4886   1.368   6.712   3.552  0.5727 -2.4258 -0.4168
   17MOL    H55 4887   1.166   6.756   3.970  0.5670  2.0474  1.2862
   17MOL    H56 4888   1.277   6.621   3.937 -1.3591  0.0530  0.4028
   17MOL    H57 4889   1.353   6.737   4.138 -1.0984 -2.7256 -1.4617
   17MOL    H58 4890   1.471   6.770   4.011  0.0638  1.6295 -0.5950
   17MOL    H59 4891   1.353   6.890   4.069  0.1593 -0.2102  0.3979
   17MOL    H60 4892   1.619   6.874   3.655 -1.3913 -2.6085  2.3799
   17MOL    H61 4893   1.556   6.861   3.490  0.1925 -1.1270  0.2044
   17MOL    C62 4894   1.444   6.991   3.598 -0.4397 -0.2012  0.1263
   17MOL    O63 4895   1.533   7.105   3.601  0.3638 -0.3719 -0.2396
   17MOL    C64 4896   1.552   7.181   3.711 -0.1525  0.6272  0.2728
   17MOL    O65 4897   1.476   7.187   3.807 -0.1081  0.1632  0.4366
   17MOL    C66 4898   1.672   7.274   3.710  1.1995 -0.1755 -0.7326
   17MOL    C67 4899   1.799   7.203   3.713 -0.5735  0.1730  0.2187
   17MOL    C68 4900   1.361   7.017   3.471 -0.4469  0.0378 -0.7496
   17MOL    H69 4901   1.381   6.995   3.687  0.6290 -1.4754  0.9580
   17MOL    H70 4902   1.670   7.334   3.619  1.0133 -0.1904 -0.7381
   17MOL    H71 4903   1.660   7.346   3.792 -1.6812  1.5545 -2.5884
   17MOL    H72 4904   1.889   7.266   3.708  0.4519 -1.2522  0.4396
   17MOL    H73 4905   1.809   7.132   3.794 -1.6269  0.8527  0.9532
   17MOL    H74 4906   1.821   7.153   3.618  0.3766 -0.5835  0.8318
   17MOL    H75 4907   1.417   7.082   3.404  0.6320  0.7262  0.7881
   17MOL    H76 4908   1.342   6.920   3.425 -0.2041 -0.7993  0.8822
   17MOL    C77 4909   1.221   7.082   3.485 -0.3851  0.3644 -0.1539
   17MOL    O78 4910   1.225   7.212   3.549  0.2274  0.1402 -0.3617
   17MOL    C79 4911   1.166   7.223   3.674 -0.6552 -0.1328  0.3963
   17MOL    O80 4912   1.097   7.140   3.725  0.2182  0.0470  0.0655
   17MOL    C81 4913   1.207   7.353   3.743 -0.2444  0.6531  0.8065
   17MOL    C82 4914   1.086   7.452   3.748  0.3771  0.1109 -0.4757
   17MOL    C83 4915   1.150   7.094   3.351  0.2490  0.7564 -0.2388
   17MOL    H84 4916   1.155   7.014   3.538 -0.1553 -0.8391 -1.3653
   17MOL    H85 4917   1.245   7.347   3.845 -0.3078 -1.7551  0.7127
   17MOL    H86 4918   1.294   7.396   3.693  1.0546 -2.0938  0.5965
   17MOL    H87 4919   1.015   7.417   3.823 -2.6702  1.1398 -2.7526
   17MOL    H88 4920   1.120   7.549   3.782  0.2925  0.1576 -0.5252
   17MOL    H89 4921   1.040   7.449   3.649 -1.3056 -1.2828  0.3279
   17MOL    H90 4922   1.069   7.167   3.358 -0.3436  0.0032  0.9417
   17MOL    H91 4923   1.204   7.159   3.281 -0.9289  2.7773  0.6711
   17MOL    C92 4924   1.101   6.956   3.289 -0.0686  0.1243  0.2528
   17MOL    O93 4925   1.013   6.892   3.385  0.2613  0.5026 -0.8140
   17MOL    C94 4926   1.052   6.786   3.462 -0.9420  0.3473 -0.2874
   17MOL    O95 4927   1.158   6.726   3.451 -0.3138 -0.1068 -0.0694
   17MOL    C96 4928   0.942   6.739   3.566  0.2439  0.0094 -0.1293
   17MOL    C97 4929   0.950   6.589   3.612  0.0994 -0.4979 -0.4477
   17MOL    C98 4930   1.035   6.977   3.150  0.0731  0.3743 -0.1375
   17MOL    H99 4931   1.185   6.888   3.274  1.0003  1.5025 -0.1439
   17MOL   H100 4932   0.947   6.791   3.662 -1.4944  0.0443 -0.0310
   17MOL   H101 4933   0.849   6.774   3.520  1.2170  1.8764 -0.7213
   17MOL   H102 4934   1.034   6.580   3.681 -0.9740 -0.7056  0.8512
   17MOL   H103 4935   0.860   6.556   3.665  0.2624 -1.0972 -0.5407
   17MOL   H104 4936   0.960   6.514   3.534 -1.5484 -1.1337 -0.0688
   17MOL   H105 4937   0.942   7.031   3.168  0.3897  0.3583  1.6420
   17MOL   H106 4938   1.106   7.035   3.091  0.8413  0.5943  0.9777
   17MOL   C107 4939   1.002   6.854   3.062 -0.1581  0.4094  0.2467
   17MOL   O108 4940   0.889   6.779   3.114  0.2865  0.7434 -0.0752
   17MOL   C109 4941   0.901   6.655   3.168 -1.0289 -0.3552  0.0249
   17MOL   O110 4942   1.003   6.586   3.187  0.2718  0.3049  0.4071
   17MOL   C111 4943   0.767   6.608   3.222  0.6178 -0.3580 -0.1247
   17MOL   C112 4944   0.646   6.629   3.128  0.1022 -0.4972 -0.0648
   17MOL   C113 4945   0.956   6.886   2.922 -0.1526 -0.4922 -0.2370
   17MOL   H114 4946   1.090   6.790   3.054 -0.0704  0.4646  0.7222
   17MOL   H115 4947   0.768   6.507   3.261 -1.3407  0.8109  3.1308
   17MOL   H116 4948   0.749   6.674   3.307 -2.9935 -0.7626 -0.5112
   17MOL   H117 4949   0.653   6.558   3.045  1.0727 -2.0414  1.3046
   17MOL   H118 4950   0.551   6.601   3.173  0.4916 -1.1422  0.3779
   17MOL   H119 4951   0.635   6.731   3.091  0.9389 -0.4771 -0.2686
   17MOL   H120 4952   0.924   6.796   2.870 -0.9358 -0.1265 -0.4012
   17MOL   H121 4953   0.868   6.950   2.929  0.6259  0.2983  2.9082
   17MOL   C122 4954   1.068   6.948   2.822  1.5259 -1.0111  0.0372
   17MOL   O123 4955   1.176   6.859   2.816 -0.0065  0.1477  0.7201
   17MOL   C124 4956   1.293   6.885   2.885 -0.1883  0.0230  0.1901
   17MOL   O125 4957   1.303   6.976   2.971 -0.8105  0.8057  0.8117
   17MOL   C126 4958   1.413   6.790   2.844  0.5987  0.5724  0.0541
   17MOL   C127 4959   1.432   6.770   2.692 -0.7411 -0.5598 -0.0999
   17MOL   C128 4960   1.006   6.976   2.681 -0.0395 -0.0200  0.7041
   17MOL   H129 4961   1.105   7.038   2.871  0.2812 -0.4223 -0.1048
   17MOL   H130 4962   1.508   6.835   2.870  0.1421  0.8679  1.2695
   17MOL   H131 4963   1.391   6.704   2.907  0.1345 -0.2817 -1.2527
   17MOL   H132 4964   1.355   6.708   2.647 -0.4899 -0.6529 -0.4081
   17MOL   H133 4965   1.448   6.865   2.641 -1.4947  0.4379  1.4897
   17MOL   H134 4966   1.523   6.711   2.683  1.6949  3.1577 -1.0434
   17MOL   H135 4967   1.084   6.981   2.604  0.3288 -1.1476  0.9970
   17MOL   H136 4968   0.936   6.896   2.658 -0.3770  0.4765 -0.0644
   17MOL   C137 4969   0.924   7.110   2.677 -0.6567 -0.7541 -0.0470
   17MOL   O138 4970   1.015   7.215   2.699 -0.0191 -0.3023  0.0975
   17MOL   C139 4971   1.003   7.281   2.813  0.5838 -1.4191 -0.8083
   17MOL   O140 4972   0.920   7.258   2.901 -0.7777  0.1348  0.0329
   17MOL   C141 4973   1.100   7.398   2.829 -0.2095  0.3550  0.0677
   17MOL   C142 4974   1.204   7.357   2.928 -0.4884 -0.8068  0.2495
   17MOL   C143 4975   0.846   7.148   2.542  0.2758  0.7003 -0.3265
   17MOL   H144 4976   0.850   7.098   2.756  0.6825 -1.6989  1.0914
   17MOL   H145 4977   1.136   7.412   2.727  0.0656  1.0617  0.2591
   17MOL   H146 4978   1.042   7.486   2.859  0.2003  0.0448  1.8253
   17MOL   H147 4979   1.278   7.436   2.941 -1.1259 -0.2701  0.6736
   17MOL   H148 4980   1.164   7.327   3.025  2.2567 -1.5889  1.1856
   17MOL   H149 4981   1.268   7.277   2.890  0.4926  0.6229 -1.1643
   17MOL   H150 4982   0.776   7.227   2.569  0.0365  0.1715  0.6333
   17MOL   H151 4983   0.917   7.194   2.473  0.0159  0.4545 -0.7597
   17MOL   C152 4984   0.772   7.033   2.475 -0.3026  0.0105 -1.0179
   17MOL   O153 4985   0.682   6.980   2.571 -0.1601  0.5074 -0.5325
   17MOL   C154 4986   0.672   6.841   2.585  1.1504  0.0766  0.4913
   17MOL   O155 4987   0.730   6.761   2.512 -0.3419  0.2480  0.3586
   17MOL   C156 4988   0.582   6.794   2.697 -0.0460 -0.5396  0.3577
   17MOL   C157 4989   0.635   6.665   2.766 -0.0599  0.9643 -0.6617
   17MOL   C158 4990   0.712   7.077   2.346 -0.3750  1.1596 -0.4328
   17MOL   H159 4991   0.851   6.960   2.458  0.1670 -0.1090  1.4161
   17MOL   H160 4992   0.540   6.869   2.763 -0.9278 -1.0597  0.3944
   17MOL   H161 4993   0.487   6.766   2.652  0.1733  0.9458 -1.0757
   17MOL   H162 4994   0.696   6.594   2.709  1.2350 -0.1559  2.0137
   17MOL   H163 4995   0.678   6.686   2.865 -0.7421  0.1735 -0.1896
   17MOL   H164 4996   0.546   6.611   2.799  1.0090 -0.3130  0.1903
   17MOL   H165 4997   0.644   7.001   2.306 -1.3260  2.7377 -1.8718
   17MOL   H166 4998   0.651   7.167   2.359  0.4662  1.6457  0.1643
   17MOL   C167 4999   0.816   7.099   2.231  0.2450  0.4127  0.1782
   17MOL   O168 5000   0.862   6.968   2.210 -0.0708  0.7421 -0.8791
   17MOL   C169 5001   0.991   6.943   2.231 -0.2799 -0.0319 -0.1307
   17MOL   O170 5002   1.069   7.022   2.283  0.3687  0.3348 -0.2079
   17MOL   C171 5003   1.042   6.819   2.169  0.1819 -0.1668 -0.3259
   17MOL   C172 5004   1.005   6.812   2.021  0.0466  0.5393  0.9438
   17MOL   C173 5005   0.760   7.159   2.098  0.5348  0.0997  1.1458
   17MOL   H174 5006   0.892   7.169   2.265  0.2703  1.6887 -2.3360
   17MOL   H175 5007   1.148   6.818   2.193  0.4021  2.3726 -1.1584
   17MOL   H176 5008   1.004   6.730   2.220 -0.4190  1.5908  2.4177
   17MOL   H177 5009   0.950   6.901   1.990 -0.2311 -0.2457 -0.9052
   17MOL   H178 5010   1.095   6.801   1.961  2.2025  2.2161  3.7379
   17MOL   H179 5011   0.950   6.723   1.990  1.1478  0.8537 -2.1372
   17MOL   H180 5012   0.842   7.175   2.028 -0.4175  1.1160  0.2360
   17MOL   H181 5013   0.676   7.102   2.060  0.8364 -0.7590  1.7476
   17MOL   C182 5014   0.706   7.301   2.122 -0.1779  0.6852 -0.2219
   17MOL   O183 5015   0.817   7.386   2.150 -0.6588  0.3351 -0.4190
   17MOL   C184 5016   0.832   7.447   2.266  0.1979 -0.5593  0.0690
   17MOL   O185 5017   0.745   7.436   2.357  0.1078 -0.0426 -0.8158
   17MOL   C186 5018   0.951   7.547   2.271  0.1664  0.5688  0.2346
   17MOL   C187 5019   0.959   7.644   2.154 -0.2460 -0.3505  0.1079
   17MOL   C188 5020   0.646   7.351   1.987 -0.3584 -0.4746 -0.2519
   17MOL   H189 5021   0.632   7.293   2.202  0.4364 -0.0564  0.2813
   17MOL   H190 5022   0.944   7.602   2.364 -0.2986  1.2578 -0.2072
   17MOL   H191 5023   1.046   7.493   2.275 -0.6309 -1.0756 -1.8319
   17MOL   H192 5024   0.942   7.598   2.057  0.1467 -3.1850  1.3333
   17MOL   H193 5025   0.890   7.727   2.170 -0.5884 -0.6215  0.0404
   17MOL   H194 5026   1.062   7.678   2.146  0.3273 -2.5480 -2.6170
   17MOL   H195 5027   0.727   7.369   1.917 -0.2525 -0.5562 -0.1512
   17MOL   H196 5028   0.571   7.289   1.937 -0.5695 -0.1294 -0.3623
   17MOL   C197 5029   0.595   7.494   2.008  0.7877 -0.7966 -0.2743
   17MOL   O198 5030   0.567   7.549   1.883 -0.0542  0.4423 -0.3213
   17MOL   C199 5031   0.652   7.636   1.829 -0.0836 -0.6848  0.0874
   17MOL   O200 5032   0.750   7.685   1.886 -0.1444  0.3707  0.0558
   17MOL   C201 5033   0.625   7.669   1.679  0.2127  0.7623 -0.3529
   17MOL   C202 5034   0.701   7.797   1.625  0.2263  0.1117 -0.2450
   17MOL   C203 5035   0.472   7.508   2.106  0.5059 -0.1873 -0.8070
   17MOL   H204 5036   0.675   7.545   2.061  0.2683 -0.4780  0.2181
   17MOL   H205 5037   0.642   7.584   1.614  1.6375  1.0207 -0.3411
   17MOL   H206 5038   0.518   7.686   1.678  0.6325  3.5538 -0.7906
   17MOL   H207 5039   0.800   7.761   1.595  0.3946  1.5388 -1.4502
   17MOL   H208 5040   0.662   7.818   1.525 -1.1379 -0.0263  0.2440
   17MOL   H209 5041   0.700   7.886   1.687 -0.5498 -0.3855  0.4764
   17MOL   H210 5042   0.382   7.465   2.061 -0.2228  0.8074 -0.3299
   17MOL   H211 5043   0.495   7.451   2.195 -1.0288 -1.4016 -1.1741
   17MOL   C212 5044   0.444   7.659   2.141 -0.2898  1.1636 -0.2183
   17MOL   O213 5045   0.316   7.681   2.194  0.5652 -0.1715 -0.2456
   17MOL   C214 5046   0.203   7.711   2.129  0.9225 -0.2366  0.1123
   17MOL   O215 5047   0.191   7.720   2.008 -0.4417 -0.2529 -0.0295
   17MOL   C216 5048   0.082   7.740   2.226 -0.4958 -0.1773 -0.3490
   17MOL   C217 5049   0.131   7.821   2.343 -0.6196 -0.3808  0.1961
   17MOL   C218 5050   0.546   7.712   2.243 -0.2206  0.1711 -1.0772
   17MOL   H219 5051   0.443   7.710   2.045  1.4006  0.2590 -0.7245
   17MOL   H220 5052   7.945   7.790   2.175 -0.0749  1.8872  0.9135
   17MOL   H221 5053   0.054   7.640   2.257  0.5313 -0.0476  1.0670
   17MOL   H222 5054   0.048   7.860   2.402 -0.5463  1.7997 -1.1007
   17MOL   H223 5055   0.212   7.778   2.401  0.7071  2.0062  0.2101
   17MOL   H224 5056   0.183   7.913   2.315 -1.9679 -0.3922 -2.4767
   17MOL   H225 5057   0.542   7.647   2.330  0.8936 -0.3460 -1.4017
   17MOL   H226 5058   0.646   7.689   2.205  0.6955  0.1112  1.3313
   17MOL   C227 5059   0.526   7.856   2.293 -0.1091  0.0163  0.6971
   17MOL   O228 5060   0.606   7.878   2.415 -0.4570  0.5362  0.7796
   17MOL   C229 5061   0.554   7.864   2.540 -0.6027 -0.8649  0.4477
   17MOL   O230 5062   0.439   7.831   2.562 -0.0871  0.3347 -0.6102
   17MOL   C231 5063   0.647   7.908   2.653  0.0394  0.1231 -0.4713
   17MOL   C232 5064   0.564   0.001   2.785  0.2870 -0.2546 -0.2027
   17MOL   C233 5065   0.560   0.023   2.186 -0.6155 -0.0436  0.4105
   17MOL   H234 5066   0.420   7.863   2.317 -0.6612  2.0405 -2.0824
   17MOL   H235 5067   0.712   7.828   2.688  0.8014  1.3871  1.0753
   17MOL   H236 5068   0.709   0.047   2.619 -0.1607  0.3556 -0.2671
   17MOL   H237 5069   0.505   0.091   2.769  0.0231 -0.9670 -3.8080
   17MOL   H238 5070   0.487   7.870   2.798  1.0506 -0.6179  2.3074
   17MOL   H239 5071   0.626   0.021   2.872  1.3031  0.1533 -1.0064
   17MOL   H240 5072   0.584   0.115   2.240  1.6333  0.1442 -0.8495
   17MOL   H241 5073   0.651   0.004   2.129  0.0723  0.5336  1.3119
   17MOL   C242 5074   0.450   0.060   2.085 -0.0783 -0.4003  0.1761
   17MOL   O243 5075   0.370   0.146   2.159  0.1043  0.4611 -0.1434
   17MOL   C244 5076   0.239   0.159   2.138  0.0692  0.1308 -0.5148
   17MOL   O245 5077   0.175   0.087   2.060 -0.5663 -0.0412  0.1407
   17MOL   C246 5078   0.182   0.269   2.219  0.5671 -0.0318  0.5093
   17MOL   C247 5079   0.205   0.261   2.374  0.0246  0.5709  0.1977
   17MOL   C248 5080   0.513   0.129   1.967 -0.5251 -0.4616  0.4386
   17MOL   H249 5081   0.392   7.915   2.060  1.0665 -1.6518  1.9310
   17MOL   H250 5082   0.229   0.359   2.180  1.3511 -0.7167 -0.1697
   17MOL   H251 5083   0.074   0.267   2.209  0.7142  0.7677 -1.4644
   17MOL   H252 5084   0.251   0.175   2.423  1.0296  0.3073 -1.1782
   17MOL   H253 5085   0.271   0.343   2.401 -1.2472  2.2547 -1.7487
   17MOL   H254 5086   0.103   0.279   2.409  0.2696  4.2029 -0.7662
   17MOL   H255 5087   0.554   0.226   1.995 -0.0170 -0.5953  0.1760
   17MOL   H256 5088   0.601   0.070   1.941  1.6448  3.0404 -0.5082
   17MOL   C257 5089   0.432   0.141   1.839 -0.5621  0.6092 -0.6816
   17MOL   O258 5090   0.507   0.216   1.742 -0.1772 -0.6199 -0.4705
   17MOL   C259 5091   0.455   0.326   1.671  0.7752  0.2966  0.0492
   17MOL   O260 5092   0.344   0.377   1.690  0.5474  0.5630  0.1038
   17MOL   C261 5093   0.560   0.400   1.599  0.1795 -0.0462 -0.1566
   17MOL   C262 5094   0.629   0.298   1.509 -0.0621  0.0993  0.1735
   17MOL   C263 5095   0.394   0.003   1.773  0.4443 -0.7556 -0.2570
   17MOL   H264 5096   0.340   0.191   1.869  0.4993  2.7496 -0.9745
   17MOL   H265 5097   0.509   0.479   1.545  0.6660  0.6435  0.3925
   17MOL   H266 5098   0.633   0.432   1.674  0.3783 -0.6626 -0.0831
   17MOL   H267 5099   0.697   0.335   1.432 -0.8603 -0.9212 -1.0429
   17MOL   H268 5100   0.686   0.224   1.565 -0.7935  0.2586  1.1335
   17MOL   H269 5101   0.559   0.236   1.452 -1.4901  1.6034  0.2718
   17MOL   H270 5102   0.481   7.903   1.724  0.5789  1.0603 -1.7569
   17MOL   H271 5103   0.366   7.878   1.852 -2.1888  0.5383  0.0018
   17MOL   C272 5104   0.281   0.006   1.662  0.5433  0.1172  0.1982
   17MOL   O273 5105   0.282   7.835   1.575 -0.1001  0.3088 -0.1367
   17MOL   C274 5106   0.367   7.824   1.463  0.4374  0.2657  0.2962
   17MOL   O275 5107   0.446   7.906   1.434 -0.4458  0.3137  0.0381
   17MOL   C276 5108   0.327   7.712   1.363  0.1853 -0.2453 -0.0994
   17MOL   C277 5109   0.416   7.719   1.240  0.5661  0.3941  0.2789
   17MOL   C278 5110   0.140   0.027   1.725 -0.3478  0.6772  0.6591
   17MOL   H279 5111   0.303   0.097   1.605  1.0180  0.6534  1.2198
   17MOL   H280 5112   0.348   7.624   1.424 -2.5354  0.0854  1.3672
   17MOL   H281 5113   0.225   7.699   1.327  0.5612 -0.7049 -1.0235
   17MOL   H282 5114   0.419   7.801   1.169 -1.2333 -0.8609 -1.2841
   17MOL   H283 5115   0.518   7.698   1.275  0.8196 -0.6012 -1.0363
   17MOL   H284 5116   0.392   7.632   1.179  0.1123 -0.0248  1.0429
   17MOL   H285 5117   0.111   7.870   1.752 -0.2382  0.6017  0.4945
   17MOL   H286 5118   0.137   0.082   1.819  0.5245  2.5664 -0.3847
   17MOL   C287 5119   0.040   0.089   1.634  0.5538  0.0904 -0.4500
   17MOL   O288 5120   7.940   7.943   1.528 -0.5803  0.5468 -0.4980
   17MOL   C289 5121   0.037   0.009   1.403 -0.3438  0.3332  0.7116
   17MOL   O290 5122   0.134   0.074   1.361 -0.0983  0.1714  0.4557
   17MOL   C291 5123   7.912   7.858   1.313  0.2072 -0.2704  0.1666
   17MOL   C292 5124   7.822   7.930   1.210 -0.4128  0.1729 -0.5308
   17MOL   C293 5125   7.854   0.143   1.704 -0.1828  0.4801 -0.2967
   17MOL   H294 5126   0.100   0.171   1.592  0.2146  0.6181  0.0883
   17MOL   H295 5127   0.051   7.821   1.255 -0.2305 -0.3170 -0.4390
   17MOL   H296 5128   7.872   7.774   1.369  0.0203  2.1011  3.7890
   17MOL   H297 5129   7.885   0.035   1.136  1.3386 -2.1283 -0.6238
   17MOL   H298 5130   7.743   7.871   1.163 -2.6594  2.5586  0.0684
   17MOL   H299 5131   7.761   0.061   1.260 -0.1325 -1.8427  3.0262
   17MOL   H300 5132   7.813   0.216   1.634  0.0855  1.3265  0.4138
   17MOL   H301 5133   7.783   0.064   1.725  0.6549 -0.1377  0.2481
   17MOL   H302 5134   7.865   0.198   1.797  2.2486  0.0422 -0.2904
   18MOL     C1 5135   7.644   1.672   1.592 -1.1019  0.1364  0.1588
   18MOL     O2 5136   7.724   1.612   1.689 -0.4197  0.1805  0.4435
   18MOL     C3 5137   7.769   1.682   1.789 -0.1597  0.2331 -0.3959
   18MOL     O4 5138   7.752   1.798   1.812 -0.1510  0.0564 -0.1067
   18MOL     C5 5139   7.838   1.582   1.885  0.0979 -0.3662 -0.4642
   18MOL     C6 5140   0.003   1.645   1.969 -0.6438 -0.3327 -0.1397
   18MOL     C7 5141   7.494   1.652   1.623  0.3538  0.3096  0.1920
   18MOL     H8 5142   7.669   1.627   1.496  1.0730  0.6341  0.4560
   18MOL     H9 5143   7.756   1.540   1.944  0.2627  0.8541  0.6610
   18MOL    H10 5144   7.880   1.493   1.839 -1.5156 -0.3824 -1.9378
   18MOL    H11 5145   7.914   1.717   2.045 -0.0149 -1.3221  1.0937
   18MOL    H12 5146   0.071   1.570   2.010 -1.0734 -0.8498 -0.3724
   18MOL    H13 5147   0.071   1.702   1.907  0.1865 -0.7393  0.3929
   18MOL    H14 5148   7.463   1.549   1.637 -0.8241  0.5272 -0.8152
   18MOL    H15 5149   7.471   1.695   1.720 -0.9832 -3.4874  1.6363
   18MOL    H16 5150   7.677   1.775   1.577 -2.1790  0.5085  0.2953
   18MOL    C17 5151   7.401   1.714   1.514 -0.7665 -0.7234 -0.3590
   18MOL    O18 5152   7.265   1.665   1.513 -0.2891 -0.1437 -1.1064
   18MOL    C19 5153   7.237   1.563   1.439  0.6741 -0.3145 -0.1733
   18MOL    O20 5154   7.309   1.497   1.362 -0.3329  0.3454  0.5060
   18MOL    C21 5155   7.092   1.532   1.456  0.2194  0.1017  0.0251
   18MOL    C22 5156   7.016   1.469   1.338 -0.5250  0.0139  0.0693
   18MOL    C23 5157   7.399   1.869   1.534  0.2129  0.2494 -1.1794
   18MOL    H24 5158   7.442   1.696   1.415  0.8568  1.7473 -0.1784
   18MOL    H25 5159   7.102   1.454   1.532  1.2359 -0.0542 -0.2559
   18MOL    H26 5160   7.039   1.608   1.512 -2.0353 -2.0816  0.9662
   18MOL    H27 5161   6.965   1.547   1.282  0.4502 -0.1322 -1.0202
   18MOL    H28 5162   7.089   1.423   1.272 -0.9664 -1.5493  0.6487
   18MOL    H29 5163   6.933   1.403   1.364 -0.1861 -0.3845  0.1332
   18MOL    H30 5164   7.305   1.895   1.583 -0.8881 -0.7118 -2.7139
   18MOL    H31 5165   7.487   1.884   1.596  1.5248 -2.0816 -2.3974
   18MOL    C32 5166   7.421   1.953   1.408  0.5558 -0.3704 -0.4438
   18MOL    O33 5167   7.293   1.960   1.346 -0.1480  0.3846 -0.4338
   18MOL    C34 5168   7.271   1.913   1.219 -0.0849  0.9571 -0.3703
   18MOL    O35 5169   7.359   1.855   1.156 -0.6827 -0.0531 -0.0775
   18MOL    C36 5170   7.129   1.918   1.170  0.5808 -0.0567  0.0848
   18MOL    C37 5171   7.055   1.795   1.229 -0.1558 -0.6048  0.3908
   18MOL    C38 5172   7.454   2.101   1.438 -0.5579  0.3743 -0.5750
   18MOL    H39 5173   7.502   1.906   1.352 -1.5273 -3.5765 -0.8425
   18MOL    H40 5174   7.090   2.019   1.185 -3.1371 -1.0971 -1.8718
   18MOL    H41 5175   7.131   1.900   1.063 -0.3621  2.2956 -0.3539
   18MOL    H42 5176   7.031   1.802   1.335  0.2849 -1.5294  0.5598
   18MOL    H43 5177   6.963   1.774   1.174 -0.5195 -2.7647  1.7461
   18MOL    H44 5178   7.114   1.704   1.215  0.7286 -0.0335  0.3418
   18MOL    H45 5179   7.427   2.169   1.357  1.0521  1.3928 -0.2947
   18MOL    H46 5180   7.389   2.126   1.522 -2.4422 -0.4088 -1.7727
   18MOL    C47 5181   7.608   2.121   1.482  0.0655  0.3633  0.3136
   18MOL    O48 5182   7.669   2.086   1.360  0.4376  0.0340  0.9007
   18MOL    C49 5183   7.748   1.984   1.338 -0.8029 -0.0624  0.5047
   18MOL    O50 5184   7.784   1.904   1.418 -0.2461 -0.3812 -0.4735
   18MOL    C51 5185   7.783   1.993   1.189  0.1567  0.3644 -1.0384
   18MOL    C52 5186   7.671   2.030   1.100  0.0099  0.2767 -0.0727
   18MOL    C53 5187   7.652   2.267   1.511  0.2065 -0.0853  0.3431
   18MOL    H54 5188   7.631   2.051   1.562  0.8334  2.0790  1.6350
   18MOL    H55 5189   7.858   2.071   1.178  2.3667 -1.1646  2.1453
   18MOL    H56 5190   7.829   1.903   1.149 -1.3742 -0.2576 -1.4040
   18MOL    H57 5191   7.575   1.995   1.136 -0.0819  3.4652  2.9427
   18MOL    H58 5192   7.666   2.138   1.093  1.0236  0.3137 -0.3988
   18MOL    H59 5193   7.689   2.003   0.995  0.2645  0.2003 -0.0109
   18MOL    H60 5194   7.760   2.277   1.515  0.1512  0.1650  1.4347
   18MOL    H61 5195   7.617   2.329   1.428 -0.4946  1.1593  1.5450
   18MOL    C62 5196   7.579   2.326   1.636  0.5836  0.2314  0.3762
   18MOL    O63 5197   7.617   2.254   1.759  0.1160  0.2655 -0.1616
   18MOL    C64 5198   7.545   2.156   1.809 -0.0838  0.3451  0.3129
   18MOL    O65 5199   7.439   2.109   1.759 -0.0663 -0.2007  0.1671
   18MOL    C66 5200   7.604   2.096   1.934  0.2325 -0.2278 -0.4617
   18MOL    C67 5201   7.500   2.041   2.038 -0.1978  0.1084  0.2765
   18MOL    C68 5202   7.625   2.480   1.640  0.3022  0.5114  0.1267
   18MOL    H69 5203   7.473   2.310   1.617  0.5085 -0.4800  1.3729
   18MOL    H70 5204   7.670   2.018   1.896  2.2846  1.2703 -0.0097
   18MOL    H71 5205   7.663   2.171   1.986  1.0202 -0.2894 -1.2552
   18MOL    H72 5206   7.412   2.105   2.050 -2.3096 -2.9482  1.7887
   18MOL    H73 5207   7.453   1.949   2.002 -0.5148 -0.0312  1.0381
   18MOL    H74 5208   7.548   2.014   2.133 -1.5126  0.3961  1.0321
   18MOL    H75 5209   7.734   2.478   1.652  0.5492 -1.5366 -2.1693
   18MOL    H76 5210   7.605   2.524   1.542 -0.4867  0.1415  0.1192
   18MOL    C77 5211   7.560   2.566   1.752  0.0555 -0.1419  0.5420
   18MOL    O78 5212   7.606   2.519   1.881 -0.1498 -0.6890 -0.3900
   18MOL    C79 5213   7.523   2.471   1.977 -0.3597  0.0642 -0.1386
   18MOL    O80 5214   7.404   2.444   1.966  0.0780  0.0460 -0.3688
   18MOL    C81 5215   7.604   2.452   2.107  0.4320 -0.4626 -0.4908
   18MOL    C82 5216   7.661   2.575   2.175  0.5892 -0.6907  0.0700
   18MOL    C83 5217   7.598   2.717   1.749  0.1019  0.2346  0.0759
   18MOL    H84 5218   7.451   2.564   1.749  0.0721  1.0057 -3.0518
   18MOL    H85 5219   7.535   2.409   2.179  1.2518 -0.0840  0.5409
   18MOL    H86 5220   7.687   2.385   2.081  1.2084  0.4972 -0.5209
   18MOL    H87 5221   7.592   2.644   2.223  1.5213 -1.0927  2.0288
   18MOL    H88 5222   7.725   2.540   2.256 -0.4699 -2.5891  0.1158
   18MOL    H89 5223   7.716   2.638   2.105 -1.5249 -0.6303 -1.5646
   18MOL    H90 5224   7.692   2.724   1.804 -1.3857  0.8305  2.5822
   18MOL    H91 5225   7.601   2.747   1.644 -1.2199  1.8939  0.4884
   18MOL    C92 5226   7.496   2.812   1.809  0.4982  0.3409 -0.1786
   18MOL    O93 5227   7.443   2.777   1.939  0.3007  0.3441 -0.1122
   18MOL    C94 5228   7.313   2.754   1.952  0.3311  0.2192 -0.0837
   18MOL    O95 5229   7.233   2.752   1.859 -0.2644 -0.0842 -0.5281
   18MOL    C96 5230   7.273   2.720   2.094  0.4788 -0.6757  0.3648
   18MOL    C97 5231   7.120   2.677   2.106  0.6646 -0.7075  0.3747
   18MOL    C98 5232   7.561   2.954   1.806 -0.5380 -0.1769  0.0936
   18MOL    H99 5233   7.416   2.820   1.736 -1.0750 -0.5178  1.4045
   18MOL   H100 5234   7.345   2.647   2.131  1.5043  0.2023  0.1395
   18MOL   H101 5235   7.286   2.814   2.148 -0.1148  0.6559 -1.7309
   18MOL   H102 5236   7.099   2.593   2.039 -0.6239  1.3133 -1.8213
   18MOL   H103 5237   7.092   2.656   2.210 -0.7789  1.7600  0.5202
   18MOL   H104 5238   7.053   2.759   2.079  1.5653 -0.1757 -0.2613
   18MOL   H105 5239   7.610   2.968   1.709 -1.5557  1.9952 -0.1389
   18MOL   H106 5240   7.486   3.032   1.813 -1.6040 -1.3793  2.3662
   18MOL   C107 5241   7.663   2.988   1.915 -0.0192  0.6298  0.8649
   18MOL   O108 5242   7.765   3.071   1.855  0.1214  0.2901  0.5117
   18MOL   C109 5243   7.887   3.023   1.845 -0.0782  0.3092 -0.1721
   18MOL   O110 5244   7.929   2.912   1.880  0.1557 -0.1751  0.0169
   18MOL   C111 5245   0.031   3.125   1.772 -0.6302  0.9134  0.4505
   18MOL   C112 5246   0.083   3.090   1.630 -0.3200  0.9104  0.1336
   18MOL   C113 5247   7.604   3.060   2.037  0.1446  0.0146  0.6263
   18MOL   H114 5248   7.714   2.898   1.949  3.5009  2.3858  0.4795
   18MOL   H115 5249   7.907   3.209   1.757 -0.1790  1.3503  0.8042
   18MOL   H116 5250   0.114   3.159   1.834  0.5948 -2.1670  0.5887
   18MOL   H117 5251   0.097   3.183   1.574  0.0338 -0.0912 -1.4689
   18MOL   H118 5252   0.179   3.038   1.627  0.8122  2.8985  0.1785
   18MOL   H119 5253   0.014   3.033   1.568  1.1967  0.7153 -1.4430
   18MOL   H120 5254   7.592   3.161   1.997  2.5430  0.9619  2.1923
   18MOL   H121 5255   7.504   3.017   2.047  0.7572 -2.6560 -3.3333
   18MOL   C122 5256   7.689   3.056   2.164  0.0150 -0.2758 -0.1854
   18MOL   O123 5257   7.602   3.118   2.263  0.6885  0.3052 -0.2923
   18MOL   C124 5258   7.631   3.227   2.342 -0.7885 -0.5970 -0.0801
   18MOL   O125 5259   7.739   3.289   2.345 -0.2985 -0.4121  0.2835
   18MOL   C126 5260   7.507   3.276   2.413  0.3560  0.5608  0.1724
   18MOL   C127 5261   7.446   3.401   2.344  0.3934  1.0066  0.1137
   18MOL   C128 5262   7.734   2.916   2.212  0.1232 -0.2747 -0.5674
   18MOL   H129 5263   7.771   3.127   2.151  2.0400 -2.6314 -0.6594
   18MOL   H130 5264   7.440   3.193   2.433  4.3939 -2.8694  0.1427
   18MOL   H131 5265   7.551   3.290   2.512  0.5317  0.8176  0.0585
   18MOL   H132 5266   7.397   3.466   2.416 -2.7606 -0.6808 -0.4444
   18MOL   H133 5267   7.520   3.468   2.301  1.6540  0.3212  1.1846
   18MOL   H134 5268   7.371   3.363   2.275  0.5456 -0.6019  0.8032
   18MOL   H135 5269   7.653   2.843   2.206 -1.4535  1.5379 -1.8332
   18MOL   H136 5270   7.809   2.875   2.145  1.9681  0.7949  0.7959
   18MOL   C137 5271   7.793   2.928   2.360  0.6832  0.0954  0.1555
   18MOL   O138 5272   7.788   2.801   2.420 -0.2055  0.0315 -0.0040
   18MOL   C139 5273   7.723   2.773   2.538  0.0867 -0.2476  0.0771
   18MOL   O140 5274   7.669   2.855   2.614 -0.1870 -0.7387  0.0247
   18MOL   C141 5275   7.735   2.624   2.561 -0.4096  0.3010  0.2650
   18MOL   C142 5276   7.843   2.586   2.659 -0.3686  0.5254  0.2022
   18MOL   C143 5277   7.937   2.976   2.356  0.2752  0.4427  0.1673
   18MOL   H144 5278   7.727   2.996   2.414 -2.1379 -0.7860 -1.9970
   18MOL   H145 5279   7.634   2.591   2.585 -1.2684  1.7324 -1.2514
   18MOL   H146 5280   7.767   2.570   2.472 -1.1840  0.7966 -0.3137
   18MOL   H147 5281   7.931   2.647   2.644 -0.0383 -0.0060 -0.0172
   18MOL   H148 5282   7.801   2.595   2.760 -0.3784 -2.1470  0.4776
   18MOL   H149 5283   7.893   2.489   2.655 -1.4955  0.0031 -1.8544
   18MOL   H150 5284   0.058   2.898   2.317  1.0183 -0.1820  2.5920
   18MOL   H151 5285   7.944   3.067   2.296 -1.5489 -0.1395 -0.9507
   18MOL   C152 5286   0.061   3.016   2.491  0.0485  0.2112  0.1229
   18MOL   O153 5287   0.199   3.055   2.467  0.3568  0.3886  0.7923
   18MOL   C154 5288   0.299   2.970   2.514  1.0430  0.0705 -0.3931
   18MOL   O155 5289   0.278   2.864   2.577  0.0868 -0.0386  0.1769
   18MOL   C156 5290   0.435   3.019   2.470  0.5488  0.3701 -0.3799
   18MOL   C157 5291   0.544   2.932   2.537 -0.0011  0.7093  0.2264
   18MOL   C158 5292   7.923   3.127   2.563  0.1452 -0.4050 -0.0455
   18MOL   H159 5293   0.061   2.934   2.562 -2.2453 -0.9863 -1.2352
   18MOL   H160 5294   0.444   3.006   2.362 -0.9344 -1.0207 -0.3680
   18MOL   H161 5295   0.464   3.121   2.496  0.4356  0.4415 -0.5303
   18MOL   H162 5296   0.639   2.959   2.491 -0.5459  0.5299 -1.0455
   18MOL   H163 5297   0.547   2.954   2.643  1.2283 -1.3487  0.6393
   18MOL   H164 5298   0.518   2.828   2.522 -2.2738  1.4517 -1.2718
   18MOL   H165 5299   7.909   3.213   2.498  0.3633 -0.2559  0.1014
   18MOL   H166 5300   7.826   3.080   2.573  0.6222 -1.1277  1.3788
   18MOL   C167 5301   0.025   3.169   2.701  0.3340  0.3146  0.5459
   18MOL   O168 5302   7.885   3.275   2.738 -0.4580  0.5521  0.1398
   18MOL   C169 5303   7.942   3.402   2.739 -0.2023 -0.2394 -0.0654
   18MOL   O170 5304   0.114   3.429   2.708 -0.0568  0.0023 -0.3857
   18MOL   C171 5305   7.839   3.506   2.762  0.0200 -0.3852  0.0939
   18MOL   C172 5306   7.716   3.509   2.661  0.1828  0.9018 -0.0508
   18MOL   C173 5307   0.001   3.057   2.809 -0.3076  0.0781  0.2571
   18MOL   H174 5308   0.131   3.183   2.679  0.3306 -1.8862 -1.0997
   18MOL   H175 5309   7.808   3.490   2.866 -0.4843 -1.3969 -0.2007
   18MOL   H176 5310   7.887   3.604   2.761  0.8073 -0.7718 -0.7701
   18MOL   H177 5311   7.675   3.609   2.650 -0.4323  0.7365  0.7307
   18MOL   H178 5312   7.739   3.462   2.565  0.4727 -1.5485  1.1849
   18MOL   H179 5313   7.633   3.448   2.697 -0.6048  0.2239 -2.8462
   18MOL   H180 5314   7.841   3.028   2.803 -0.2821  0.0545 -0.0767
   18MOL   H181 5315   0.030   2.968   2.754  1.0207 -0.5522  1.9454
   18MOL   C182 5316   0.063   3.077   2.947 -0.1074 -0.4450 -0.3076
   18MOL   O183 5317   0.035   2.965   3.032 -0.4086  0.2078  0.4835
   18MOL   C184 5318   7.941   2.975   3.155 -0.5613  0.4541 -0.9302
   18MOL   O185 5319   7.892   3.074   3.213  0.3672 -0.3930 -0.3075
   18MOL   C186 5320   0.001   2.835   3.232  0.3387 -0.4887 -0.2242
   18MOL   C187 5321   7.832   2.836   3.344 -0.3257  0.4291 -0.3125
   18MOL   C188 5322   0.217   3.115   2.958 -0.2420  1.1105 -0.4994
   18MOL   H189 5323   0.010   3.163   2.990 -0.9055 -1.1780  0.1974
   18MOL   H190 5324   7.922   2.761   3.156  1.3727 -0.7590 -0.2936
   18MOL   H191 5325   0.104   2.812   3.260  0.8271 -0.3370 -1.8919
   18MOL   H192 5326   7.735   2.837   3.293 -1.6111 -1.2594  1.9980
   18MOL   H193 5327   7.840   2.740   3.394 -0.6533  0.4148 -0.2839
   18MOL   H194 5328   7.842   2.919   3.415  0.9881 -1.4477  1.7343
   18MOL   H195 5329   0.277   3.025   2.942 -0.8739  0.8851 -1.7084
   18MOL   H196 5330   0.233   3.172   2.867 -0.5087  0.8537 -0.7134
   18MOL   C197 5331   0.268   3.182   3.089  0.6349 -0.1000 -0.1350
   18MOL   O198 5332   0.411   3.177   3.105 -0.3822 -0.2629 -0.2349
   18MOL   C199 5333   0.479   3.069   3.152 -0.1230 -0.5980 -0.2790
   18MOL   O200 5334   0.434   2.961   3.170 -0.4132 -0.2669 -0.3834
   18MOL   C201 5335   0.618   3.103   3.192 -0.3760  0.9335  0.0298
   18MOL   C202 5336   0.715   3.087   3.072 -0.3937  0.3661  0.2207
   18MOL   C203 5337   0.226   3.336   3.095  0.5340  0.0027 -0.3403
   18MOL   H204 5338   0.215   3.131   3.169 -1.1350  0.2146 -1.0914
   18MOL   H205 5339   0.621   3.204   3.235  1.2727  1.1174 -0.5084
   18MOL   H206 5340   0.658   3.037   3.269  0.1239  0.8813 -0.2808
   18MOL   H207 5341   0.757   2.988   3.086 -1.5468 -0.2050 -0.2328
   18MOL   H208 5342   0.665   3.080   2.975  0.0387  0.3203  0.0041
   18MOL   H209 5343   0.795   3.160   3.074 -0.1471  0.1013  0.0040
   18MOL   H210 5344   0.282   3.397   3.024 -2.9384  0.2336 -3.0337
   18MOL   H211 5345   0.128   3.351   3.051 -0.0435 -3.9543 -0.6400
   18MOL   C212 5346   0.245   3.417   3.226  0.2537 -0.0089  0.3802
   18MOL   O213 5347   0.196   3.548   3.203  0.0361  0.1526  0.3069
   18MOL   C214 5348   0.262   3.662   3.245  0.1683  0.6936  0.8122
   18MOL   O215 5349   0.367   3.667   3.302  0.3191  0.2490 -0.5495
   18MOL   C216 5350   0.185   3.792   3.220  0.5504 -0.2085 -0.0260
   18MOL   C217 5351   0.267   3.928   3.232  0.7219  0.2594 -0.1087
   18MOL   C218 5352   0.172   3.353   3.345  0.3395  0.3664 -0.0362
   18MOL   H219 5353   0.350   3.438   3.248  0.0254  2.8158 -0.9330
   18MOL   H220 5354   0.170   3.779   3.113 -1.9200 -0.8169  0.3616
   18MOL   H221 5355   0.091   3.799   3.275  1.1747 -1.1541  1.1858
   18MOL   H222 5356   0.250   3.989   3.143  0.7618 -0.6444 -0.7397
   18MOL   H223 5357   0.235   3.993   3.314  0.0742  0.3965 -0.4631
   18MOL   H224 5358   0.373   3.908   3.244  0.3786 -1.3782  0.3286
   18MOL   H225 5359   0.153   3.437   3.411  0.2934  0.2309  0.1239
   18MOL   H226 5360   0.070   3.320   3.323  0.0990  0.0358  1.5319
   18MOL   C227 5361   0.259   3.266   3.435  0.7354 -0.8327 -0.2674
   18MOL   O228 5362   0.361   3.350   3.497 -0.3461 -0.4582  0.7637
   18MOL   C229 5363   0.484   3.301   3.517  0.1479  0.2343  0.2343
   18MOL   O230 5364   0.516   3.185   3.496 -0.0712 -0.0370 -0.5617
   18MOL   C231 5365   0.592   3.403   3.564 -0.8068 -0.2163  0.1671
   18MOL   C232 5366   0.705   3.422   3.470  0.0411 -0.3910  0.8300
   18MOL   C233 5367   0.170   3.181   3.537  0.4148  0.0055  0.4095
   18MOL   H234 5368   0.299   3.195   3.363 -0.9005 -2.1789  0.1125
   18MOL   H235 5369   0.542   3.499   3.579 -0.6904  0.2703 -2.4503
   18MOL   H236 5370   0.608   3.360   3.663 -0.8763  0.7408  0.6102
   18MOL   H237 5371   0.707   3.529   3.452 -2.0302 -0.4340  0.1837
   18MOL   H238 5372   0.788   3.392   3.534  0.3482  0.3537  0.7863
   18MOL   H239 5373   0.702   3.356   3.383  3.0149 -0.7163  0.9107
   18MOL   H240 5374   0.118   3.108   3.476 -0.5587  0.6533  0.4500
   18MOL   H241 5375   0.240   3.132   3.604  2.4527  0.1253 -1.5779
   18MOL   C242 5376   0.065   3.256   3.621 -0.1128 -0.5646  0.1193
   18MOL   O243 5377   7.937   3.161   3.691  0.1556 -0.0520  0.0398
   18MOL   C244 5378   7.810   3.121   3.650 -0.2674 -0.1727  0.2865
   18MOL   O245 5379   7.755   3.177   3.554 -0.0165  0.2095 -0.2471
   18MOL   C246 5380   7.763   2.994   3.720  0.7363  0.0736 -0.7012
   18MOL   C247 5381   7.750   3.024   3.867  0.5341 -0.4180  0.2089
   18MOL   C248 5382   0.126   3.363   3.712 -0.4778  0.2208 -0.4845
   18MOL   H249 5383   0.003   3.312   3.550  1.2279  5.6518  3.5212
   18MOL   H250 5384   7.673   2.959   3.670 -0.6692  1.2375  0.9584
   18MOL   H251 5385   7.844   2.922   3.706  0.9407  0.4001 -1.2355
   18MOL   H252 5386   7.753   2.929   3.919 -1.0045 -1.1806 -1.0783
   18MOL   H253 5387   7.831   3.088   3.902  1.8638 -2.0521  0.1605
   18MOL   H254 5388   7.654   3.076   3.876 -0.3159 -0.9560 -4.4452
   18MOL   H255 5389   0.148   3.302   3.799  2.4937  2.5782  0.5133
   18MOL   H256 5390   0.221   3.411   3.686  0.9562 -1.7214  1.1207
   18MOL   C257 5391   0.017   3.470   3.758  0.4179 -0.2357  0.0734
   18MOL   O258 5392   0.060   3.508   3.890  0.4248  0.1436  0.1548
   18MOL   C259 5393   7.912   3.504   3.985  0.3552  0.0762 -0.1734
   18MOL   O260 5394   7.800   3.466   3.975 -0.7308  0.2371 -0.1989
   18MOL   C261 5395   0.020   3.564   4.115  0.4765 -0.2270 -0.6109
   18MOL   C262 5396   7.858   3.639   4.194  0.1213 -0.0865  0.2025
   18MOL   C263 5397   0.013   3.598   3.671  0.7056  0.6138  0.2685
   18MOL   H264 5398   7.871   3.410   3.757  0.0071  0.3051  1.6898
   18MOL   H265 5399   0.068   3.489   4.178  1.9978 -0.4704 -2.0388
   18MOL   H266 5400   0.098   3.633   4.081  0.1328  0.4959  0.0534
   18MOL   H267 5401   7.773   3.572   4.211  0.0207 -0.1601 -0.5647
   18MOL   H268 5402   7.886   3.687   4.287 -1.7050  1.6376 -0.0894
   18MOL   H269 5403   7.826   3.727   4.139  0.2668  0.0699  0.3703
   18MOL   H270 5404   0.050   3.684   3.727 -2.3623  0.1140  3.2054
   18MOL   H271 5405   0.096   3.588   3.601  0.3723 -0.5367  0.0267
   18MOL   C272 5406   7.831   3.633   3.597  0.2994 -0.9070 -0.5529
   18MOL   O273 5407   7.791   3.529   3.518  0.2635 -0.1389  0.5122
   18MOL   C274 5408   7.820   3.533   3.388 -0.3660 -0.8984  1.1185
   18MOL   O275 5409   7.878   3.626   3.327 -0.1021  0.1896  0.7035
   18MOL   C276 5410   7.746   3.418   3.318 -0.9968  0.3447  0.4463
   18MOL   C277 5411   7.765   3.427   3.163 -0.8120 -0.7087  0.2961
   18MOL   C278 5412   7.714   3.657   3.696  0.2153  0.3485  0.9206
   18MOL   H279 5413   7.846   3.726   3.541  1.0184  0.4713  1.8359
   18MOL   H280 5414   7.787   3.325   3.357 -1.9125 -0.2519  0.0094
   18MOL   H281 5415   7.640   3.425   3.340 -0.6565  3.6073  1.2413
   18MOL   H282 5416   7.744   3.335   3.109 -0.0942 -0.7479  0.0760
   18MOL   H283 5417   7.698   3.503   3.123 -0.1395  1.0909  2.4629
   18MOL   H284 5418   7.867   3.454   3.135  0.1843 -3.9232  0.6320
   18MOL   H285 5419   7.620   3.668   3.642  0.3684 -0.5822  0.4589
   18MOL   H286 5420   7.697   3.588   3.779 -1.9685 -1.2329 -0.7630
   18MOL   C287 5421   7.734   3.791   3.776 -0.1523  0.0878  0.4554
   18MOL   O288 5422   7.728   3.904   3.683 -0.3260  0.3541  0.3480
   18MOL   C289 5423   7.822   4.003   3.693  0.7573 -0.3300  0.8149
   18MOL   O290 5424   7.906   4.014   3.781 -0.4741  0.7390  0.3323
   18MOL   C291 5425   7.842   4.096   3.575  0.1090 -0.0422  0.2228
   18MOL   C292 5426   7.733   4.212   3.574  0.5695  0.2452 -0.6828
   18MOL   C293 5427   7.619   3.804   3.877  0.0404  0.1166 -0.6968
   18MOL   H294 5428   7.833   3.783   3.822 -0.2477  0.6741  0.7585
   18MOL   H295 5429   7.941   4.140   3.582  0.5577 -0.4142 -3.1401
   18MOL   H296 5430   7.845   4.034   3.485  0.2247  0.7944 -0.3484
   18MOL   H297 5431   7.738   4.263   3.478  0.7028 -0.0842 -0.8504
   18MOL   H298 5432   7.632   4.178   3.594  0.6989 -0.2416 -0.8530
   18MOL   H299 5433   7.752   4.283   3.654 -2.2268 -1.6275  1.7467
   18MOL   H300 5434   7.641   3.892   3.938 -0.3863 -0.3485  0.1460
   18MOL   H301 5435   7.526   3.831   3.828 -0.8511  0.7576  1.2763
   18MOL   H302 5436   7.601   3.715   3.937 -0.1709  0.0659 -0.8362
   19MOL     C1 5437   5.240   1.488   3.706  0.1326 -0.3534 -0.2452
   19MOL     O2 5438   5.328   1.486   3.597  0.2657 -0.0104 -0.4483
   19MOL     C3 5439   5.288   1.435   3.484  0.3762 -0.0947  0.2968
   19MOL     O4 5440   5.174   1.390   3.453  0.1206 -0.2530 -0.3548
   19MOL     C5 5441   5.387   1.431   3.377 -0.4302 -0.9431  0.2242
   19MOL     C6 5442   5.506   1.343   3.418  0.1553 -0.2060 -0.3469
   19MOL     C7 5443   5.241   1.360   3.794 -0.7950 -0.3305 -0.2386
   19MOL     H8 5444   5.139   1.506   3.669 -0.3656 -3.4761 -0.5305
   19MOL     H9 5445   5.339   1.401   3.284  0.2335  0.1945 -0.5068
   19MOL    H10 5446   5.415   1.535   3.356 -1.7225 -1.2540 -3.3000
   19MOL    H11 5447   5.525   1.335   3.525 -0.1594  0.4246 -0.2394
   19MOL    H12 5448   5.502   1.252   3.357  2.1193 -0.1347 -0.6131
   19MOL    H13 5449   5.593   1.387   3.370 -0.3279 -0.4901 -1.4989
   19MOL    H14 5450   5.173   1.391   3.874 -0.3442  1.0764 -0.3891
   19MOL    H15 5451   5.184   1.283   3.742  1.3434 -1.1025 -1.4738
   19MOL    H16 5452   5.268   1.570   3.772 -0.3824  0.0967 -0.5772
   19MOL    C17 5453   5.378   1.310   3.847 -0.5389 -0.0321 -0.1537
   19MOL    O18 5454   5.455   1.405   3.915  0.1252  0.1021  0.3427
   19MOL    C19 5455   5.585   1.430   3.871 -0.2400 -0.4769 -0.0224
   19MOL    O20 5456   5.638   1.375   3.770  0.2465  0.5042 -0.2312
   19MOL    C21 5457   5.663   1.528   3.958  0.2928  0.5881  0.0275
   19MOL    C22 5458   5.781   1.602   3.888  0.2889 -0.1494 -0.5602
   19MOL    C23 5459   5.365   1.199   3.954 -0.0598 -0.7286 -0.0192
   19MOL    H24 5460   5.437   1.257   3.772  0.8198  2.6835 -1.0840
   19MOL    H25 5461   5.584   1.590   3.999  0.4329 -0.2984  1.6670
   19MOL    H26 5462   5.691   1.464   4.042  2.6662 -0.0250 -1.1818
   19MOL    H27 5463   5.757   1.700   3.847  0.8616  0.1809 -0.1259
   19MOL    H28 5464   5.868   1.619   3.952 -0.6192 -0.5031  0.7849
   19MOL    H29 5465   5.816   1.543   3.804 -2.0435  0.3419 -1.9249
   19MOL    H30 5466   5.458   1.172   4.004  2.2992  0.2822 -3.6321
   19MOL    H31 5467   5.298   1.249   4.024  1.1478  1.6222 -0.4902
   19MOL    C32 5468   5.307   1.065   3.891 -0.2926 -0.1630 -0.2875
   19MOL    O33 5469   5.412   1.002   3.823  0.0914  0.0694 -0.2431
   19MOL    C34 5470   5.414   0.983   3.687  1.1572 -0.5329 -0.1215
   19MOL    O35 5471   5.312   1.005   3.621 -0.0949 -0.1085  0.0711
   19MOL    C36 5472   5.544   0.914   3.636  0.1650 -0.3252  0.0905
   19MOL    C37 5473   5.641   1.018   3.578  0.1287 -0.2335  0.1402
   19MOL    C38 5474   5.263   0.972   4.000 -0.4495 -0.6057 -0.0701
   19MOL    H39 5475   5.219   1.085   3.830 -0.6508 -0.3768  0.1538
   19MOL    H40 5476   5.584   0.856   3.719 -2.9143 -1.2699  1.0014
   19MOL    H41 5477   5.518   0.844   3.557 -2.2716  0.2171  0.3569
   19MOL    H42 5478   5.650   1.092   3.658 -1.9667 -2.6056  2.6814
   19MOL    H43 5479   5.738   0.974   3.553 -0.7470 -1.9099 -0.3940
   19MOL    H44 5480   5.600   1.081   3.499  1.7274  1.2644  0.4675
   19MOL    H45 5481   5.225   0.877   3.962 -0.1746 -1.0633  0.7996
   19MOL    H46 5482   5.344   0.951   4.070 -1.9310 -0.3255  1.7501
   19MOL    C47 5483   5.145   1.027   4.093 -0.2253  0.1450  0.1823
   19MOL    O48 5484   5.034   1.033   4.007 -0.5979 -0.3665 -0.3927
   19MOL    C49 5485   4.968   1.145   3.997 -0.1144  0.4188 -0.4761
   19MOL    O50 5486   4.993   1.253   4.048 -0.0432  0.7280  0.2310
   19MOL    C51 5487   4.860   1.126   3.886 -0.3169 -0.3062  0.1379
   19MOL    C52 5488   4.735   1.049   3.925  0.1194 -0.3211  0.1725
   19MOL    C53 5489   5.100   0.915   4.193  0.1034  0.6237  0.4227
   19MOL    H54 5490   5.165   1.114   4.156 -2.3343  0.9970 -0.2813
   19MOL    H55 5491   4.835   1.222   3.841 -1.0413 -1.0163 -1.0083
   19MOL    H56 5492   4.909   1.074   3.803 -1.1757 -1.9034  0.6063
   19MOL    H57 5493   4.741   0.948   3.967 -3.1609 -1.0035 -0.8658
   19MOL    H58 5494   4.674   1.106   3.995 -2.2183 -0.4887 -1.6549
   19MOL    H59 5495   4.673   1.041   3.835 -0.3322 -3.8160  0.7208
   19MOL    H60 5496   5.013   0.856   4.163  0.9056 -1.1490  1.4576
   19MOL    H61 5497   5.178   0.838   4.190  0.9927  1.3789  2.7982
   19MOL    C62 5498   5.091   0.964   4.340 -0.3329 -0.1356 -0.0372
   19MOL    O63 5499   5.002   1.068   4.344 -0.0557  0.0496 -0.2769
   19MOL    C64 5500   5.025   1.188   4.401  0.3641 -0.0332 -0.0989
   19MOL    O65 5501   5.138   1.228   4.438 -0.6675 -0.5685 -0.1035
   19MOL    C66 5502   4.900   1.266   4.418  0.3725 -0.5175  0.1008
   19MOL    C67 5503   4.906   1.406   4.357 -0.6426 -0.0729  0.2053
   19MOL    C68 5504   5.054   0.843   4.432 -0.6176 -0.0993  0.0301
   19MOL    H69 5505   5.187   0.995   4.383 -0.0579 -2.0364  0.7620
   19MOL    H70 5506   4.824   1.226   4.352  1.4691  1.4183 -2.4253
   19MOL    H71 5507   4.868   1.271   4.522  1.5297  0.5694  0.4251
   19MOL    H72 5508   4.992   1.465   4.391 -1.3549  0.5730  0.8998
   19MOL    H73 5509   4.922   1.396   4.250  0.8093  3.1096  0.0566
   19MOL    H74 5510   4.815   1.465   4.370 -0.1950  0.2568  2.0512
   19MOL    H75 5511   5.022   0.878   4.530  0.6440 -0.3943  0.5601
   19MOL    H76 5512   4.958   0.803   4.400 -2.1636  2.9997  0.5775
   19MOL    C77 5513   5.149   0.727   4.458  0.5173 -0.0792  0.1513
   19MOL    O78 5514   5.241   0.760   4.551  0.3430 -0.3410 -0.2983
   19MOL    C79 5515   5.364   0.799   4.514  0.1363  0.4618 -0.4700
   19MOL    O80 5516   5.409   0.809   4.399 -0.1824 -0.4370  0.1600
   19MOL    C81 5517   5.449   0.823   4.631  0.2306 -0.0546  0.1730
   19MOL    C82 5518   5.428   0.950   4.718  0.2877 -0.5658 -0.3901
   19MOL    C83 5519   5.085   0.597   4.499  0.6285 -0.0378  0.5023
   19MOL    H84 5520   5.196   0.703   4.362  0.2300  0.5865 -0.1537
   19MOL    H85 5521   5.417   0.744   4.700  1.6585  0.1770  1.1125
   19MOL    H86 5522   5.556   0.810   4.616  0.3422  0.9667  0.0934
   19MOL    H87 5523   5.324   0.978   4.731  0.5700 -0.4675  1.7957
   19MOL    H88 5524   5.474   0.932   4.815  2.0265 -0.1622 -1.1125
   19MOL    H89 5525   5.480   1.037   4.678 -0.6459 -0.8002 -2.1840
   19MOL    H90 5526   5.018   0.554   4.424  0.6582 -1.5200  1.2975
   19MOL    H91 5527   5.167   0.527   4.487 -0.7540 -1.6278  0.1028
   19MOL    C92 5528   5.013   0.596   4.643  0.0870  0.0265  0.6214
   19MOL    O93 5529   4.896   0.674   4.633 -0.0318 -0.7237 -0.0560
   19MOL    C94 5530   4.846   0.737   4.744 -0.2867  0.5410  0.1949
   19MOL    O95 5531   4.896   0.731   4.854  0.1665  0.2093  0.0903
   19MOL    C96 5532   4.716   0.807   4.707 -0.3143 -0.0371  0.0763
   19MOL    C97 5533   4.727   0.888   4.576  0.1906  0.1143  0.3618
   19MOL    C98 5534   4.973   0.452   4.683 -0.2248 -0.1914  0.5070
   19MOL    H99 5535   5.078   0.646   4.714  2.5226 -0.1793 -1.3940
   19MOL   H100 5536   4.643   0.727   4.699  0.8548 -0.8930 -2.5307
   19MOL   H101 5537   4.682   0.875   4.785  2.4572  0.5716  0.8071
   19MOL   H102 5538   4.744   0.822   4.491  0.1959  0.4018  0.1396
   19MOL   H103 5539   4.635   0.940   4.551 -0.2587 -0.6348  0.4540
   19MOL   H104 5540   4.799   0.970   4.572  0.5001 -0.2911 -4.0727
   19MOL   H105 5541   4.919   0.459   4.777 -1.3116 -3.0009  0.1375
   19MOL   H106 5542   4.907   0.406   4.610 -0.9569 -0.9766  1.6595
   19MOL   C107 5543   5.085   0.353   4.723 -0.1031  0.1866  0.5426
   19MOL   O108 5544   5.132   0.291   4.600  0.6040  0.4222 -0.0443
   19MOL   C109 5545   5.087   0.170   4.560  0.0929  0.1203  0.2325
   19MOL   O110 5546   5.012   0.096   4.625  0.2013 -0.7969  0.4327
   19MOL   C111 5547   5.134   0.133   4.417 -0.9029  0.3597 -0.8296
   19MOL   C112 5548   5.081   0.246   4.325  0.3365  0.5566 -0.4235
   19MOL   C113 5549   5.218   0.410   4.782 -0.0526 -0.0888  0.9492
   19MOL   H114 5550   5.046   0.276   4.789  2.4666  0.4931  2.4688
   19MOL   H115 5551   5.241   0.140   4.397 -0.3525  0.0002  1.8427
   19MOL   H116 5552   5.091   0.034   4.399  0.1975 -0.0432 -1.3113
   19MOL   H117 5553   5.091   0.205   4.225  3.7016 -0.7156  0.3331
   19MOL   H118 5554   4.981   0.280   4.349  1.2184  1.7957  1.7168
   19MOL   H119 5555   5.143   0.336   4.326 -1.7250  2.0012 -1.1095
   19MOL   H120 5556   5.279   0.453   4.703  1.1153  1.1458  2.4897
   19MOL   H121 5557   5.192   0.494   4.845  2.0657 -0.2240  2.0694
   19MOL   C122 5558   5.301   0.314   4.864  0.3264  0.7039  0.0409
   19MOL   O123 5559   5.390   0.248   4.768  0.5413  0.1477 -0.0311
   19MOL   C124 5560   5.397   0.120   4.778 -0.1408 -0.2816  0.0905
   19MOL   O125 5561   5.333   0.053   4.859 -0.2425  0.2001 -0.1373
   19MOL   C126 5562   5.489   0.061   4.668  0.0579  0.0778 -0.2945
   19MOL   C127 5563   5.623   0.130   4.675  0.0679 -0.2199 -0.0078
   19MOL   C128 5564   5.403   0.387   4.952 -0.0879  0.7426  0.0837
   19MOL   H129 5565   5.236   0.247   4.920  1.5218 -1.3946 -1.0105
   19MOL   H130 5566   5.496   7.902   4.702 -3.0716 -0.3511 -0.7630
   19MOL   H131 5567   5.446   0.070   4.568  0.2702  1.0616 -0.3017
   19MOL   H132 5568   5.641   0.173   4.774  0.8260 -2.3536  0.8346
   19MOL   H133 5569   5.696   0.049   4.671 -0.1595 -0.3174 -3.4740
   19MOL   H134 5570   5.645   0.199   4.594  0.4023  0.0889  0.3424
   19MOL   H135 5571   5.481   0.317   4.981 -0.8241 -0.0801  0.1089
   19MOL   H136 5572   5.459   0.458   4.891 -1.4079  1.2647 -0.5444
   19MOL   C137 5573   5.340   0.443   5.085  0.3708  0.1575 -0.6114
   19MOL   O138 5574   5.319   0.319   5.158 -0.4440  0.9312 -0.7002
   19MOL   C139 5575   5.217   0.304   5.241 -0.1905 -0.3570 -0.0682
   19MOL   O140 5576   5.157   0.401   5.285  0.7312 -0.1127 -0.1582
   19MOL   C141 5577   5.198   0.159   5.280  0.1995 -0.4801 -0.1092
   19MOL   C142 5578   5.084   0.085   5.216 -0.2338 -0.7087 -0.1673
   19MOL   C143 5579   5.441   0.522   5.162 -0.6647 -0.6293  0.0178
   19MOL   H144 5580   5.249   0.502   5.072  1.1336  1.6437  0.6046
   19MOL   H145 5581   5.287   0.096   5.281 -0.2441 -1.1217 -1.0119
   19MOL   H146 5582   5.184   0.178   5.387 -1.4028 -0.3060 -0.3344
   19MOL   H147 5583   5.057   0.002   5.282  0.6155 -0.3029  0.6965
   19MOL   H148 5584   5.007   0.158   5.190  1.1596  0.7103 -0.3506
   19MOL   H149 5585   5.127   0.038   5.127  4.4962  1.1788  0.9991
   19MOL   H150 5586   5.415   0.534   5.267  0.5480 -1.4447  0.4202
   19MOL   H151 5587   5.535   0.467   5.170 -1.1812 -1.6251 -0.6712
   19MOL   C152 5588   5.473   0.662   5.107  0.1448 -0.1565  0.5296
   19MOL   O153 5589   5.354   0.751   5.127 -0.1239  0.1247 -0.3528
   19MOL   C154 5590   5.267   0.771   5.022  0.1533  0.5847 -0.0254
   19MOL   O155 5591   5.280   0.723   4.912 -0.2389 -0.0104  0.4065
   19MOL   C156 5592   5.133   0.815   5.073  0.6090 -0.4628 -0.9044
   19MOL   C157 5593   5.138   0.946   5.146 -0.9455 -0.1589 -0.2275
   19MOL   C158 5594   5.600   0.726   5.174  0.4186 -0.5180  0.8801
   19MOL   H159 5595   5.497   0.655   5.001  1.1826  0.0272  0.7436
   19MOL   H160 5596   5.069   0.826   4.986 -0.4003  1.5779  0.0600
   19MOL   H161 5597   5.077   0.742   5.132 -0.5992  0.3592 -1.0311
   19MOL   H162 5598   5.031   0.966   5.149 -1.3860 -2.5750  1.2257
   19MOL   H163 5599   5.187   0.928   5.242 -0.9427 -0.1021 -0.2182
   19MOL   H164 5600   5.198   1.018   5.090 -1.7151 -1.7644 -3.1824
   19MOL   H165 5601   5.607   0.827   5.134  1.9870 -1.1821 -0.6003
   19MOL   H166 5602   5.591   0.727   5.282 -1.4487  0.2949  0.7255
   19MOL   C167 5603   5.733   0.650   5.135 -1.1636  0.0195  0.4072
   19MOL   O168 5604   5.777   0.694   5.006  0.2134  0.4287  0.2195
   19MOL   C169 5605   5.764   0.603   4.909  0.2181  0.1995 -0.5095
   19MOL   O170 5606   5.709   0.496   4.913  0.3487  0.0765 -0.2849
   19MOL   C171 5607   5.855   0.637   4.791  0.6260 -0.2000 -0.2204
   19MOL   C172 5608   5.836   0.785   4.747 -0.2068 -0.0997  0.1597
   19MOL   C173 5609   5.845   0.693   5.230 -0.2394 -0.6990  0.2612
   19MOL   H174 5610   5.722   0.542   5.146  0.5150 -0.0971  1.0579
   19MOL   H175 5611   5.959   0.626   4.822  0.2892 -1.1976  0.5927
   19MOL   H176 5612   5.825   0.568   4.711 -1.7133  1.0825 -0.4841
   19MOL   H177 5613   5.907   0.808   4.668  1.5139 -2.4062  0.9558
   19MOL   H178 5614   5.741   0.818   4.707 -0.2757 -1.9891 -1.2813
   19MOL   H179 5615   5.857   0.852   4.830  0.8986 -2.9770  2.3141
   19MOL   H180 5616   5.942   0.652   5.201  0.1027  0.9878 -1.0796
   19MOL   H181 5617   5.855   0.801   5.217 -1.5203 -0.6693 -0.5580
   19MOL   C182 5618   5.828   0.649   5.378 -0.3646 -0.0193  0.0049
   19MOL   O183 5619   5.828   0.506   5.374 -0.4121 -0.1261 -0.3836
   19MOL   C184 5620   5.727   0.431   5.420  0.4218 -0.7830 -0.5799
   19MOL   O185 5621   5.620   0.477   5.460 -0.9435  0.0452 -0.0360
   19MOL   C186 5622   5.774   0.287   5.430 -0.0604 -0.0258 -0.0787
   19MOL   C187 5623   5.774   0.228   5.288 -0.1899  0.1249 -0.3288
   19MOL   C188 5624   5.948   0.694   5.454  0.8938 -0.5344  0.0675
   19MOL   H189 5625   5.739   0.696   5.420 -0.2164  1.3489 -1.1469
   19MOL   H190 5626   5.873   0.284   5.475  0.1764 -1.8426 -0.6760
   19MOL   H191 5627   5.709   0.236   5.502 -0.6793 -0.9969 -1.2971
   19MOL   H192 5628   5.834   0.287   5.219  0.7301 -1.6445 -1.0803
   19MOL   H193 5629   5.821   0.129   5.292  0.3629  0.3708 -0.7362
   19MOL   H194 5630   5.676   0.213   5.245  0.4447 -2.5566 -0.9577
   19MOL   H195 5631   6.027   0.638   5.406  0.6448 -0.2707 -0.6520
   19MOL   H196 5632   5.965   0.801   5.440 -3.7333  0.5515  1.9793
   19MOL   C197 5633   5.926   0.680   5.610 -0.2347  0.1554 -0.2030
   19MOL   O198 5634   6.050   0.698   5.682 -0.0120 -0.2222  0.0370
   19MOL   C199 5635   6.146   0.600   5.682  0.0643  0.2023 -0.1248
   19MOL   O200 5636   6.124   0.479   5.664 -0.1139 -0.9151  0.3194
   19MOL   C201 5637   6.281   0.657   5.722  0.6877 -0.2124 -0.5294
   19MOL   C202 5638   6.290   0.671   5.874 -0.4972  0.0018 -0.1811
   19MOL   C203 5639   5.836   0.787   5.676  0.0714  0.3962 -0.9532
   19MOL   H204 5640   5.880   0.582   5.625  2.3686 -1.3564 -1.8633
   19MOL   H205 5641   6.349   0.581   5.684 -1.5394 -2.9941  0.8191
   19MOL   H206 5642   6.310   0.752   5.679 -1.0829 -0.3178 -2.0135
   19MOL   H207 5643   6.222   0.609   5.932 -0.3074  1.6200  1.8395
   19MOL   H208 5644   6.390   0.645   5.909 -0.6225 -0.4972 -0.1955
   19MOL   H209 5645   6.280   0.774   5.908 -2.3374  0.5560 -2.2055
   19MOL   H210 5646   5.736   0.757   5.645  1.0468 -3.5990 -0.4705
   19MOL   H211 5647   5.827   0.773   5.784 -1.4886  3.1761 -0.6645
   19MOL   C212 5648   5.864   0.935   5.631  0.3519  0.3004  0.2239
   19MOL   O213 5649   5.776   0.974   5.520  0.0272  0.3676 -0.1537
   19MOL   C214 5650   5.830   1.039   5.422  0.2108  0.6329 -0.3176
   19MOL   O215 5651   5.940   1.079   5.410  0.3604 -0.1282  0.4342
   19MOL   C216 5652   5.732   1.058   5.303 -0.0081  0.3923 -0.3766
   19MOL   C217 5653   5.583   1.073   5.341 -0.3703 -0.0954 -0.4314
   19MOL   C218 5654   5.814   1.042   5.744 -0.1076  0.5663 -0.2880
   19MOL   H219 5655   5.970   0.941   5.608 -0.2047  1.3860 -2.2455
   19MOL   H220 5656   5.762   1.147   5.247  0.7087 -1.0384 -2.3294
   19MOL   H221 5657   5.744   0.976   5.232  0.9318 -0.5796  0.8822
   19MOL   H222 5658   5.553   0.974   5.376 -3.4007  1.4649  1.5123
   19MOL   H223 5659   5.565   1.144   5.422 -1.1942  0.6618 -1.2639
   19MOL   H224 5660   5.536   1.107   5.249 -0.3045  0.0949 -0.3932
   19MOL   H225 5661   5.814   1.145   5.711  2.3310  0.3925 -0.9745
   19MOL   H226 5662   5.709   1.029   5.770 -0.3611  0.3711 -1.3797
   19MOL   C227 5663   5.894   1.037   5.877 -0.2015  0.2041  0.0385
   19MOL   O228 5664   5.874   0.916   5.946 -0.1783 -0.5489  0.0014
   19MOL   C229 5665   5.881   0.898   6.081 -0.3349 -0.5826 -0.0725
   19MOL   O230 5666   5.920   0.976   6.170 -0.2427 -0.2517  0.0560
   19MOL   C231 5667   5.855   0.754   6.107 -0.1039  0.1942 -0.6871
   19MOL   C232 5668   5.979   0.666   6.090  0.2289  0.0628 -0.1932
   19MOL   C233 5669   6.044   1.036   5.841  0.2169 -0.4657 -0.7325
   19MOL   H234 5670   5.878   1.125   5.939  3.2830  0.6446  0.4636
   19MOL   H235 5671   5.810   0.745   6.206  0.6500  0.3219 -0.3246
   19MOL   H236 5672   5.786   0.714   6.033 -1.7187 -2.3069  2.0686
   19MOL   H237 5673   6.014   0.678   5.987  0.0646 -0.1638 -0.2748
   19MOL   H238 5674   6.053   0.697   6.164  0.6174 -0.3980 -0.3896
   19MOL   H239 5675   5.960   0.561   6.112 -0.3434  0.3342  0.6178
   19MOL   H240 5676   6.110   1.038   5.928  1.3676  0.2682 -1.6039
   19MOL   H241 5677   6.068   0.937   5.802 -1.3005 -0.6245 -1.3008
   19MOL   C242 5678   6.107   1.154   5.765 -0.9821  0.3122 -0.1215
   19MOL   O243 5679   6.096   1.268   5.849 -0.6156  0.3987 -0.2281
   19MOL   C244 5680   6.007   1.362   5.823 -0.2709 -0.1433  0.6071
   19MOL   O245 5681   5.924   1.356   5.734 -0.1432 -0.1744 -0.0535
   19MOL   C246 5682   6.017   1.490   5.907  0.1411 -0.2809 -0.0317
   19MOL   C247 5683   5.957   1.610   5.832  0.0891 -0.8069 -0.5152
   19MOL   C248 5684   6.257   1.117   5.731  0.6499  0.0148 -0.2538
   19MOL   H249 5685   6.042   1.164   5.679 -0.4709 -2.5353 -0.8967
   19MOL   H250 5686   5.956   1.472   5.996  2.0350 -0.2018  1.3273
   19MOL   H251 5687   6.119   1.511   5.941 -0.7854 -2.0242  4.1685
   19MOL   H252 5688   6.018   1.695   5.864  0.8422 -1.4125 -0.3197
   19MOL   H253 5689   5.976   1.606   5.725 -1.4178  0.3111 -0.8432
   19MOL   H254 5690   5.850   1.620   5.848  0.4467  0.6201  1.2265
   19MOL   H255 5691   6.307   1.086   5.823 -0.2440 -2.8782 -0.6965
   19MOL   H256 5692   6.248   1.031   5.665 -0.1181  0.6405 -0.9696
   19MOL   C257 5693   6.328   1.232   5.665 -0.3064  0.2467  0.7132
   19MOL   O258 5694   6.354   1.331   5.766  0.3298  0.3986 -0.3828
   19MOL   C259 5695   6.338   1.459   5.736  0.4025 -0.5276 -0.4042
   19MOL   O260 5696   6.295   1.504   5.631 -0.5823  0.2843  0.1006
   19MOL   C261 5697   6.392   1.549   5.845 -0.2019  0.5154  0.6186
   19MOL   C262 5698   6.379   1.696   5.814  0.5358 -0.0611  0.0025
   19MOL   C263 5699   6.461   1.178   5.611  0.8611  0.8123 -0.2462
   19MOL   H264 5700   6.264   1.261   5.582  1.4217  0.0909 -0.7061
   19MOL   H265 5701   6.328   1.528   5.930 -0.7164  2.0092  0.6136
   19MOL   H266 5702   6.497   1.520   5.853 -0.4769 -0.7657 -0.2891
   19MOL   H267 5703   6.396   1.759   5.901  0.6439 -2.3474  1.6772
   19MOL   H268 5704   6.451   1.710   5.734  0.2336  0.1892 -0.2285
   19MOL   H269 5705   6.275   1.715   5.786  0.2694  0.2266  1.1580
   19MOL   H270 5706   6.533   1.143   5.686 -1.6494 -1.9630  0.9758
   19MOL   H271 5707   6.430   1.084   5.567  0.7236 -0.1469  1.8458
   19MOL   C272 5708   6.535   1.260   5.502 -0.2600 -0.1589  0.0553
   19MOL   O273 5709   6.612   1.366   5.557  0.5579 -0.0188  0.0120
   19MOL   C274 5710   6.728   1.346   5.620  0.2459 -0.1035  0.3913
   19MOL   O275 5711   6.787   1.240   5.631  0.0330  0.2103 -0.4144
   19MOL   C276 5712   6.773   1.464   5.699  0.1296 -1.0030  0.0139
   19MOL   C277 5713   6.757   1.591   5.618  0.1806 -0.4524  0.0335
   19MOL   C278 5714   6.606   1.176   5.395 -0.5646  0.4524 -0.0767
   19MOL   H279 5715   6.453   1.313   5.454 -1.2092  0.3809  2.2576
   19MOL   H280 5716   6.711   1.464   5.788  1.9559 -2.0675  1.3137
   19MOL   H281 5717   6.877   1.458   5.732  0.3574  0.8704 -0.2838
   19MOL   H282 5718   6.655   1.630   5.620  0.5546  0.5025  1.6781
   19MOL   H283 5719   6.812   1.671   5.668  1.1867 -0.0942 -1.6170
   19MOL   H284 5720   6.774   1.568   5.513 -0.4676 -0.8453  0.0107
   19MOL   H285 5721   6.703   1.133   5.422 -0.7186  0.5854  0.6925
   19MOL   H286 5722   6.550   1.085   5.371 -0.6380  0.5447 -0.2571
   19MOL   C287 5723   6.638   1.266   5.266 -0.0546 -0.6079  0.3792
   19MOL   O288 5724   6.765   1.324   5.274 -0.5431 -0.3329 -0.2633
   19MOL   C289 5725   6.792   1.459   5.233 -0.0616  0.5563  0.8359
   19MOL   O290 5726   6.706   1.522   5.174 -0.7624  0.1737  0.5455
   19MOL   C291 5727   6.937   1.498   5.258 -0.3054  0.2443  0.5992
   19MOL   C292 5728   6.960   1.647   5.261 -0.1440 -0.0092 -0.2488
   19MOL   C293 5729   6.652   1.179   5.145 -0.2748 -0.1584  0.6273
   19MOL   H294 5730   6.552   1.326   5.238 -0.3287 -1.6230 -1.0157
   19MOL   H295 5731   6.964   1.449   5.352 -0.0138 -0.0697  0.3543
   19MOL   H296 5732   6.996   1.469   5.171 -0.7856 -1.8459  0.9415
   19MOL   H297 5733   7.062   1.673   5.287  0.4185 -0.6688 -1.7257
   19MOL   H298 5734   6.933   1.687   5.163  1.7612 -1.3069 -1.3338
   19MOL   H299 5735   6.880   1.680   5.327 -1.8115 -1.6242 -1.4002
   19MOL   H300 5736   6.752   1.176   5.101  1.4422 -2.1947  4.4563
   19MOL   H301 5737   6.622   1.075   5.161 -3.1496  0.3726 -0.8411
   19MOL   H302 5738   6.578   1.219   5.075 -0.4266 -0.2267  0.7483
   20MOL     C1 5739   1.430   7.645   1.663 -0.2862  0.6086  0.0143
   20MOL     O2 5740   1.506   7.767   1.642  0.3721  0.6966 -0.9087
   20MOL     C3 5741   1.440   7.880   1.595 -0.0767  0.4859 -0.6615
   20MOL     O4 5742   1.325   7.887   1.562 -0.4774  0.1275 -0.6233
   20MOL     C5 5743   1.516   0.060   1.625 -0.4224 -0.2661 -0.3449
   20MOL     C6 5744   1.449   0.195   1.608  0.5130  0.2881  0.3918
   20MOL     C7 5745   1.513   7.528   1.612  0.2478  0.1034  0.0167
   20MOL     H8 5746   1.334   7.650   1.613 -0.6143  0.9972  0.6803
   20MOL     H9 5747   1.569   0.061   1.720  2.3599 -1.3305 -1.8327
   20MOL    H10 5748   1.592   0.049   1.548  0.0761  1.1630 -0.0708
   20MOL    H11 5749   1.529   0.269   1.616  0.4549  0.5006 -0.8945
   20MOL    H12 5750   1.389   0.228   1.524  0.9492  1.3850  0.5052
   20MOL    H13 5751   1.389   0.208   1.698 -0.8266 -1.0028 -0.2969
   20MOL    H14 5752   1.547   7.561   1.513 -3.2370 -0.6056 -1.4860
   20MOL    H15 5753   1.603   7.527   1.673 -0.5197 -0.0036  1.1490
   20MOL    H16 5754   1.403   7.642   1.769  0.2211 -0.2930  0.1291
   20MOL    C17 5755   1.440   7.395   1.609  0.5376 -0.4119 -0.4582
   20MOL    O18 5756   1.339   7.396   1.498 -0.0795  0.0048  0.1447
   20MOL    C19 5757   1.225   7.311   1.509  0.3126 -0.7633  0.3391
   20MOL    O20 5758   1.201   7.241   1.609  0.0730  0.2806 -0.3196
   20MOL    C21 5759   1.125   7.309   1.394  0.3651  0.3172  0.0584
   20MOL    C22 5760   1.077   7.167   1.350 -1.3515 -0.4063 -0.0450
   20MOL    C23 5761   1.530   7.273   1.583  1.0158 -0.3610 -0.1024
   20MOL    H24 5762   1.395   7.373   1.706  0.8415 -0.6688 -0.3724
   20MOL    H25 5763   1.034   7.360   1.426 -0.2241 -0.1303 -0.8870
   20MOL    H26 5764   1.169   7.355   1.306  0.3484  1.6314  0.7271
   20MOL    H27 5765   1.164   7.103   1.337  0.3596  1.9429 -0.5535
   20MOL    H28 5766   1.037   7.113   1.436  2.1233 -1.8135  0.7583
   20MOL    H29 5767   1.016   7.166   1.259 -1.1213 -0.0714 -0.2049
   20MOL    H30 5768   1.473   7.190   1.542 -0.1094  1.3671 -2.1427
   20MOL    H31 5769   1.595   7.317   1.507 -1.9815  1.6214 -1.6196
   20MOL    C32 5770   1.609   7.216   1.700  0.0409 -0.1239  0.0016
   20MOL    O33 5771   1.519   7.170   1.794 -0.0284 -0.1080  0.0186
   20MOL    C34 5772   1.561   7.145   1.919 -0.8712  0.3237 -0.2328
   20MOL    O35 5773   1.676   7.150   1.961  0.0008 -0.1673 -0.3157
   20MOL    C36 5774   1.449   7.089   2.000 -0.0277  0.0549 -0.9005
   20MOL    C37 5775   1.416   6.945   1.959 -0.0157  0.0077 -0.0314
   20MOL    C38 5776   1.699   7.092   1.651  0.2279 -0.4266  0.4045
   20MOL    H39 5777   1.678   7.285   1.748 -0.2470  0.5455 -0.5424
   20MOL    H40 5778   1.477   7.082   2.106  0.6036  0.4616 -1.0356
   20MOL    H41 5779   1.365   7.157   1.988 -3.0712 -3.7857 -2.4701
   20MOL    H42 5780   1.417   6.915   1.854 -2.0913  0.9035 -0.3260
   20MOL    H43 5781   1.493   6.877   1.995  1.5042  1.8139  0.2296
   20MOL    H44 5782   1.327   6.905   2.007  0.0709 -0.0368  0.0906
   20MOL    H45 5783   1.711   7.019   1.731  1.0939 -1.1065 -0.3403
   20MOL    H46 5784   1.645   7.043   1.569  2.2734 -0.2782 -1.0615
   20MOL    C47 5785   1.839   7.134   1.595  0.4515 -0.9787  0.3967
   20MOL    O48 5786   1.925   7.126   1.712  0.3069 -0.3069 -0.3397
   20MOL    C49 5787   2.002   7.223   1.757  0.8851 -0.3006  0.2958
   20MOL    O50 5788   2.023   7.330   1.697 -0.2699  0.1966 -0.4575
   20MOL    C51 5789   2.064   7.185   1.891  0.1761  0.3085  0.5165
   20MOL    C52 5790   2.207   7.241   1.904 -0.2552  0.4008  0.3563
   20MOL    C53 5791   1.917   7.043   1.501  0.0874  0.1679  0.7545
   20MOL    H54 5792   1.843   7.234   1.550  0.6423 -1.9058 -1.7052
   20MOL    H55 5793   1.999   7.211   1.974 -0.5478 -0.6745  0.2692
   20MOL    H56 5794   2.067   7.076   1.883 -0.5872  0.2584  0.8336
   20MOL    H57 5795   2.284   7.213   1.833 -0.6965 -0.4545  0.2097
   20MOL    H58 5796   2.214   7.350   1.898 -1.2346  0.4183 -0.6116
   20MOL    H59 5797   2.244   7.207   2.001 -2.3127  0.4437  1.1941
   20MOL    H60 5798   2.008   7.091   1.464 -0.3555  0.5471  0.1498
   20MOL    H61 5799   1.953   6.958   1.559 -0.9167 -0.4804  0.4385
   20MOL    C62 5800   1.836   6.981   1.383  0.1579 -0.4151  0.0251
   20MOL    O63 5801   1.801   7.102   1.314 -0.0709  0.2133 -0.2846
   20MOL    C64 5802   1.674   7.105   1.260  0.7818  0.1715 -0.1401
   20MOL    O65 5803   1.590   7.017   1.257 -0.4295 -0.3502  0.5764
   20MOL    C66 5804   1.637   7.239   1.203 -0.4793  0.3628  0.5980
   20MOL    C67 5805   1.490   7.270   1.188 -0.9469 -0.0023  0.1403
   20MOL    C68 5806   1.911   6.879   1.291 -0.3600  0.7358 -1.1536
   20MOL    H69 5807   1.745   6.935   1.420 -0.7086  1.1714 -0.1158
   20MOL    H70 5808   1.696   7.320   1.245  0.5058 -0.3458  0.5881
   20MOL    H71 5809   1.678   7.231   1.102  0.7983 -0.3803  1.1589
   20MOL    H72 5810   1.454   7.239   1.089  0.1545  2.1492 -0.9805
   20MOL    H73 5811   1.437   7.216   1.266 -1.3812 -0.5424 -0.5248
   20MOL    H74 5812   1.472   7.377   1.197  1.9116  0.5860 -0.5721
   20MOL    H75 5813   1.844   6.844   1.213 -0.9826 -1.8109  0.4595
   20MOL    H76 5814   1.996   6.926   1.241 -0.7233  3.3582  0.5589
   20MOL    C77 5815   1.961   6.749   1.367 -0.1717 -0.9694  0.2049
   20MOL    O78 5816   1.854   6.664   1.395  0.2005 -0.5399  0.1098
   20MOL    C79 5817   1.783   6.671   1.508 -0.1326 -0.8528  0.6058
   20MOL    O80 5818   1.806   6.743   1.603 -0.1644  0.2608 -0.4322
   20MOL    C81 5819   1.675   6.567   1.508  0.7537  0.1825 -0.7588
   20MOL    C82 5820   1.704   6.432   1.576 -0.3340  0.8886 -0.0427
   20MOL    C83 5821   2.071   6.667   1.299 -0.0583 -0.0224  0.7229
   20MOL    H84 5822   2.012   6.767   1.461 -1.8671  2.0535  0.6141
   20MOL    H85 5823   1.592   6.618   1.556  0.8655  2.7599 -3.1651
   20MOL    H86 5824   1.632   6.550   1.409 -1.7119 -0.5194  0.3806
   20MOL    H87 5825   1.640   6.354   1.535 -0.2312  1.5405 -1.4651
   20MOL    H88 5826   1.802   6.395   1.547 -0.1028  1.3371  0.1579
   20MOL    H89 5827   1.677   6.437   1.682 -0.0600  1.9828 -0.0187
   20MOL    H90 5828   2.082   6.570   1.347 -0.1967  0.5810  2.0072
   20MOL    H91 5829   2.045   6.646   1.196  0.9671 -2.5808  0.9672
   20MOL    C92 5830   2.211   6.721   1.292  0.4358  0.2734  0.0901
   20MOL    O93 5831   2.250   6.725   1.433  0.0369  0.5985  0.8863
   20MOL    C94 5832   2.313   6.826   1.490 -0.2110 -0.4666 -0.9756
   20MOL    O95 5833   2.350   6.926   1.425 -0.1477  0.0110 -0.3920
   20MOL    C96 5834   2.327   6.819   1.643  0.2857 -0.2876  0.3452
   20MOL    C97 5835   2.211   6.888   1.719 -0.7108 -0.2094  0.2351
   20MOL    C98 5836   2.297   6.638   1.198 -0.8294 -0.4085 -0.4328
   20MOL    H99 5837   2.202   6.820   1.247  0.9715 -0.3908 -1.5231
   20MOL   H100 5838   2.340   6.722   1.692 -0.2309 -0.3652  0.3289
   20MOL   H101 5839   2.415   6.882   1.660 -2.7295  3.7162  1.8400
   20MOL   H102 5840   2.246   6.938   1.809 -0.5109 -1.2120  0.7247
   20MOL   H103 5841   2.151   6.961   1.664 -1.2369  0.1633  1.2975
   20MOL   H104 5842   2.142   6.811   1.751  1.4203 -1.9378  0.7902
   20MOL   H105 5843   2.291   6.533   1.226 -0.4701 -0.1451  0.6494
   20MOL   H106 5844   2.230   6.637   1.112 -1.0785 -2.0941 -0.2215
   20MOL   C107 5845   2.427   6.707   1.170 -0.0728 -0.4264 -0.5838
   20MOL   O108 5846   2.488   6.597   1.088  0.3145 -0.3228 -0.2025
   20MOL   C109 5847   2.606   6.544   1.126 -0.5199  0.3467  0.2483
   20MOL   O110 5848   2.670   6.577   1.223 -0.2646 -0.6352 -0.0243
   20MOL   C111 5849   2.664   6.444   1.022  0.1012  0.7243 -0.0109
   20MOL   C112 5850   2.724   6.520   0.905 -0.9469  0.4058  0.2140
   20MOL   C113 5851   2.421   6.832   1.075  0.0469  0.4110 -0.1345
   20MOL   H114 5852   2.488   6.727   1.258  0.9970  1.2320 -1.6594
   20MOL   H115 5853   2.730   6.371   1.069  0.0065 -0.1302 -1.1897
   20MOL   H116 5854   2.587   6.379   0.983 -0.6906  1.9056 -0.4534
   20MOL   H117 5855   2.676   6.609   0.864  0.1434  0.5245 -0.8364
   20MOL   H118 5856   2.829   6.546   0.919  0.2207 -4.6873  2.2486
   20MOL   H119 5857   2.712   6.445   0.827 -0.5220 -1.2973  1.7391
   20MOL   H120 5858   2.361   6.799   0.991  0.9855 -4.7333  1.0630
   20MOL   H121 5859   2.358   6.901   1.132 -0.6709 -0.8321  0.5859
   20MOL   C122 5860   2.549   6.899   1.020 -0.4270 -0.5219 -0.2428
   20MOL   O123 5861   2.498   6.997   0.935  0.3766  0.3070 -0.4678
   20MOL   C124 5862   2.530   6.997   0.806  0.3449 -0.0948 -0.1549
   20MOL   O125 5863   2.599   6.909   0.748 -0.1812  0.1266 -0.1911
   20MOL   C126 5864   2.472   7.119   0.729  0.3545 -0.1187 -0.0407
   20MOL   C127 5865   2.511   7.144   0.586 -0.3045 -0.5245  1.0868
   20MOL   C128 5866   2.630   6.974   1.119  0.4699 -0.0520  0.2961
   20MOL   H129 5867   2.603   6.819   0.969 -1.3158 -1.6718  0.5916
   20MOL   H130 5868   2.363   7.118   0.726  0.3837 -3.2526 -3.4106
   20MOL   H131 5869   2.505   7.196   0.799  0.0281  0.6841 -0.7710
   20MOL   H132 5870   2.471   7.064   0.524  0.4936 -0.8137  0.9454
   20MOL   H133 5871   2.475   7.243   0.558 -0.0270 -0.1035  2.2020
   20MOL   H134 5872   2.617   7.128   0.568 -0.0700 -0.5441  2.4019
   20MOL   H135 5873   2.649   7.076   1.087  2.4297 -0.8049 -1.0211
   20MOL   H136 5874   2.573   6.967   1.212  0.3440 -2.5819  0.0765
   20MOL   C137 5875   2.764   6.911   1.151  0.2818 -0.6486  0.0137
   20MOL   O138 5876   2.840   6.947   1.031 -0.3534 -0.3915 -0.3910
   20MOL   C139 5877   2.929   6.863   0.964  0.1125  0.4124 -0.1625
   20MOL   O140 5878   2.967   6.756   1.016 -0.2900 -0.1453  0.4759
   20MOL   C141 5879   2.977   6.919   0.829  0.0977 -0.3125  0.7933
   20MOL   C142 5880   3.130   6.958   0.837 -0.2570 -0.5917 -0.6487
   20MOL   C143 5881   2.818   6.976   1.273 -0.1884  0.4468  0.3465
   20MOL   H144 5882   2.758   6.802   1.156  1.3733 -0.6068  2.7845
   20MOL   H145 5883   2.972   6.852   0.743 -1.4266 -0.2539  0.8326
   20MOL   H146 5884   2.929   7.016   0.822  0.9072  0.1660  1.6784
   20MOL   H147 5885   3.177   6.888   0.907  0.2559 -0.1998 -0.5970
   20MOL   H148 5886   3.183   6.952   0.742 -0.4569  1.8341 -0.9562
   20MOL   H149 5887   3.153   7.058   0.875 -0.0804 -1.2110  0.8923
   20MOL   H150 5888   2.837   7.081   1.254  1.5267  0.0525 -0.2068
   20MOL   H151 5889   2.742   6.972   1.351  0.1746 -0.3801  0.6677
   20MOL   C152 5890   2.947   6.905   1.323  0.5933 -0.1454 -0.7395
   20MOL   O153 5891   3.002   6.982   1.428 -0.5478 -0.2911  0.3536
   20MOL   C154 5892   3.083   7.089   1.405  0.7152  0.2266  0.1946
   20MOL   O155 5893   3.114   7.132   1.294 -0.2465  0.1000 -0.1582
   20MOL   C156 5894   3.129   7.157   1.535  0.3730  0.2241 -0.0636
   20MOL   C157 5895   3.185   7.304   1.501  0.3932  0.1593  0.3586
   20MOL   C158 5896   2.934   6.763   1.371 -0.1541 -0.1307  0.7053
   20MOL   H159 5897   3.018   6.907   1.240  0.0947 -0.7598 -1.1789
   20MOL   H160 5898   3.053   7.145   1.611  0.3768  0.6270  0.0043
   20MOL   H161 5899   3.216   7.101   1.571 -0.9190 -0.5669  1.8979
   20MOL   H162 5900   3.233   7.349   1.588  2.0010 -0.2420 -0.3051
   20MOL   H163 5901   3.248   7.307   1.412  0.0310  1.1493  0.1306
   20MOL   H164 5902   3.095   7.362   1.479 -0.4709 -0.5664  1.8510
   20MOL   H165 5903   2.868   6.761   1.458  1.0798 -0.1037  1.6603
   20MOL   H166 5904   2.899   6.707   1.285 -1.0205  2.3863 -0.6090
   20MOL   C167 5905   3.072   6.702   1.415 -0.1422  0.4378 -0.7464
   20MOL   O168 5906   3.051   6.575   1.460 -0.3004 -0.0778  0.0638
   20MOL   C169 5907   3.089   6.542   1.578  0.3364 -0.7878  0.3158
   20MOL   O170 5908   3.160   6.610   1.651 -0.6636  0.0927  0.4624
   20MOL   C171 5909   3.017   6.421   1.633 -0.2115 -0.4604 -0.0452
   20MOL   C172 5910   2.940   6.443   1.764  0.3591  0.2349  0.2505
   20MOL   C173 5911   3.173   6.686   1.300 -0.0148  0.3313 -0.0463
   20MOL   H174 5912   3.116   6.760   1.496  0.7554  1.3808 -1.9036
   20MOL   H175 5913   2.951   6.369   1.563  0.5046 -2.1245  0.4973
   20MOL   H176 5914   3.098   6.352   1.656  0.6445  0.3634 -0.5575
   20MOL   H177 5915   2.948   6.547   1.797 -1.3582  0.7158 -0.7700
   20MOL   H178 5916   2.833   6.422   1.755  0.4200 -0.5482  1.3072
   20MOL   H179 5917   2.972   6.380   1.847  0.7262  0.9203  0.6327
   20MOL   H180 5918   3.230   6.593   1.306  2.4312  1.7435 -0.8546
   20MOL   H181 5919   3.124   6.691   1.203 -2.3968 -0.3380  1.0792
   20MOL   C182 5920   3.281   6.800   1.293  0.8704 -0.2214 -0.8215
   20MOL   O183 5921   3.364   6.781   1.407 -0.2923 -0.2933  0.5882
   20MOL   C184 5922   3.428   6.876   1.470 -0.0303  0.1519 -0.3804
   20MOL   O185 5923   3.421   6.997   1.453  1.0156 -0.0378  0.1657
   20MOL   C186 5924   3.536   6.826   1.561  0.5203  0.8198  0.2530
   20MOL   C187 5925   3.483   6.769   1.691 -0.2817 -0.2687 -0.1009
   20MOL   C188 5926   3.365   6.780   1.168  0.1670  0.3868  0.0802
   20MOL   H189 5927   3.230   6.896   1.295 -1.4901 -1.4676  0.9664
   20MOL   H190 5928   3.589   6.749   1.503 -1.1428 -0.4210  0.3296
   20MOL   H191 5929   3.614   6.898   1.584  2.0489 -0.0958 -1.8172
   20MOL   H192 5930   3.558   6.778   1.769  0.9620  1.7325 -1.4994
   20MOL   H193 5931   3.391   6.823   1.716 -0.9138 -1.2181 -0.3211
   20MOL   H194 5932   3.463   6.662   1.694 -0.3401 -0.2580 -0.1261
   20MOL   H195 5933   3.411   6.682   1.178 -1.2189 -0.5387 -2.3271
   20MOL   H196 5934   3.297   6.758   1.086  1.6413 -0.7564 -0.8712
   20MOL   C197 5935   3.467   6.894   1.136 -0.3379  0.0090 -0.1190
   20MOL   O198 5936   3.573   6.849   1.052  0.2934 -0.7312  0.3376
   20MOL   C199 5937   3.667   6.778   1.107  0.1611  0.0991  0.3102
   20MOL   O200 5938   3.661   6.716   1.212 -0.7801 -0.0896  0.3303
   20MOL   C201 5939   3.783   6.762   1.014 -0.0294 -0.0463 -0.0516
   20MOL   C202 5940   3.872   6.890   1.003 -0.5563  0.4326 -0.6430
   20MOL   C203 5941   3.392   7.010   1.057 -0.3102 -0.5096 -0.4841
   20MOL   H204 5942   3.514   6.930   1.228  0.8791  0.0692 -0.7642
   20MOL   H205 5943   3.838   6.676   1.051 -2.1552 -1.1200  0.7107
   20MOL   H206 5944   3.745   6.726   0.918  0.2918  1.2284 -0.6627
   20MOL   H207 5945   3.971   6.845   1.013 -0.5965  0.8539  1.9571
   20MOL   H208 5946   3.856   6.947   0.911 -0.3469 -3.4010 -3.1805
   20MOL   H209 5947   3.861   6.967   1.079  0.5344  3.2354 -3.2005
   20MOL   H210 5948   3.371   6.964   0.960  0.2098  0.4821 -1.0791
   20MOL   H211 5949   3.294   7.025   1.100 -1.6000 -2.2490 -2.6460
   20MOL   C212 5950   3.470   7.138   1.028 -0.1328  0.7982 -0.0249
   20MOL   O213 5951   3.399   7.222   0.941 -0.3142 -0.5242 -0.2582
   20MOL   C214 5952   3.414   7.196   0.805  0.6148  0.5916  0.0050
   20MOL   O215 5953   3.472   7.103   0.756  0.2747  0.2252  0.3273
   20MOL   C216 5954   3.340   7.303   0.726 -1.1945  0.1097 -0.3993
   20MOL   C217 5955   3.375   7.303   0.571  0.2215  0.4914 -0.1438
   20MOL   C218 5956   3.500   7.214   1.151  0.6525 -0.5043 -0.0329
   20MOL   H219 5957   3.570   7.116   0.989  0.3930 -0.6419  2.0579
   20MOL   H220 5958   3.234   7.288   0.742 -0.7515 -0.3239  2.4004
   20MOL   H221 5959   3.352   7.405   0.763  0.7086  0.0261 -0.7221
   20MOL   H222 5960   3.343   7.212   0.522  0.3611 -0.9680  2.4090
   20MOL   H223 5961   3.333   7.393   0.526  1.1081  0.5831 -0.8071
   20MOL   H224 5962   3.483   7.310   0.555  0.3403  0.3428  0.5624
   20MOL   H225 5963   3.415   7.281   1.166 -0.7825 -2.3448  0.2663
   20MOL   H226 5964   3.485   7.154   1.241  2.2719 -0.1342  0.4970
   20MOL   C227 5965   3.634   7.289   1.155  0.7838 -0.2938  0.7565
   20MOL   O228 5966   3.643   7.394   1.065 -0.0274 -0.2245 -0.0257
   20MOL   C229 5967   3.746   7.392   0.977 -0.1378 -0.2563 -0.3378
   20MOL   O230 5968   3.833   7.302   0.969  0.5703 -0.2977  0.1481
   20MOL   C231 5969   3.750   7.512   0.881 -0.3454 -0.4194  0.0601
   20MOL   C232 5970   3.622   7.541   0.807 -0.9848  0.2171 -0.1951
   20MOL   C233 5971   3.666   7.364   1.289  0.3360  0.2008 -0.0940
   20MOL   H234 5972   3.718   7.220   1.144  1.0481  0.1332  0.0970
   20MOL   H235 5973   3.785   7.606   0.925 -1.0749  0.3075 -0.9166
   20MOL   H236 5974   3.828   7.479   0.812 -1.0293 -2.8212  0.3758
   20MOL   H237 5975   3.544   7.573   0.877 -2.1287 -1.6343 -0.6040
   20MOL   H238 5976   3.633   7.629   0.743 -0.5385 -0.0169 -0.4361
   20MOL   H239 5977   3.583   7.452   0.758 -0.0715  0.2972 -1.0896
   20MOL   H240 5978   3.752   7.430   1.271 -0.3138  0.4809 -2.3564
   20MOL   H241 5979   3.584   7.435   1.301  0.1226 -0.4022  2.1946
   20MOL   C242 5980   3.678   7.273   1.412  0.7476  0.2630  0.0715
   20MOL   O243 5981   3.799   7.198   1.421  0.3980  0.1861 -0.2297
   20MOL   C244 5982   3.803   7.070   1.373 -0.0073 -0.3768  0.5838
   20MOL   O245 5983   3.703   7.010   1.330  0.0503  0.1783  0.1308
   20MOL   C246 5984   3.937   7.003   1.402 -0.3679  0.2837 -1.0341
   20MOL   C247 5985   3.936   6.852   1.434  0.1961  0.3424 -0.2462
   20MOL   C248 5986   3.656   7.347   1.537  0.2262 -0.1852  0.2883
   20MOL   H249 5987   3.592   7.207   1.402 -0.3574  1.2738  2.6470
   20MOL   H250 5988   4.006   7.019   1.319  2.0878 -2.6523  0.3523
   20MOL   H251 5989   3.993   7.043   1.487 -1.3697  1.3530 -0.8709
   20MOL   H252 5990   3.858   6.825   1.505  1.3465 -1.2688  0.4282
   20MOL   H253 5991   3.912   6.792   1.346  2.4113  2.0409 -2.0848
   20MOL   H254 5992   4.033   6.820   1.470  1.1060  3.0477 -0.1745
   20MOL   H255 5993   3.720   7.432   1.558  0.5257 -0.7229  1.5739
   20MOL   H256 5994   3.558   7.395   1.529  1.5652  2.6003  0.2910
   20MOL   C257 5995   3.631   7.260   1.658 -0.7201 -0.2687  0.0663
   20MOL   O258 5996   3.750   7.248   1.736 -0.5235  0.2360  0.3144
   20MOL   C259 5997   3.809   7.134   1.769  0.2840  0.0864  0.4856
   20MOL   O260 5998   3.764   7.023   1.742 -0.2658  0.1351  0.2729
   20MOL   C261 5999   3.944   7.149   1.839  0.1191 -0.0574  0.4487
   20MOL   C262 6000   3.929   7.218   1.974  0.1160  0.5188 -0.0722
   20MOL   C263 6001   3.524   7.317   1.754  0.5182  0.5134 -0.3942
   20MOL   H264 6002   3.602   7.161   1.623 -1.6527  0.8098 -2.3754
   20MOL   H265 6003   3.986   7.052   1.867  2.2898  0.4817 -0.7823
   20MOL   H266 6004   4.013   7.202   1.774  1.4363  0.4717  2.2156
   20MOL   H267 6005   3.918   7.326   1.963 -1.4959  0.4823  1.0072
   20MOL   H268 6006   3.857   7.181   2.048  0.4734 -0.5732 -0.2681
   20MOL   H269 6007   4.026   7.204   2.022 -0.4675 -1.4034  0.6182
   20MOL   H270 6008   3.558   7.413   1.791 -0.2363  0.2710  0.9436
   20MOL   H271 6009   3.427   7.327   1.705  0.6259  0.0065 -0.7148
   20MOL   C272 6010   3.508   7.239   1.887  0.7741 -0.0372  0.1649
   20MOL   O273 6011   3.412   7.313   1.950  0.4391  0.2482  0.7880
   20MOL   C274 6012   3.442   7.393   2.054  0.2303 -0.3383  0.5607
   20MOL   O275 6013   3.555   7.402   2.097 -0.0144  0.8658  0.4180
   20MOL   C276 6014   3.319   7.473   2.117  0.0360 -0.3053  0.3865
   20MOL   C277 6015   3.361   7.569   2.229 -0.5285 -0.2853  0.3159
   20MOL   C278 6016   3.462   7.097   1.871 -0.3074 -0.1108 -0.2600
   20MOL   H279 6017   3.599   7.230   1.946  0.9850 -0.4311 -0.2152
   20MOL   H280 6018   3.267   7.529   2.039 -0.8561 -1.8496 -0.1536
   20MOL   H281 6019   3.257   7.393   2.158  1.1416 -1.5868 -0.4206
   20MOL   H282 6020   3.444   7.634   2.202 -1.2036 -0.0925 -1.3598
   20MOL   H283 6021   3.275   7.633   2.253  1.2249  2.1303  0.3479
   20MOL   H284 6022   3.384   7.509   2.316  1.2099  1.8553  1.3970
   20MOL   H285 6023   3.368   7.098   1.815 -0.7143  0.3448  0.4281
   20MOL   H286 6024   3.534   7.048   1.805 -2.6161 -0.0189 -2.9409
   20MOL   C287 6025   3.435   7.025   2.000  0.0371  0.7038 -0.1069
   20MOL   O288 6026   3.393   6.894   1.960  0.0946  0.3581 -0.1243
   20MOL   C289 6027   3.288   6.838   2.021  0.1096  0.5678 -0.2735
   20MOL   O290 6028   3.218   6.890   2.108 -0.0731 -0.0569  0.4575
   20MOL   C291 6029   3.267   6.691   1.978 -0.2414  0.2358  0.0400
   20MOL   C292 6030   3.127   6.643   2.021  0.0592  0.2118 -0.0150
   20MOL   C293 6031   3.560   7.013   2.085 -0.6653 -0.0432 -0.2002
   20MOL   H294 6032   3.350   7.077   2.043 -0.3338  0.5150 -0.5979
   20MOL   H295 6033   3.281   6.693   1.870  0.2517 -0.1259  0.0967
   20MOL   H296 6034   3.346   6.625   2.014 -0.1209  1.9268  3.0677
   20MOL   H297 6035   3.121   6.642   2.130  1.7999  2.0491  0.1318
   20MOL   H298 6036   3.053   6.711   1.979 -1.9920 -1.7155  0.3898
   20MOL   H299 6037   3.097   6.542   1.991  0.1373  0.3743 -0.6536
   20MOL   H300 6038   3.604   7.107   2.118 -1.7682 -0.1594  1.6829
   20MOL   H301 6039   3.533   6.962   2.177  0.1803 -0.1175  0.0088
   20MOL   H302 6040   3.637   6.959   2.029  0.8910  2.2855 -0.4242
   21MOL     C1 6041   6.910   1.509   3.093 -0.5481 -0.3260 -0.4151
   21MOL     O2 6042   7.050   1.495   3.106 -0.5027 -0.3282 -0.7234
   21MOL     C3 6043   7.127   1.439   3.011  0.1655  0.1042  0.5135
   21MOL     O4 6044   7.090   1.383   2.914 -0.1114  0.0603  0.4317
   21MOL     C5 6045   7.274   1.447   3.038 -0.2733 -1.0115  0.3586
   21MOL     C6 6046   7.329   1.382   3.158 -0.3729  0.3225  0.0565
   21MOL     C7 6047   6.839   1.388   3.145 -0.1994 -0.3738  0.4767
   21MOL     H8 6048   6.887   1.526   2.988  0.4342  0.7310 -0.4672
   21MOL     H9 6049   7.333   1.409   2.954  0.9189  0.4678  0.4964
   21MOL    H10 6050   7.269   1.555   3.049 -1.4090 -0.7402 -2.4536
   21MOL    H11 6051   7.436   1.373   3.138 -0.6602 -2.4389 -0.5181
   21MOL    H12 6052   7.322   1.434   3.253 -0.2797 -0.6767  0.6230
   21MOL    H13 6053   7.282   1.285   3.177  0.3850  0.2634  1.6939
   21MOL    H14 6054   6.874   1.304   3.085 -1.9045 -0.4737 -0.4146
   21MOL    H15 6055   6.885   1.369   3.242  0.3298  1.6020  0.6352
   21MOL    H16 6056   6.891   1.606   3.140  1.5295 -0.3254  0.4474
   21MOL    C17 6057   6.688   1.391   3.157  0.1124  0.3911  0.5279
   21MOL    O18 6058   6.638   1.368   3.022 -0.1566 -0.2689  0.5088
   21MOL    C19 6059   6.550   1.451   2.970 -0.7177 -0.0067 -0.4114
   21MOL    O20 6060   6.500   1.550   3.022  0.2216  0.2892  0.2520
   21MOL    C21 6061   6.510   1.413   2.826 -0.5050 -1.2881 -1.2470
   21MOL    C22 6062   6.496   1.537   2.732  0.4164 -0.4019  0.8853
   21MOL    C23 6063   6.639   1.284   3.265 -0.2404 -0.2001  0.0301
   21MOL    H24 6064   6.658   1.485   3.204  2.2142 -0.0303  2.8534
   21MOL    H25 6065   6.591   1.354   2.783 -1.0674 -0.4772 -3.5018
   21MOL    H26 6066   6.425   1.345   2.824 -0.6803 -1.0511 -3.6209
   21MOL    H27 6067   6.441   1.515   2.641  0.7221  2.2553  0.0069
   21MOL    H28 6068   6.445   1.625   2.772  1.9816  0.5618  0.8299
   21MOL    H29 6069   6.596   1.562   2.697 -0.9421  1.6494 -1.6633
   21MOL    H30 6070   6.626   1.190   3.211 -1.0866 -0.9867  1.5419
   21MOL    H31 6071   6.719   1.265   3.337  0.7304 -0.2701 -1.0491
   21MOL    C32 6072   6.506   1.324   3.340  0.1181 -0.0068 -0.2356
   21MOL    O33 6073   6.433   1.207   3.360 -0.5348  0.0184  0.0670
   21MOL    C34 6074   6.301   1.199   3.335 -0.4256  0.0258  1.1331
   21MOL    O35 6075   6.226   1.289   3.299 -0.7302  0.1643  0.2751
   21MOL    C36 6076   6.238   1.071   3.381 -0.4622  0.1426 -0.3490
   21MOL    C37 6077   6.342   0.960   3.424  0.2714 -0.0647 -1.1447
   21MOL    C38 6078   6.531   1.390   3.479 -0.5227  0.4288  0.1796
   21MOL    H39 6079   6.450   1.396   3.280 -1.8786  0.4459  2.0789
   21MOL    H40 6080   6.169   1.091   3.462 -0.9119 -1.7563 -0.2236
   21MOL    H41 6081   6.191   1.028   3.292 -0.1841 -0.6465 -0.1263
   21MOL    H42 6082   6.392   1.000   3.512 -0.8789  0.2329 -0.6248
   21MOL    H43 6083   6.289   0.869   3.452  2.8154 -1.2460  0.0851
   21MOL    H44 6084   6.419   0.934   3.351  1.7038 -0.9710  0.6389
   21MOL    H45 6085   6.430   1.410   3.515 -1.2409 -2.1629 -0.3076
   21MOL    H46 6086   6.580   1.316   3.541 -1.4233 -0.0586  0.3168
   21MOL    C47 6087   6.615   1.524   3.476 -0.7299  0.1062 -0.2374
   21MOL    O48 6088   6.531   1.625   3.410 -0.2549 -0.2210  0.5301
   21MOL    C49 6089   6.571   1.708   3.319  0.6018  0.0960  0.0782
   21MOL    O50 6090   6.685   1.718   3.276  0.2618  0.4197 -0.7353
   21MOL    C51 6091   6.464   1.799   3.272 -0.1501 -0.0118 -0.1240
   21MOL    C52 6092   6.513   1.939   3.220  0.6196  0.0155  1.4967
   21MOL    C53 6093   6.652   1.581   3.614  0.3754 -0.0584 -0.0850
   21MOL    H54 6094   6.713   1.509   3.431  0.1556  1.8041  1.0528
   21MOL    H55 6095   6.406   1.742   3.199  0.2555 -1.4533  0.6435
   21MOL    H56 6096   6.403   1.824   3.359  0.0305  2.7636 -0.7472
   21MOL    H57 6097   6.532   2.009   3.302  0.7124  1.8004 -0.0145
   21MOL    H58 6098   6.596   1.934   3.150 -0.6224 -0.5271  0.0422
   21MOL    H59 6099   6.435   1.986   3.160  2.6833 -1.4957 -2.5665
   21MOL    H60 6100   6.679   1.686   3.602  1.0240 -0.3422 -1.1571
   21MOL    H61 6101   6.559   1.574   3.672  0.6221 -3.0506  0.0171
   21MOL    C62 6102   6.763   1.507   3.688 -0.9215  0.0783 -0.1545
   21MOL    O63 6103   6.895   1.541   3.649 -0.0465 -0.1596 -0.1844
   21MOL    C64 6104   6.961   1.465   3.557  0.5736 -1.4119  0.4131
   21MOL    O65 6105   6.907   1.373   3.493 -0.1504 -0.0928 -0.1270
   21MOL    C66 6106   7.108   1.504   3.528 -0.1781  0.0056 -0.1266
   21MOL    C67 6107   7.114   1.616   3.420 -0.0273  0.3829  0.5549
   21MOL    C68 6108   6.735   1.524   3.844 -0.8531  0.0413 -0.5171
   21MOL    H69 6109   6.741   1.401   3.679  1.3036 -0.4555  0.3554
   21MOL    H70 6110   7.155   1.535   3.621  0.4073  0.5652 -0.6042
   21MOL    H71 6111   7.158   1.415   3.490  0.3472  1.0060 -1.8325
   21MOL    H72 6112   7.209   1.610   3.366 -0.2917 -0.5887  0.1943
   21MOL    H73 6113   7.039   1.608   3.341  1.4966  2.0135 -1.1198
   21MOL    H74 6114   7.092   1.715   3.460 -4.3342 -0.5441  0.7636
   21MOL    H75 6115   6.765   1.625   3.874  0.2552 -0.5668  0.4549
   21MOL    H76 6116   6.627   1.517   3.859 -0.6757  0.5018  1.0711
   21MOL    C77 6117   6.803   1.406   3.915 -0.0693  0.1577 -1.4954
   21MOL    O78 6118   6.902   1.454   4.007 -0.4108 -0.4768 -0.3364
   21MOL    C79 6119   7.032   1.458   3.966  0.0712 -0.4014 -0.4280
   21MOL    O80 6120   7.077   1.414   3.860 -0.2825  0.2130 -0.2164
   21MOL    C81 6121   7.124   1.514   4.080 -0.3008  0.7914 -0.2689
   21MOL    C82 6122   7.253   1.576   4.021 -0.5534 -0.3229 -0.5206
   21MOL    C83 6123   6.714   1.327   4.011  0.1998  0.2366  0.4650
   21MOL    H84 6124   6.848   1.340   3.841 -1.8171  0.3754 -2.7882
   21MOL    H85 6125   7.061   1.595   4.115 -1.2725 -0.2437  0.3790
   21MOL    H86 6126   7.130   1.434   4.153  0.6402  0.3611 -0.7964
   21MOL    H87 6127   7.302   1.506   3.954  0.4680 -0.9010  0.8016
   21MOL    H88 6128   7.231   1.674   3.981  2.1486 -0.0373 -1.3689
   21MOL    H89 6129   7.323   1.605   4.100  1.7544  0.3151 -2.7424
   21MOL    H90 6130   6.780   1.266   4.073 -1.5530 -2.6481 -0.4078
   21MOL    H91 6131   6.661   1.406   4.064 -0.3437  1.0191 -1.1822
   21MOL    C92 6132   6.609   1.240   3.941  0.0558  0.2938  0.2000
   21MOL    O93 6133   6.687   1.143   3.868  0.1103 -0.2132  0.0952
   21MOL    C94 6134   6.641   1.094   3.751 -0.3062  0.3611  0.1935
   21MOL    O95 6135   6.520   1.097   3.705  0.4085 -0.6078  0.4407
   21MOL    C96 6136   6.749   1.003   3.687  0.0417 -0.3451  0.0327
   21MOL    C97 6137   6.789   1.059   3.548 -0.2425  0.5745 -0.0154
   21MOL    C98 6138   6.514   1.170   4.033 -0.1820  0.3795  0.3253
   21MOL    H99 6139   6.544   1.295   3.872 -1.0435 -2.0981 -0.7229
   21MOL   H100 6140   6.842   0.998   3.745 -0.3523 -0.1959  0.6876
   21MOL   H101 6141   6.707   0.903   3.692 -0.5996 -0.1175 -0.8291
   21MOL   H102 6142   6.864   1.137   3.561 -1.7565  2.1847 -0.6984
   21MOL   H103 6143   6.845   0.983   3.494  0.5058 -0.7142  2.4942
   21MOL   H104 6144   6.705   1.094   3.487 -1.4114  2.3585  2.5252
   21MOL   H105 6145   6.467   1.099   3.965 -0.8803  0.7259  0.4416
   21MOL   H106 6146   6.571   1.108   4.102  0.5091  0.9984  0.3219
   21MOL   C107 6147   6.408   1.259   4.099  0.0127  0.0887 -0.0240
   21MOL   O108 6148   6.293   1.268   4.021 -0.3245 -0.4022 -0.4751
   21MOL   C109 6149   6.272   1.373   3.937 -0.1122 -0.2918 -0.2431
   21MOL   O110 6150   6.347   1.470   3.921  0.7862  0.3547 -0.2711
   21MOL   C111 6151   6.141   1.350   3.865 -0.1816 -0.1938  0.6045
   21MOL   C112 6152   6.150   1.243   3.757  0.2770 -0.1212  0.1107
   21MOL   C113 6153   6.358   1.180   4.227 -0.0408  0.4664 -0.3935
   21MOL   H114 6154   6.432   1.359   4.136  1.4921 -0.7016  1.2191
   21MOL   H115 6155   6.063   1.327   3.937  1.5311  0.6570  2.7712
   21MOL   H116 6156   6.119   1.451   3.830  0.7288  0.2049  1.1754
   21MOL   H117 6157   6.197   1.150   3.790  0.2306 -0.5228 -0.9418
   21MOL   H118 6158   6.053   1.216   3.716  0.1464 -0.6449  0.7604
   21MOL   H119 6159   6.198   1.283   3.668 -2.1904  1.4662 -0.5472
   21MOL   H120 6160   6.282   1.105   4.205  0.1069  0.0285  0.5907
   21MOL   H121 6161   6.441   1.144   4.287  0.5067  0.9907 -0.8235
   21MOL   C122 6162   6.280   1.264   4.327 -0.0816 -0.5422 -0.4759
   21MOL   O123 6163   6.221   1.187   4.428 -0.0404 -0.5736  0.4839
   21MOL   C124 6164   6.089   1.198   4.458 -0.6977 -0.1806 -0.6215
   21MOL   O125 6165   6.010   1.277   4.405 -0.7497  0.0181  0.0236
   21MOL   C126 6166   6.031   1.092   4.552 -0.0125  0.2539 -0.8309
   21MOL   C127 6167   5.947   1.150   4.667  0.3869 -0.1433  0.8437
   21MOL   C128 6168   6.366   1.371   4.400 -0.3136 -0.6551  0.2189
   21MOL   H129 6169   6.208   1.312   4.261 -0.8181 -1.8399 -0.6258
   21MOL   H130 6170   5.967   1.024   4.497 -3.2897  0.5098  2.5065
   21MOL   H131 6171   6.114   1.032   4.591 -0.7509 -2.0928 -2.7551
   21MOL   H132 6172   5.986   1.242   4.709  0.7488  0.7478 -1.3664
   21MOL   H133 6173   5.846   1.181   4.639  0.3970 -1.2346 -0.4522
   21MOL   H134 6174   5.927   1.092   4.757 -1.4174 -0.6907  0.1249
   21MOL   H135 6175   6.452   1.325   4.448  0.5396 -2.3049 -2.7982
   21MOL   H136 6176   6.420   1.436   4.331 -1.6008  0.4894  0.2647
   21MOL   C137 6177   6.281   1.464   4.499 -0.0358 -0.0928 -0.0343
   21MOL   O138 6178   6.350   1.476   4.620  0.3356  0.3407  0.0741
   21MOL   C139 6179   6.332   1.391   4.721 -0.4944 -0.5454  0.0511
   21MOL   O140 6180   6.267   1.290   4.723 -0.0571 -0.0610  0.1278
   21MOL   C141 6181   6.426   1.422   4.834  0.3960 -0.3500 -0.5843
   21MOL   C142 6182   6.575   1.385   4.813 -0.5405 -0.2757 -0.2252
   21MOL   C143 6183   6.275   1.615   4.462 -0.0396  0.0048 -0.3535
   21MOL   H144 6184   6.176   1.436   4.506  0.1129 -0.1234  2.5294
   21MOL   H145 6185   6.426   1.528   4.862 -1.7471  0.2640 -2.7155
   21MOL   H146 6186   6.381   1.379   4.923 -1.2701  0.5078 -0.9877
   21MOL   H147 6187   6.613   1.424   4.719 -0.2226  0.3674  0.1693
   21MOL   H148 6188   6.640   1.423   4.892  0.2332  1.5790 -1.7237
   21MOL   H149 6189   6.585   1.276   4.812 -1.0141 -0.3401  0.8202
   21MOL   H150 6190   6.227   1.676   4.539  0.1485  0.6438 -0.7365
   21MOL   H151 6191   6.376   1.654   4.447  0.2332  0.2990  2.1397
   21MOL   C152 6192   6.212   1.657   4.328  0.1229  0.1322 -0.5617
   21MOL   O153 6193   6.071   1.636   4.330  0.1319 -0.0184  0.7552
   21MOL   C154 6194   6.003   1.553   4.247 -0.2494 -0.3791 -0.2704
   21MOL   O155 6195   6.050   1.491   4.155  0.2812  0.7302 -0.5097
   21MOL   C156 6196   5.860   1.550   4.286 -0.2908 -0.5464  0.2780
   21MOL   C157 6197   5.793   1.693   4.309 -0.3898 -1.1125 -0.2355
   21MOL   C158 6198   6.236   1.809   4.312 -0.1356 -0.3615 -0.7216
   21MOL   H159 6199   6.265   1.603   4.250  1.9993  0.6850  0.2974
   21MOL   H160 6200   5.802   1.490   4.216  1.0242 -0.7451 -0.6389
   21MOL   H161 6201   5.862   1.511   4.388  0.4796 -0.0983  0.4375
   21MOL   H162 6202   5.704   1.700   4.372  0.2253  0.0251  0.5199
   21MOL   H163 6203   5.865   1.762   4.353 -0.9018  0.1466 -1.3340
   21MOL   H164 6204   5.765   1.738   4.213 -0.0882  0.6826  0.4907
   21MOL   H165 6205   6.189   1.865   4.392  2.1636  0.1213  0.3485
   21MOL   H166 6206   6.343   1.830   4.309  0.0197 -1.1160 -0.5710
   21MOL   C167 6207   6.202   1.861   4.175 -0.1860 -0.8167  0.0798
   21MOL   O168 6208   6.170   1.998   4.196 -0.1500 -0.2443 -0.1842
   21MOL   C169 6209   6.049   2.039   4.175 -1.0514 -0.0400  0.1562
   21MOL   O170 6210   5.951   1.971   4.140  0.1138  0.6995  0.0756
   21MOL   C171 6211   6.032   2.189   4.200 -0.8544  0.3948  0.4771
   21MOL   C172 6212   6.066   2.274   4.072 -0.2025  0.0406 -0.7307
   21MOL   C173 6213   6.303   1.828   4.056 -0.5443  0.5587 -1.3148
   21MOL   H174 6214   6.112   1.807   4.144  0.9174 -3.1892  0.9019
   21MOL   H175 6215   5.926   2.192   4.225 -0.8357 -0.4214  0.6563
   21MOL   H176 6216   6.085   2.217   4.291  0.1339  0.1030 -0.0027
   21MOL   H177 6217   6.165   2.316   4.087 -1.3830  2.2208  1.4078
   21MOL   H178 6218   6.057   2.230   3.973  0.1114 -0.2332 -0.6383
   21MOL   H179 6219   6.005   2.365   4.082 -0.2779 -0.0828 -0.0268
   21MOL   H180 6220   6.399   1.863   4.094  0.1182 -2.7822  0.2323
   21MOL   H181 6221   6.323   1.721   4.060 -2.8300  0.1817  2.8625
   21MOL   C182 6222   6.265   1.887   3.922 -0.1979  0.0972  0.2417
   21MOL   O183 6223   6.387   1.888   3.855  0.2820  0.1699  0.0394
   21MOL   C184 6224   6.441   2.003   3.813 -0.4355  0.3888  0.9133
   21MOL   O185 6225   6.400   2.116   3.837  0.4496  0.4459 -0.7878
   21MOL   C186 6226   6.572   1.984   3.744 -0.2292  0.9750  0.0621
   21MOL   C187 6227   6.583   2.059   3.607 -0.0122  0.4551 -1.0909
   21MOL   C188 6228   6.151   1.809   3.849  0.6684  0.5445  0.2430
   21MOL   H189 6229   6.227   1.989   3.931 -0.8928 -0.2246  1.1419
   21MOL   H190 6230   6.659   2.014   3.803 -0.2580 -1.9476  1.6550
   21MOL   H191 6231   6.579   1.878   3.720 -2.9719  0.0552  3.0578
   21MOL   H192 6232   6.649   2.145   3.609  2.3254 -1.2808 -1.2681
   21MOL   H193 6233   6.622   2.000   3.524  2.4062 -3.2181  2.4407
   21MOL   H194 6234   6.492   2.104   3.567 -0.1110  1.3772  0.1482
   21MOL   H195 6235   6.194   1.713   3.822 -1.1082 -0.3191  0.4439
   21MOL   H196 6236   6.067   1.782   3.913  0.3821 -0.3972 -0.5165
   21MOL   C197 6237   6.089   1.874   3.725 -0.3980 -0.6039 -0.3651
   21MOL   O198 6238   6.029   1.772   3.643  0.0133 -0.1607 -0.4265
   21MOL   C199 6239   6.059   1.758   3.510 -0.1163 -0.3381  0.9048
   21MOL   O200 6240   6.124   1.838   3.446 -0.5860 -0.1162  0.8257
   21MOL   C201 6241   5.988   1.647   3.437 -0.0259 -0.5720 -0.3395
   21MOL   C202 6242   6.076   1.520   3.436  0.6604 -0.3643 -0.7899
   21MOL   C203 6243   5.986   1.985   3.774  0.1670  0.0458  0.5928
   21MOL   H204 6244   6.172   1.921   3.672 -1.6874  0.2938 -1.6182
   21MOL   H205 6245   5.888   1.641   3.480 -0.5600  0.6048 -1.3944
   21MOL   H206 6246   5.963   1.685   3.338  1.0785 -0.2059 -0.4802
   21MOL   H207 6247   6.066   1.469   3.531 -0.2606  2.2732  0.5780
   21MOL   H208 6248   6.049   1.460   3.349 -1.3967 -0.9096  0.1880
   21MOL   H209 6249   6.184   1.531   3.437  0.6826 -0.6822 -0.0041
   21MOL   H210 6250   5.928   1.953   3.860 -0.2051  1.3547  0.8269
   21MOL   H211 6251   6.052   2.068   3.798  0.0133 -0.5726  3.3293
   21MOL   C212 6252   5.897   2.045   3.659 -0.3111  0.1733  0.3922
   21MOL   O213 6253   5.781   1.963   3.646  0.0944  0.0485 -0.0604
   21MOL   C214 6254   5.735   1.938   3.523 -0.2970 -0.3763  0.4098
   21MOL   O215 6255   5.788   1.983   3.421 -0.1706  0.7441  0.4586
   21MOL   C216 6256   5.595   1.861   3.515  0.5163  0.0421  0.2686
   21MOL   C217 6257   5.608   1.713   3.530  0.1002  0.1047 -0.8079
   21MOL   C218 6258   5.861   2.192   3.685 -0.2338 -0.1257  0.4063
   21MOL   H219 6259   5.959   2.034   3.570 -0.0083  1.8734  0.3821
   21MOL   H220 6260   5.537   1.899   3.599  0.6951  1.3991 -0.2066
   21MOL   H221 6261   5.542   1.872   3.420  0.5163  1.4089  0.4052
   21MOL   H222 6262   5.678   1.680   3.606  0.0875  1.5896 -0.1465
   21MOL   H223 6263   5.514   1.663   3.554  0.7678  0.4144  2.6346
   21MOL   H224 6264   5.654   1.673   3.439  2.4985  0.9844 -0.0043
   21MOL   H225 6265   5.790   2.215   3.605  0.8488 -1.1231 -0.8383
   21MOL   H226 6266   5.804   2.200   3.778  0.4144  1.9061  0.6505
   21MOL   C227 6267   5.980   2.290   3.673 -0.2018  0.2227 -0.0645
   21MOL   O228 6268   6.031   2.285   3.537 -0.1995  0.2672  0.5284
   21MOL   C229 6269   6.135   2.210   3.493  0.3489 -0.2458  0.8309
   21MOL   O230 6270   6.211   2.147   3.573  0.1747  0.4415 -0.2749
   21MOL   C231 6271   6.143   2.201   3.341  0.2066  0.4376 -0.2245
   21MOL   C232 6272   6.029   2.130   3.276 -0.3025 -0.5844  0.1192
   21MOL   C233 6273   5.942   2.434   3.695 -1.3902  0.6853  0.2928
   21MOL   H234 6274   6.052   2.265   3.751  0.9252 -0.2894 -1.2378
   21MOL   H235 6275   6.155   2.306   3.314  0.8173  1.5655  3.9661
   21MOL   H236 6276   6.236   2.147   3.326  0.1910 -0.7516  3.4449
   21MOL   H237 6277   6.011   2.030   3.315  0.0195 -1.1669 -1.1934
   21MOL   H238 6278   5.937   2.182   3.301  0.1807  0.7904 -0.8811
   21MOL   H239 6279   6.035   2.130   3.167  0.0880  1.7649  0.1118
   21MOL   H240 6280   5.859   2.451   3.627  0.3033 -0.8169 -2.2619
   21MOL   H241 6281   5.907   2.438   3.798  1.5134  1.7202  1.2963
   21MOL   C242 6282   6.060   2.530   3.678 -0.4032  0.1257 -0.8796
   21MOL   O243 6283   6.011   2.652   3.734  0.2115  0.2662  0.2766
   21MOL   C244 6284   5.982   2.757   3.654  0.0357  0.5108 -0.1065
   21MOL   O245 6285   5.994   2.765   3.532 -0.7715  0.2605 -0.6801
   21MOL   C246 6286   5.917   2.867   3.730  0.8255 -0.1328 -0.4374
   21MOL   C247 6287   5.772   2.821   3.767  0.3451 -0.2021  1.0450
   21MOL   C248 6288   6.188   2.502   3.767  0.2937 -0.2574  0.7634
   21MOL   H249 6289   6.082   2.545   3.572 -0.7968 -1.7631 -1.2562
   21MOL   H250 6290   5.975   2.886   3.820  2.3248 -2.0314 -0.9768
   21MOL   H251 6291   5.917   2.961   3.674  1.0163  0.9302  1.3046
   21MOL   H252 6292   5.715   2.900   3.816 -0.0174  0.4399 -0.3714
   21MOL   H253 6293   5.707   2.827   3.680  0.8876 -0.8944  0.5932
   21MOL   H254 6294   5.768   2.720   3.807  3.3704 -1.7574 -2.2670
   21MOL   H255 6295   6.163   2.505   3.873 -1.1658 -0.6485  0.4466
   21MOL   H256 6296   6.223   2.400   3.753 -0.0326 -0.3116  0.3008
   21MOL   C257 6297   6.300   2.601   3.733 -0.2565 -0.3175 -0.6971
   21MOL   O258 6298   6.362   2.654   3.851 -0.1092  0.6379 -0.5660
   21MOL   C259 6299   6.306   2.756   3.924 -0.4614 -0.1986  0.1128
   21MOL   O260 6300   6.201   2.810   3.892 -0.1515 -0.0925 -0.0766
   21MOL   C261 6301   6.388   2.806   4.049  0.1082 -0.2232 -0.5523
   21MOL   C262 6302   6.410   2.958   4.035  0.4051 -0.3251  0.1624
   21MOL   C263 6303   6.414   2.530   3.662 -0.2302  0.1493  0.0323
   21MOL   H264 6304   6.253   2.677   3.670 -0.6666  1.8056  2.0944
   21MOL   H265 6305   6.327   2.783   4.136 -0.3421  0.9146 -0.5560
   21MOL   H266 6306   6.480   2.747   4.053 -0.4215 -0.9852  0.4812
   21MOL   H267 6307   6.474   2.993   4.116  0.3865  3.1037 -1.2232
   21MOL   H268 6308   6.457   2.986   3.940  0.1883 -0.1166  0.1170
   21MOL   H269 6309   6.323   3.024   4.040  0.2793 -0.3678 -1.1690
   21MOL   H270 6310   6.498   2.600   3.666  0.1588 -0.2964 -0.2777
   21MOL   H271 6311   6.463   2.442   3.704 -0.1736  0.3397  0.3684
   21MOL   C272 6312   6.387   2.509   3.507  0.8733  0.8680  0.3111
   21MOL   O273 6313   6.350   2.634   3.454 -0.4756  0.1332 -0.3079
   21MOL   C274 6314   6.263   2.649   3.351 -0.3314 -0.4285  0.5663
   21MOL   O275 6315   6.186   2.559   3.309  0.0871  0.3582 -0.0035
   21MOL   C276 6316   6.251   2.792   3.293 -0.3172 -0.2802  0.0497
   21MOL   C277 6317   6.374   2.853   3.214  0.2008 -0.0333  0.0684
   21MOL   C278 6318   6.509   2.460   3.427  0.4602  0.4229  0.2896
   21MOL   H279 6319   6.308   2.434   3.507  2.3010 -0.6701 -0.3444
   21MOL   H280 6320   6.161   2.784   3.232 -0.5259 -2.2679  0.5856
   21MOL   H281 6321   6.218   2.870   3.363  0.6866  0.4861 -0.3114
   21MOL   H282 6322   6.378   2.825   3.109  1.7857  1.9534 -0.4500
   21MOL   H283 6323   6.373   2.962   3.209  2.5304 -0.0118 -0.4448
   21MOL   H284 6324   6.470   2.818   3.253  0.4741  1.2595  0.6047
   21MOL   H285 6325   6.567   2.548   3.400 -0.6282  1.2901  0.7734
   21MOL   H286 6326   6.572   2.401   3.494 -0.4851  0.2614  1.0378
   21MOL   C287 6327   6.483   2.363   3.314 -0.2898 -0.4994  0.7868
   21MOL   O288 6328   6.456   2.427   3.193 -0.4126  0.6923 -0.2918
   21MOL   C289 6329   6.386   2.373   3.093 -0.0266  0.0150 -0.2950
   21MOL   O290 6330   6.327   2.264   3.098 -0.5559 -0.0148 -0.3341
   21MOL   C291 6331   6.366   2.461   2.968 -0.6194 -0.0183  0.5708
   21MOL   C292 6332   6.503   2.516   2.918 -0.0114 -0.1305 -0.5299
   21MOL   C293 6333   6.619   2.304   3.297 -0.6216  0.5912 -0.0276
   21MOL   H294 6334   6.414   2.286   3.350 -1.8914  1.3600  1.8173
   21MOL   H295 6335   6.316   2.386   2.907  0.4895 -0.0797 -0.2981
   21MOL   H296 6336   6.301   2.545   2.991  0.9511  1.0410  1.2189
   21MOL   H297 6337   6.578   2.438   2.933  0.0481  0.1153  0.4704
   21MOL   H298 6338   6.523   2.559   2.819 -2.2963  0.1085 -0.9047
   21MOL   H299 6339   6.534   2.593   2.989 -2.7580  2.0982 -1.6549
   21MOL   H300 6340   6.697   2.377   3.275 -0.3412  0.9871  2.2137
   21MOL   H301 6341   6.651   2.246   3.384  2.1624 -0.3353 -1.5919
   21MOL   H302 6342   6.610   2.233   3.214 -0.1330 -1.8316  1.9096
   22MOL     C1 6343   7.307   7.175   7.358  0.1920  0.0806  0.0677
   22MOL     O2 6344   7.285   7.071   7.454 -0.3302  0.4429 -0.0644
   22MOL     C3 6345   7.155   7.040   7.486 -1.2908 -0.3639 -0.0469
   22MOL     O4 6346   7.058   7.116   7.468 -0.6161 -0.0940  0.2739
   22MOL     C5 6347   7.144   6.904   7.555 -0.5276 -0.7631 -0.5085
   22MOL     C6 6348   7.253   6.883   7.667 -0.4426  0.0121  0.7576
   22MOL     C7 6349   7.455   7.191   7.323 -0.2190 -0.3669 -0.2270
   22MOL     H8 6350   7.266   7.270   7.392 -0.7269 -0.5631  0.8055
   22MOL     H9 6351   7.047   6.883   7.600  0.6361 -0.4741  2.2775
   22MOL    H10 6352   7.148   6.823   7.483 -2.3328 -0.8476 -0.5378
   22MOL    H11 6353   7.354   6.889   7.628 -0.4927 -0.1790  0.5972
   22MOL    H12 6354   7.246   6.960   7.744 -1.1771  0.5766  0.1345
   22MOL    H13 6355   7.234   6.789   7.719  0.2284 -0.0116  0.9605
   22MOL    H14 6356   7.498   7.234   7.413  0.5772  0.2514 -0.8949
   22MOL    H15 6357   7.496   7.091   7.323  1.1740  0.1926  0.6794
   22MOL    H16 6358   7.254   7.162   7.263  1.6140 -1.0960 -0.5755
   22MOL    C17 6359   7.504   7.273   7.198  0.1055  0.2847 -0.0265
   22MOL    O18 6360   7.647   7.290   7.184  0.1817 -0.5683 -0.2545
   22MOL    C19 6361   7.705   7.396   7.243 -0.0874  0.3683  0.5823
   22MOL    O20 6362   7.643   7.468   7.323 -0.3899 -0.6181 -0.0427
   22MOL    C21 6363   7.855   7.407   7.212 -0.2761 -0.5457  0.1873
   22MOL    C22 6364   7.894   7.536   7.123  0.0991  0.0410 -1.3199
   22MOL    C23 6365   7.473   7.180   7.081 -0.0436  0.4969 -0.4250
   22MOL    H24 6366   7.459   7.372   7.191 -0.0266  0.2086 -0.2439
   22MOL    H25 6367   7.907   7.420   7.307 -0.1496  2.9541 -0.2752
   22MOL    H26 6368   7.906   7.317   7.178 -0.3734 -0.7297  0.5313
   22MOL    H27 6369   7.927   7.616   7.189  2.0673 -1.6284 -0.2431
   22MOL    H28 6370   0.035   7.521   7.057 -0.3308 -0.0822 -1.8559
   22MOL    H29 6371   7.814   7.573   7.058 -1.0854  0.5603  0.4179
   22MOL    H30 6372   7.524   7.084   7.092 -1.3047  0.0467  1.8125
   22MOL    H31 6373   7.368   7.154   7.086  0.5412 -2.5580 -2.6086
   22MOL    C32 6374   7.492   7.238   6.938 -0.7509  0.7915  0.6795
   22MOL    O33 6375   7.626   7.212   6.895  0.2431 -0.2245 -0.6519
   22MOL    C34 6376   7.694   7.311   6.841 -0.5644 -0.1928 -0.4961
   22MOL    O35 6377   7.657   7.430   6.824  0.0963  0.1257  0.4396
   22MOL    C36 6378   7.830   7.267   6.794 -0.0227  0.1093  0.2502
   22MOL    C37 6379   7.844   7.117   6.761 -0.4109  1.1769 -0.0656
   22MOL    C38 6380   7.404   7.160   6.835  0.2867  0.4974 -0.6505
   22MOL    H39 6381   7.469   7.342   6.958  1.7790  1.0755  2.4077
   22MOL    H40 6382   7.856   7.327   6.707 -4.2380  1.8123  0.0219
   22MOL    H41 6383   7.904   7.295   6.869  1.6359  1.1435 -1.7275
   22MOL    H42 6384   7.816   7.061   6.850 -2.2550 -1.0441 -1.9755
   22MOL    H43 6385   7.760   7.081   6.700  0.5819 -0.6126 -0.4217
   22MOL    H44 6386   0.000   7.079   6.749 -1.7821 -2.3567 -1.2962
   22MOL    H45 6387   7.443   7.059   6.840 -0.6517  0.1399 -0.4781
   22MOL    H46 6388   7.305   7.160   6.881  0.8949 -1.6771  0.7114
   22MOL    C47 6389   7.415   7.198   6.689  0.7785 -0.0384 -0.4421
   22MOL    O48 6390   7.355   7.098   6.606  0.0681  0.7329 -0.0362
   22MOL    C49 6391   7.433   7.031   6.516 -0.1785 -0.1096 -0.0092
   22MOL    O50 6392   7.552   7.051   6.486 -0.0089  0.0006  0.0939
   22MOL    C51 6393   7.355   6.944   6.419  0.7332 -0.3065  0.7452
   22MOL    C52 6394   7.273   7.026   6.321  0.6871 -0.3507 -0.5849
   22MOL    C53 6395   7.348   7.332   6.650  0.1582 -0.7671  0.5583
   22MOL    H54 6396   7.521   7.219   6.669  0.0501  1.5004 -2.8954
   22MOL    H55 6397   7.410   6.876   6.354 -0.9843  0.6514 -1.8393
   22MOL    H56 6398   7.285   6.879   6.472 -1.5962 -2.1335 -4.2374
   22MOL    H57 6399   7.190   6.963   6.291  1.3907 -1.7467  0.3680
   22MOL    H58 6400   7.229   7.120   6.356  0.3842  0.8561 -4.0008
   22MOL    H59 6401   7.331   7.063   6.236 -0.5020  2.8852 -0.0523
   22MOL    H60 6402   7.241   7.327   6.670  0.0688 -1.7338 -0.1253
   22MOL    H61 6403   7.396   7.412   6.707 -0.0203 -0.6403  0.5295
   22MOL    C62 6404   7.381   7.384   6.506 -0.4307  0.2714 -0.5519
   22MOL    O63 6405   7.306   7.503   6.485  0.4075 -0.1062 -0.5594
   22MOL    C64 6406   7.197   7.490   6.423  0.4230 -0.3144 -0.2847
   22MOL    O65 6407   7.159   7.385   6.379 -0.6810 -0.0882 -0.5805
   22MOL    C66 6408   7.112   7.620   6.424 -0.1250  0.2471  0.0962
   22MOL    C67 6409   7.203   7.739   6.402 -0.6684 -1.0231  0.4024
   22MOL    C68 6410   7.529   7.425   6.488 -0.9406  1.0035  0.3663
   22MOL    H69 6411   7.357   7.300   6.441 -2.0253  0.1581  0.1815
   22MOL    H70 6412   7.055   7.610   6.332  0.8599 -0.9333 -0.4045
   22MOL    H71 6413   7.051   7.636   6.512  0.1038 -0.2215  0.3399
   22MOL    H72 6414   7.151   7.834   6.410  0.9373 -0.1611  0.8443
   22MOL    H73 6415   7.288   7.753   6.469  1.2202 -0.9376 -1.9342
   22MOL    H74 6416   7.252   7.720   6.306  0.0507  0.0085  0.5580
   22MOL    H75 6417   7.535   7.533   6.495  1.0766  0.8006  2.6182
   22MOL    H76 6418   7.587   7.394   6.576  0.6697  0.6954 -0.7817
   22MOL    C77 6419   7.594   7.383   6.350 -0.4712  0.0460 -0.2120
   22MOL    O78 6420   7.583   7.495   6.259  0.7082 -0.1357  0.0668
   22MOL    C79 6421   7.487   7.491   6.167 -0.2817  0.1442 -0.4491
   22MOL    O80 6422   7.399   7.407   6.158 -0.1448  0.4460  0.3914
   22MOL    C81 6423   7.490   7.603   6.064  0.2914 -0.2284 -0.0645
   22MOL    C82 6424   7.353   7.638   6.006 -0.1553 -0.3773 -0.1540
   22MOL    C83 6425   7.749   7.332   6.375 -0.0946  0.0133  0.6938
   22MOL    H84 6426   7.547   7.295   6.306 -0.7574 -0.2144  0.5905
   22MOL    H85 6427   7.542   7.686   6.113 -0.4572  0.3919 -0.3149
   22MOL    H86 6428   7.561   7.573   5.986  1.1557 -0.8485  0.9439
   22MOL    H87 6429   7.271   7.622   6.076  0.1049  3.1079  1.0511
   22MOL    H88 6430   7.355   7.739   5.965  3.7149  1.6794  4.6192
   22MOL    H89 6431   7.338   7.571   5.922  2.1362 -0.9672 -0.0999
   22MOL    H90 6432   7.805   7.413   6.422 -2.2574  1.1283  1.4314
   22MOL    H91 6433   7.749   7.239   6.431  2.2255 -0.4993 -0.1043
   22MOL    C92 6434   7.809   7.320   6.239 -0.1510 -0.4953 -0.1596
   22MOL    O93 6435   7.945   7.279   6.257  0.9234 -0.1355  0.2633
   22MOL    C94 6436   0.101   7.366   6.246  0.1902  0.5282 -0.3201
   22MOL    O95 6437   0.086   7.488   6.241  0.1373  0.2394  0.0339
   22MOL    C96 6438   0.242   7.299   6.236 -0.1601 -0.5206 -0.6575
   22MOL    C97 6439   0.268   7.253   6.092 -0.1656 -0.2746 -1.2320
   22MOL    C98 6440   7.746   7.202   6.151 -0.6000  0.1573 -0.3394
   22MOL    H99 6441   7.797   7.412   6.182  0.5942  0.7426  1.6380
   22MOL   H100 6442   0.306   7.377   6.276  1.0426 -1.8558  0.0962
   22MOL   H101 6443   0.251   7.218   6.309 -0.5240 -0.1760 -0.2298
   22MOL   H102 6444   0.375   7.245   6.071  0.0276  1.7161 -1.0802
   22MOL   H103 6445   0.227   7.154   6.075 -0.6518 -0.0440 -1.4139
   22MOL   H104 6446   0.217   7.329   6.033  1.3187  2.4852  0.8847
   22MOL   H105 6447   7.750   7.103   6.197 -1.6900 -0.7487 -2.1602
   22MOL   H106 6448   7.639   7.213   6.140 -0.7672  0.2658  1.1974
   22MOL   C107 6449   7.806   7.183   6.011  0.6366 -0.0753 -0.0557
   22MOL   O108 6450   7.796   7.048   5.961  0.4326  0.2447 -0.5837
   22MOL   C109 6451   7.904   6.976   5.927  1.0104 -0.0425 -0.8237
   22MOL   O110 6452   0.072   7.016   5.934 -0.0469 -0.1180 -0.1714
   22MOL   C111 6453   7.859   6.836   5.884 -0.0962  0.2172  0.1135
   22MOL   C112 6454   0.024   6.737   5.838  0.4706  0.8456  0.1592
   22MOL   C113 6455   7.743   7.286   5.908 -0.3606 -0.2902 -0.5599
   22MOL   H114 6456   7.910   7.211   6.025  0.2057  1.9211 -0.5989
   22MOL   H115 6457   7.808   6.787   5.966  2.1089  0.7127  1.8210
   22MOL   H116 6458   7.789   6.859   5.804 -1.1659 -2.7575  0.1395
   22MOL   H117 6459   7.935   6.637   5.810  0.9646  0.0527  2.3238
   22MOL   H118 6460   0.078   6.772   5.750 -0.2691  0.0790 -0.6144
   22MOL   H119 6461   0.103   6.724   5.912 -1.9351 -1.4930  2.4559
   22MOL   H120 6462   7.682   7.224   5.842  2.0464 -1.9707 -1.3009
   22MOL   H121 6463   7.677   7.355   5.960  1.1633  0.6721  0.1019
   22MOL   C122 6464   7.846   7.378   5.837 -0.7482  0.1554  0.4185
   22MOL   O123 6465   7.880   7.490   5.917  0.3872 -0.0426 -0.2481
   22MOL   C124 6466   7.859   7.610   5.870 -0.4005  0.2056 -0.0465
   22MOL   O125 6467   7.790   7.645   5.782 -0.0095  0.1480 -0.5611
   22MOL   C126 6468   7.919   7.713   5.965 -0.7069 -0.4260 -0.5271
   22MOL   C127 6469   0.130   7.709   5.960 -0.5944 -0.0812 -0.1175
   22MOL   C128 6470   0.025   7.306   5.787 -0.4218 -0.3721  0.2604
   22MOL   H129 6471   7.800   7.418   5.747  0.8096 -0.3301 -0.5966
   22MOL   H130 6472   7.881   7.808   5.930 -1.6952  0.6168  3.1271
   22MOL   H131 6473   7.878   7.711   6.066  0.1647  2.2193 -0.0756
   22MOL   H132 6474   0.186   7.790   6.007  0.2357 -0.8857  0.2951
   22MOL   H133 6475   0.158   7.626   6.024 -1.3163  0.5714  1.0832
   22MOL   H134 6476   0.162   7.692   5.857  1.4264  0.7630  0.3472
   22MOL   H135 6477   0.079   7.277   5.877 -2.5422  1.2734  2.1021
   22MOL   H136 6478   7.936   7.211   5.747 -0.8775 -1.1129  2.3434
   22MOL   C137 6479   0.116   7.384   5.695  0.1648  0.0719  0.2942
   22MOL   O138 6480   0.226   7.297   5.678  0.3776 -0.2963 -0.4086
   22MOL   C139 6481   0.341   7.312   5.740 -0.4750  0.8432  0.5783
   22MOL   O140 6482   0.369   7.400   5.814  0.4087 -0.0780 -0.4384
   22MOL   C141 6483   0.441   7.198   5.709 -0.1638  0.0833  0.3860
   22MOL   C142 6484   0.389   7.056   5.717  0.1377 -0.1928 -0.2366
   22MOL   C143 6485   0.057   7.427   5.553  0.3117  0.4472  0.6530
   22MOL   H144 6486   0.143   7.477   5.745  1.2117 -0.2411  0.3124
   22MOL   H145 6487   0.476   7.210   5.607 -0.3841  0.3602  0.3423
   22MOL   H146 6488   0.533   7.213   5.765 -0.0580 -0.3525  0.3274
   22MOL   H147 6489   0.379   7.022   5.820 -0.0044  1.5671  0.3365
   22MOL   H148 6490   0.290   7.057   5.672 -0.1434  1.4751  0.3757
   22MOL   H149 6491   0.459   6.992   5.664 -0.8047 -0.9808 -0.5430
   22MOL   H150 6492   0.115   7.370   5.481  0.2904  0.6152  0.5025
   22MOL   H151 6493   7.898   7.395   5.549  1.0921 -2.0483 -0.8279
   22MOL   C152 6494   0.047   7.580   5.510  0.1599 -0.0351  0.6358
   22MOL   O153 6495   0.178   7.625   5.532 -0.3115 -0.0158 -0.0929
   22MOL   C154 6496   0.205   7.751   5.582  0.7481 -0.1000  0.3574
   22MOL   O155 6497   0.128   7.840   5.614 -0.1442 -0.3421  0.5577
   22MOL   C156 6498   0.354   7.777   5.574  0.3517 -0.3214 -0.1283
   22MOL   C157 6499   0.438   7.680   5.662  0.2431 -0.7078  0.2507
   22MOL   C158 6500   7.942   7.607   5.366 -0.5838  0.5136 -0.2338
   22MOL   H159 6501   7.925   7.630   5.579 -0.9887  1.9299 -1.8169
   22MOL   H160 6502   0.381   7.773   5.469  1.5055 -2.2782  0.2224
   22MOL   H161 6503   0.365   7.879   5.612  0.7656  0.1636 -1.5478
   22MOL   H162 6504   0.509   7.742   5.718  0.8762 -0.1232 -1.1701
   22MOL   H163 6505   0.381   7.622   5.735 -0.8644 -0.1376 -0.1488
   22MOL   H164 6506   0.498   7.619   5.595  3.0224  1.1876  0.9006
   22MOL   H165 6507   7.927   7.712   5.340  0.3827  0.4833 -0.9489
   22MOL   H166 6508   0.079   7.562   5.310  1.9819  2.2341  1.9864
   22MOL   C167 6509   7.810   7.542   5.320 -0.5352 -0.1599 -0.1426
   22MOL   O168 6510   7.706   7.600   5.395 -0.2139 -0.1514 -0.1614
   22MOL   C169 6511   7.636   7.530   5.480 -0.0226 -0.6775 -1.5284
   22MOL   O170 6512   7.629   7.404   5.482 -0.3783  0.7048  0.4252
   22MOL   C171 6513   7.567   7.621   5.580  0.5473 -0.5892 -0.1011
   22MOL   C172 6514   7.471   7.708   5.495  0.5167 -0.1659 -0.3409
   22MOL   C173 6515   7.780   7.566   5.178 -0.0703  0.1380 -0.3478
   22MOL   H174 6516   7.812   7.434   5.339  0.9146 -0.4364 -1.6973
   22MOL   H175 6517   7.510   7.558   5.650 -0.3523 -1.5369 -1.6461
   22MOL   H176 6518   7.634   7.685   5.637  2.2745 -2.0807 -0.4156
   22MOL   H177 6519   7.382   7.744   5.547  0.3146 -0.0251 -0.7867
   22MOL   H178 6520   7.527   7.795   5.460  4.1203 -1.9608  0.7143
   22MOL   H179 6521   7.441   7.666   5.400 -0.8263  0.6775 -0.2951
   22MOL   H180 6522   7.682   7.521   5.163  0.6081 -1.4022 -0.3707
   22MOL   H181 6523   7.766   7.673   5.169  1.2057  0.4749  1.5690
   22MOL   C182 6524   7.878   7.527   5.070 -0.3549 -0.1917 -0.0647
   22MOL   O183 6525   7.921   7.393   5.083  0.2930  0.3426  0.1369
   22MOL   C184 6526   0.091   7.357   5.041  0.0191  0.6182 -0.3503
   22MOL   O185 6527   0.181   7.428   5.003  0.2585  0.4302 -0.0313
   22MOL   C186 6528   0.110   7.205   5.051  0.1013 -0.3297 -0.1324
   22MOL   C187 6529   0.247   7.151   4.997 -0.3502  0.1018 -0.6262
   22MOL   C188 6530   7.816   7.551   4.928 -0.0494  0.0123 -0.5082
   22MOL   H189 6531   0.025   7.584   5.086  1.2330 -2.1439 -1.9790
   22MOL   H190 6532   0.105   7.175   5.156  1.9679  2.1335  0.7033
   22MOL   H191 6533   0.033   7.151   4.996 -1.7547 -0.6356  2.6645
   22MOL   H192 6534   0.325   7.161   5.073 -1.2929  0.5004  0.2989
   22MOL   H193 6535   0.240   7.044   4.978  0.0936  0.0805 -0.6871
   22MOL   H194 6536   0.285   7.182   4.900 -0.0073  0.1769 -0.4693
   22MOL   H195 6537   7.750   7.465   4.915  0.0046 -0.3028  1.1888
   22MOL   H196 6538   7.741   7.629   4.929 -0.5400 -0.4786  1.8635
   22MOL   C197 6539   7.895   7.563   4.795 -0.6511  0.1267  0.5665
   22MOL   O198 6540   7.801   7.618   4.696  1.0921 -0.4159  0.0557
   22MOL   C199 6541   7.755   7.547   4.588  0.2798 -0.5636 -0.5488
   22MOL   O200 6542   7.784   7.431   4.568 -0.3962  0.2197  0.2305
   22MOL   C201 6543   7.654   7.622   4.500  0.1849  0.0154  0.3224
   22MOL   C202 6544   7.531   7.677   4.575  0.3128  0.8308 -0.0459
   22MOL   C203 6545   0.058   7.674   4.806  0.3686  0.2365  0.1598
   22MOL   H204 6546   0.000   7.471   4.765 -0.2381  0.6681 -0.4223
   22MOL   H205 6547   7.704   7.693   4.434 -1.0414  1.6089  1.0680
   22MOL   H206 6548   7.617   7.552   4.425  1.1882 -0.9337  0.7044
   22MOL   H207 6549   7.563   7.770   4.623 -0.9631  1.3133 -0.1154
   22MOL   H208 6550   7.449   7.704   4.509 -0.6547  3.3890  2.1320
   22MOL   H209 6551   7.497   7.598   4.641  3.1010  0.8033  1.4656
   22MOL   H210 6552   0.001   7.765   4.829 -1.2356 -1.1952  2.0114
   22MOL   H211 6553   0.129   7.653   4.886 -0.9031 -1.0374  0.9697
   22MOL   C212 6554   0.139   7.705   4.673 -0.1719 -0.2859  0.5089
   22MOL   O213 6555   0.245   7.795   4.701 -0.5038  0.0298 -0.5194
   22MOL   C214 6556   0.300   7.875   4.599 -0.3821 -0.8391 -0.2545
   22MOL   O215 6557   0.255   7.886   4.486 -0.3454  0.0780 -0.4119
   22MOL   C216 6558   0.412   0.025   4.646 -0.1767  0.3641  0.0343
   22MOL   C217 6559   0.364   0.143   4.731  0.0572 -0.8928 -0.1515
   22MOL   C218 6560   0.195   7.581   4.606 -0.8372  0.1947  0.6236
   22MOL   H219 6561   0.080   7.755   4.596 -2.1452 -2.0166  0.8582
   22MOL   H220 6562   0.482   7.925   4.716  0.0172 -0.4907 -0.6931
   22MOL   H221 6563   0.471   0.052   4.558  1.0112 -2.0936  0.0470
   22MOL   H222 6564   0.325   0.220   4.663  1.6450  0.7115  0.7310
   22MOL   H223 6565   0.294   0.113   4.809 -2.4052 -1.3507 -2.4250
   22MOL   H224 6566   0.451   0.197   4.766 -0.5734  0.1448 -0.1559
   22MOL   H225 6567   0.110   7.520   4.576 -1.2107  0.9440  0.1472
   22MOL   H226 6568   0.246   7.598   4.511 -2.0938 -0.1571 -0.1264
   22MOL   C227 6569   0.296   7.492   4.677 -0.2025  0.1718  0.4639
   22MOL   O228 6570   0.319   7.366   4.612 -0.2038  0.0477 -0.3051
   22MOL   C229 6571   0.231   7.259   4.615 -0.1221 -0.1832 -0.2703
   22MOL   O230 6572   0.118   7.257   4.668 -0.3728  0.5433  0.5879
   22MOL   C231 6573   0.290   7.144   4.549 -1.4663  0.2671 -0.6356
   22MOL   C232 6574   0.262   7.007   4.621 -0.2416 -0.1245  0.0304
   22MOL   C233 6575   0.437   7.549   4.690 -0.3527 -0.2442  0.1304
   22MOL   H234 6576   0.264   7.466   4.778 -0.1364 -1.2792  0.1326
   22MOL   H235 6577   0.258   7.133   4.445  0.2897 -0.2957 -1.1339
   22MOL   H236 6578   0.399   7.150   4.544 -1.4303 -0.4730 -0.8737
   22MOL   H237 6579   0.195   6.947   4.560 -0.4099 -0.6720  0.7415
   22MOL   H238 6580   0.343   6.938   4.641 -1.1149 -1.4176 -0.8181
   22MOL   H239 6581   0.207   7.029   4.713 -1.5057 -1.1024 -0.4839
   22MOL   H240 6582   0.476   7.549   4.588  0.8403 -1.3389  0.5822
   22MOL   H241 6583   0.433   7.655   4.715 -0.5082 -0.2158 -0.0149
   22MOL   C242 6584   0.522   7.471   4.798  0.1095  0.1869 -0.1962
   22MOL   O243 6585   0.593   7.390   4.707  0.1233 -0.1039  0.4717
   22MOL   C244 6586   0.623   7.266   4.748  0.1374  0.5259  0.5474
   22MOL   O245 6587   0.579   7.213   4.852 -0.4293  0.3623 -0.5139
   22MOL   C246 6588   0.697   7.185   4.639  0.1730 -0.6306  0.1034
   22MOL   C247 6589   0.668   7.036   4.652 -0.0182 -0.6341  0.1077
   22MOL   C248 6590   0.609   7.567   4.880 -0.4016  0.1641 -0.4556
   22MOL   H249 6591   0.460   7.414   4.867 -1.3947  1.8823 -0.1235
   22MOL   H250 6592   0.644   7.229   4.555 -0.5629  0.3255  1.0451
   22MOL   H251 6593   0.805   7.201   4.639  0.3145 -1.1377  3.6144
   22MOL   H252 6594   0.565   7.019   4.619 -0.5929  2.4784  0.2288
   22MOL   H253 6595   0.734   6.974   4.590  1.9288  0.6934  0.7959
   22MOL   H254 6596   0.676   6.996   4.753 -2.5409  0.8242  0.9119
   22MOL   H255 6597   0.675   7.624   4.814  2.0095 -1.2282  0.6871
   22MOL   H256 6598   0.530   7.633   4.916 -0.8816  0.9148 -2.8256
   22MOL   C257 6599   0.687   7.513   5.007  0.9065 -0.4668  0.1286
   22MOL   O258 6600   0.798   7.439   4.968 -0.2538 -0.0097  0.0058
   22MOL   C259 6601   0.857   7.355   5.048  0.2300 -0.1274  0.5509
   22MOL   O260 6602   0.816   7.309   5.158 -0.6377 -0.3450 -0.0100
   22MOL   C261 6603   0.994   7.302   4.990 -0.2844 -0.0654  0.1821
   22MOL   C262 6604   0.981   7.175   4.897 -0.6799 -0.0911 -0.2931
   22MOL   C263 6605   0.725   7.638   5.092  0.2087 -0.0528 -0.2624
   22MOL   H264 6606   0.617   7.453   5.066 -1.0246  1.4599 -0.1414
   22MOL   H265 6607   1.022   7.388   4.930  2.4953 -0.3675  0.9396
   22MOL   H266 6608   1.060   7.283   5.075  0.2427 -0.5151 -0.3226
   22MOL   H267 6609   0.937   7.086   4.942  1.1959 -1.5476 -1.3203
   22MOL   H268 6610   0.912   7.198   4.815 -1.6692 -0.5341  0.4117
   22MOL   H269 6611   1.075   7.157   4.846  0.7547  1.4041  1.7653
   22MOL   H270 6612   0.809   7.604   5.152  1.0240 -0.9302 -1.8646
   22MOL   H271 6613   0.760   7.715   5.023 -0.9748  2.6136  2.0013
   22MOL   C272 6614   0.605   7.698   5.170 -0.2437 -1.0665 -0.7501
   22MOL   O273 6615   0.555   7.602   5.269 -0.0470 -0.0056 -0.7134
   22MOL   C274 6616   0.423   7.568   5.270  0.3309  0.0933  0.2136
   22MOL   O275 6617   0.343   7.621   5.194 -0.5970 -0.5095  0.0074
   22MOL   C276 6618   0.389   7.449   5.358 -0.5727  0.5793 -0.4175
   22MOL   C277 6619   0.464   7.318   5.315  0.2699  0.5365 -0.8801
   22MOL   C278 6620   0.650   7.822   5.247  0.2757 -0.4475 -0.8627
   22MOL   H279 6621   0.535   7.721   5.090  1.0589  0.3649 -1.4934
   22MOL   H280 6622   0.413   7.485   5.458 -1.4107 -1.7582  0.6572
   22MOL   H281 6623   0.281   7.434   5.352 -1.1882  4.3446  0.1367
   22MOL   H282 6624   0.444   7.278   5.216  2.4080 -1.2484 -0.6323
   22MOL   H283 6625   0.572   7.328   5.320  0.4756 -1.5343 -0.8570
   22MOL   H284 6626   0.441   7.229   5.374 -0.8442  2.2434  1.3512
   22MOL   H285 6627   0.570   7.853   5.314  1.1487  2.5118 -1.1051
   22MOL   H286 6628   0.720   7.792   5.326 -0.2585 -1.0263 -0.6051
   22MOL   C287 6629   0.689   0.004   5.164  0.0031  0.2043  0.2263
   22MOL   O288 6630   0.808   7.925   5.102  0.1317 -0.4309  0.3241
   22MOL   C289 6631   0.919   0.047   5.137 -0.1391  0.0036  0.0799
   22MOL   O290 6632   0.929   0.128   5.231  0.4411 -0.1104 -0.0409
   22MOL   C291 6633   1.042   0.011   5.059 -0.9612  0.4916 -0.1553
   22MOL   C292 6634   1.099   7.818   5.094  0.1519  0.0570  0.8631
   22MOL   C293 6635   0.588   0.047   5.058 -0.6754 -0.5722 -0.3325
   22MOL   H294 6636   0.688   0.092   5.230 -1.2205  0.0049  0.4800
   22MOL   H295 6637   1.011   0.012   4.954 -2.6398  2.1776  0.3299
   22MOL   H296 6638   1.110   0.096   5.064  0.6137 -0.7744  0.2574
   22MOL   H297 6639   1.157   7.815   5.187  0.7915 -1.2581  0.4287
   22MOL   H298 6640   1.032   7.733   5.081  1.3727 -0.7514 -0.2593
   22MOL   H299 6641   1.178   7.797   5.023  1.6492  1.5838  2.0430
   22MOL   H300 6642   0.549   7.913   4.994  0.9396 -1.8888  0.2687
   22MOL   H301 6643   0.500   0.082   5.112  0.0235  0.5971  0.0664
   22MOL   H302 6644   0.622   0.128   4.994  0.7117  0.4221  1.6094
   23MOL     C1 6645   7.942   0.252   6.682  0.2171 -0.1627 -0.0080
   23MOL     O2 6646   0.112   0.285   6.597  0.4069 -0.6531  0.1921
   23MOL     C3 6647   0.162   0.206   6.515 -0.0988  0.0769  0.5076
   23MOL     O4 6648   0.127   0.088   6.505 -0.2138 -0.5348 -0.3643
   23MOL     C5 6649   0.272   0.271   6.432 -0.1318  0.0574  0.5142
   23MOL     C6 6650   0.271   0.217   6.290 -0.3960  0.4681 -0.5445
   23MOL     C7 6651   7.915   0.361   6.792 -0.7437  0.5827 -0.6708
   23MOL     H8 6652   0.035   0.162   6.731 -0.4068 -1.3350 -1.6043
   23MOL     H9 6653   0.260   0.379   6.430 -0.6433 -0.0198 -0.5224
   23MOL    H10 6654   0.367   0.257   6.484 -0.1436 -0.4010  0.4192
   23MOL    H11 6655   0.264   0.109   6.292 -1.0130  0.4958 -0.8011
   23MOL    H12 6656   0.181   0.252   6.239 -0.7465 -1.1594 -1.0588
   23MOL    H13 6657   0.366   0.244   6.245  0.5757 -0.3588  0.9730
   23MOL    H14 6658   7.848   0.313   6.863 -1.3154  1.1157 -0.8455
   23MOL    H15 6659   0.068   0.392   6.829  0.2894  1.0616 -3.6337
   23MOL    H16 6660   7.857   0.229   6.617  0.8044 -2.5889  0.0137
   23MOL    C17 6661   7.844   0.483   6.735  0.3984 -0.2999 -0.0005
   23MOL    O18 6662   7.788   0.542   6.861  0.7243  0.3487 -0.0187
   23MOL    C19 6663   7.665   0.503   6.908  0.5611  0.2393  0.1586
   23MOL    O20 6664   7.596   0.413   6.852  0.5875  0.7170  0.2049
   23MOL    C21 6665   7.619   0.578   7.029  0.1493  0.4917 -0.4430
   23MOL    C22 6666   7.483   0.646   7.013  0.2913 -0.3565  0.0061
   23MOL    C23 6667   0.000   0.582   6.666  0.3247  0.2779 -0.2860
   23MOL    H24 6668   7.762   0.465   6.666 -0.1308  0.0570  0.5307
   23MOL    H25 6669   7.617   0.506   7.111  1.6580  0.8270 -0.1017
   23MOL    H26 6670   7.690   0.653   7.065 -0.5968  0.7794  0.4383
   23MOL    H27 6671   7.485   0.742   6.961  2.3495  0.1573  0.9964
   23MOL    H28 6672   7.419   0.573   6.963  0.6570  0.1674 -1.2415
   23MOL    H29 6673   7.434   0.653   7.110  0.4473  0.1671  0.0497
   23MOL    H30 6674   0.042   0.647   6.742  1.6213 -0.6908 -0.1523
   23MOL    H31 6675   0.081   0.526   6.618 -0.5040 -1.4765  0.3370
   23MOL    C32 6676   7.888   0.683   6.562 -0.6365  0.6657  0.0887
   23MOL    O33 6677   7.825   0.607   6.462  0.2883  0.3011  0.0680
   23MOL    C34 6678   7.889   0.559   6.355  0.0739  0.5830  0.8517
   23MOL    O35 6679   0.057   0.581   6.326  0.1167  0.0523 -0.3744
   23MOL    C36 6680   7.797   0.477   6.261  0.1438  0.4303 -1.0136
   23MOL    C37 6681   7.804   0.531   6.116  0.5102  0.4824  0.0649
   23MOL    C38 6682   7.785   0.778   6.620  0.0515 -0.1375  0.0902
   23MOL    H39 6683   0.021   0.751   6.526 -0.8536  0.1894 -1.3070
   23MOL    H40 6684   7.834   0.374   6.266  0.1184  0.4435 -0.5243
   23MOL    H41 6685   7.695   0.469   6.300  0.4879 -0.3124 -0.2409
   23MOL    H42 6686   7.897   0.489   6.078 -0.5747 -2.8156  0.8526
   23MOL    H43 6687   7.720   0.487   6.063 -0.5267  2.1979  0.2664
   23MOL    H44 6688   7.806   0.640   6.110  0.9083  0.5065  0.5751
   23MOL    H45 6689   7.689   0.729   6.634 -1.2930  1.9961 -1.3435
   23MOL    H46 6690   7.818   0.795   6.722 -2.4874 -0.3686  0.9620
   23MOL    C47 6691   7.770   0.912   6.546 -0.4723 -0.5217  0.5146
   23MOL    O48 6692   7.667   0.904   6.438  0.0813  0.1806 -0.0279
   23MOL    C49 6693   7.707   0.904   6.308  0.4035  0.0630 -0.0134
   23MOL    O50 6694   7.821   0.873   6.271 -0.3916  0.1636 -0.0140
   23MOL    C51 6695   7.606   0.945   6.207 -0.1132 -0.0715 -0.3814
   23MOL    C52 6696   7.575   1.093   6.204 -0.0308  0.4949 -0.2627
   23MOL    C53 6697   7.732   1.031   6.646  0.1313 -0.4381 -0.0082
   23MOL    H54 6698   7.862   0.940   6.495 -0.6058 -1.3143 -0.1624
   23MOL    H55 6699   7.653   0.929   6.110  0.4314 -2.0882  0.2002
   23MOL    H56 6700   7.520   0.879   6.218  1.1747 -1.8532 -0.7914
   23MOL    H57 6701   7.479   1.122   6.162 -1.3445 -0.0622  2.2216
   23MOL    H58 6702   7.573   1.123   6.309  1.5191 -0.9956  0.2258
   23MOL    H59 6703   7.654   1.148   6.153  1.1849  0.4520  1.5314
   23MOL    H60 6704   7.801   1.040   6.729 -1.8431  1.6952  1.4701
   23MOL    H61 6705   7.759   1.128   6.605  2.4266 -0.9201  0.2949
   23MOL    C62 6706   7.593   1.037   6.707  0.1955 -0.1766  0.6776
   23MOL    O63 6707   7.597   1.124   6.818 -0.7053  0.6076 -0.1296
   23MOL    C64 6708   7.595   1.077   6.942  0.0854  0.0086 -0.3614
   23MOL    O65 6709   7.561   0.966   6.976  0.5402  0.6187  0.7062
   23MOL    C66 6710   7.628   1.181   7.047 -0.3182  0.0949  0.6065
   23MOL    C67 6711   7.671   1.125   7.180  0.1017  0.0856 -0.0521
   23MOL    C68 6712   7.491   1.097   6.605 -0.0572 -0.0945 -0.0426
   23MOL    H69 6713   7.553   0.941   6.739  0.7374  0.0296  2.0354
   23MOL    H70 6714   7.696   1.260   7.013 -0.5075 -0.6607 -1.6069
   23MOL    H71 6715   7.536   1.237   7.061  0.3264  0.9284  1.6284
   23MOL    H72 6716   7.613   1.045   7.225  1.7610 -0.1818  1.6597
   23MOL    H73 6717   7.776   1.095   7.189  0.5162  0.7231 -2.3670
   23MOL    H74 6718   7.652   1.203   7.253  1.4940  1.0158 -0.6448
   23MOL    H75 6719   7.535   1.187   6.562 -0.0538 -0.0629  0.0269
   23MOL    H76 6720   7.473   1.024   6.526  1.2659  0.7332 -1.1255
   23MOL    C77 6721   7.351   1.140   6.661 -0.6175  0.6613 -0.1647
   23MOL    O78 6722   7.278   1.214   6.570 -0.4494  0.6798  0.1985
   23MOL    C79 6723   7.227   1.334   6.596 -0.2780  0.7862 -0.0936
   23MOL    O80 6724   7.213   1.384   6.710 -0.5040  0.3009 -1.0939
   23MOL    C81 6725   7.169   1.406   6.472  0.0182 -0.1720 -0.0850
   23MOL    C82 6726   7.013   1.416   6.478  0.7251 -0.1481 -0.7471
   23MOL    C83 6727   7.269   1.015   6.719 -0.7075 -0.2892  0.1849
   23MOL    H84 6728   7.380   1.210   6.739 -0.1051  1.0136 -0.6704
   23MOL    H85 6729   7.211   1.503   6.445  1.4594 -1.4299 -2.5678
   23MOL    H86 6730   7.199   1.344   6.388 -0.9571 -1.1210  0.2511
   23MOL    H87 6731   6.971   1.316   6.476  0.4585 -0.1394  2.5961
   23MOL    H88 6732   6.979   1.470   6.566  2.0309 -1.1359  0.3783
   23MOL    H89 6733   6.987   1.474   6.389  1.3150  3.8795  1.5491
   23MOL    H90 6734   7.334   0.973   6.796 -0.3736 -0.0634  0.0305
   23MOL    H91 6735   7.179   1.043   6.773 -0.6361  1.8955 -0.7542
   23MOL    C92 6736   7.224   0.907   6.621 -0.0912  0.3904  0.0662
   23MOL    O93 6737   7.195   0.787   6.684  0.2561  0.6008 -0.4215
   23MOL    C94 6738   7.289   0.692   6.717 -0.3305  0.2375 -0.4944
   23MOL    O95 6739   7.407   0.713   6.724 -0.7890  0.1796  0.0164
   23MOL    C96 6740   7.223   0.560   6.755  0.3471  0.0074 -0.0426
   23MOL    C97 6741   7.173   0.481   6.633 -0.1909 -0.6542 -0.0030
   23MOL    C98 6742   7.090   0.951   6.555 -0.4124  0.0254 -0.2431
   23MOL    H99 6743   7.305   0.880   6.552  0.8600  0.2097  1.2410
   23MOL   H100 6744   7.303   0.505   6.804  2.9390  2.1155 -1.7641
   23MOL   H101 6745   7.144   0.555   6.830 -0.5855 -2.8418 -1.1611
   23MOL   H102 6746   7.258   0.440   6.578  0.1695 -0.6775  0.5743
   23MOL   H103 6747   7.115   0.394   6.664 -0.4582 -0.1716  0.8655
   23MOL   H104 6748   7.107   0.535   6.565 -0.8118 -1.1009  0.2393
   23MOL   H105 6749   7.011   0.892   6.602 -1.1948  0.3511 -1.1444
   23MOL   H106 6750   7.069   1.056   6.573  0.5495 -0.0082  1.1625
   23MOL   C107 6751   7.091   0.948   6.402 -0.1634 -0.3593 -0.8428
   23MOL   O108 6752   7.141   0.824   6.352 -0.0752  0.4598  0.3529
   23MOL   C109 6753   7.214   0.810   6.246  0.6756  0.8736  0.4446
   23MOL   O110 6754   7.274   0.897   6.183  0.1616  0.6308 -0.1294
   23MOL   C111 6755   7.234   0.665   6.211 -0.1459  0.4151  0.5046
   23MOL   C112 6756   7.329   0.588   6.306 -0.1798 -0.0010 -0.1332
   23MOL   C113 6757   6.961   1.004   6.345  0.2826  0.1678  0.0735
   23MOL   H114 6758   7.166   1.026   6.388  0.2309 -0.2567  1.5440
   23MOL   H115 6759   7.144   0.606   6.199 -0.0083 -0.2601  2.4776
   23MOL   H116 6760   7.271   0.687   6.111  0.1345 -0.0114  0.5137
   23MOL   H117 6761   7.316   0.627   6.407 -0.7379  1.1378 -0.6314
   23MOL   H118 6762   7.302   0.484   6.293 -0.3369  0.3176 -2.5342
   23MOL   H119 6763   7.432   0.606   6.275  0.2873  0.7024  1.6957
   23MOL   H120 6764   6.879   0.933   6.355 -1.7691  2.2595 -1.2009
   23MOL   H121 6765   6.921   1.091   6.398 -1.2411 -2.1035  2.8179
   23MOL   C122 6766   6.966   1.043   6.195 -0.2764  0.4471  0.4549
   23MOL   O123 6767   6.831   1.061   6.156 -0.3909 -0.4388 -0.2285
   23MOL   C124 6768   6.795   1.032   6.032 -0.6534 -0.5028 -1.0776
   23MOL   O125 6769   6.849   0.955   5.955 -0.4025  0.3281  0.5681
   23MOL   C126 6770   6.669   1.091   5.987 -0.4911  1.0194 -1.2020
   23MOL   C127 6771   6.674   1.241   6.003  0.1522 -0.7740 -0.1209
   23MOL   C128 6772   7.045   1.168   6.188  0.4678  0.0064 -0.1012
   23MOL   H129 6773   7.002   0.956   6.140 -2.9788  0.6938 -1.8348
   23MOL   H130 6774   6.646   1.079   5.881  0.3875  1.3729 -1.4373
   23MOL   H131 6775   6.585   1.051   6.044 -0.0906  0.2120 -1.1742
   23MOL   H132 6776   6.768   1.279   5.964  1.4762 -2.0172  1.8115
   23MOL   H133 6777   6.593   1.282   5.941 -0.5891 -1.2340  0.5376
   23MOL   H134 6778   6.650   1.260   6.107 -0.3810  0.2043 -0.4107
   23MOL   H135 6779   6.999   1.250   6.243 -0.6005 -0.8290  0.2530
   23MOL   H136 6780   7.141   1.149   6.237 -0.9071 -2.2130  1.8224
   23MOL   C137 6781   7.081   1.222   6.052  1.0471 -0.2604  0.0590
   23MOL   O138 6782   7.141   1.348   6.083 -0.2641  0.6606  0.0769
   23MOL   C139 6783   7.092   1.455   6.022 -1.2912  0.0367 -0.3289
   23MOL   O140 6784   6.989   1.463   5.953 -0.0907  0.2148 -0.4643
   23MOL   C141 6785   7.183   1.577   6.034  0.5147  0.5406 -0.0160
   23MOL   C142 6786   7.283   1.594   5.920 -0.2851 -0.0009  0.4554
   23MOL   C143 6787   7.184   1.132   5.977 -0.0907 -0.3987 -0.2108
   23MOL   H144 6788   6.991   1.214   5.990 -0.1371  0.1467  1.7144
   23MOL   H145 6789   7.111   1.658   6.024 -0.9917 -0.7650  0.1301
   23MOL   H146 6790   7.221   1.597   6.134  1.1313  0.4492 -0.2282
   23MOL   H147 6791   7.306   1.700   5.909  0.7867 -0.1161  1.5851
   23MOL   H148 6792   7.373   1.533   5.925 -1.4845 -1.8222  0.2006
   23MOL   H149 6793   7.243   1.563   5.823  2.1346  0.6451 -0.7679
   23MOL   H150 6794   7.271   1.133   6.043  0.9412 -0.1519 -1.5530
   23MOL   H151 6795   7.165   1.024   5.977 -0.1060 -0.4102 -2.5329
   23MOL   C152 6796   7.215   1.156   5.829  0.1360  0.2367 -0.0198
   23MOL   O153 6797   7.337   1.085   5.800  0.0904 -0.3667  0.4598
   23MOL   C154 6798   7.453   1.152   5.790  0.0931  0.0760  0.0713
   23MOL   O155 6799   7.473   1.268   5.834 -0.6243  0.0633  0.6346
   23MOL   C156 6800   7.569   1.080   5.717 -0.6940  0.4972  0.0711
   23MOL   C157 6801   7.670   1.035   5.825  0.0375  1.0951 -0.0505
   23MOL   C158 6802   7.103   1.106   5.736  0.1391  0.2304 -0.1809
   23MOL   H159 6803   7.223   1.262   5.805 -0.8140 -0.1759 -2.2930
   23MOL   H160 6804   7.523   0.995   5.667 -0.5378  1.4115 -1.6561
   23MOL   H161 6805   7.612   1.152   5.647 -0.7447 -1.0516 -1.5600
   23MOL   H162 6806   7.737   0.959   5.784 -0.7957  0.7186 -0.7241
   23MOL   H163 6807   7.735   1.117   5.853 -0.0162  1.0484  0.2155
   23MOL   H164 6808   7.619   0.997   5.914  1.2101  1.7410  0.9111
   23MOL   H165 6809   7.092   0.998   5.749 -0.2027  0.1857 -0.8275
   23MOL   H166 6810   7.004   1.146   5.761  0.4502 -0.0487  1.5306
   23MOL   C167 6811   7.127   1.136   5.593  0.5049 -0.0269  0.2605
   23MOL   O168 6812   7.021   1.074   5.510 -0.0073  0.4868  0.5525
   23MOL   C169 6813   7.026   0.951   5.469 -0.4299  0.9316 -0.5337
   23MOL   O170 6814   7.111   0.873   5.498 -0.1712  0.5802  0.5538
   23MOL   C171 6815   6.902   0.918   5.396  0.4631  0.5439 -0.3848
   23MOL   C172 6816   6.900   0.970   5.253 -0.4871  0.4181  0.7060
   23MOL   C173 6817   7.121   1.292   5.562 -0.3590 -0.0365  0.1680
   23MOL   H174 6818   7.227   1.100   5.571 -0.0410 -1.0331 -0.6204
   23MOL   H175 6819   6.894   0.809   5.392  1.5233  0.4990 -1.7789
   23MOL   H176 6820   6.820   0.942   5.464  0.9579 -0.6550  0.6515
   23MOL   H177 6821   6.893   1.079   5.249 -1.8287  0.2551 -1.6371
   23MOL   H178 6822   6.984   0.940   5.191 -0.6449 -0.5143  0.9307
   23MOL   H179 6823   6.814   0.921   5.208  0.6800 -1.9039  0.8967
   23MOL   H180 6824   7.034   1.317   5.501 -0.1728 -0.1332 -0.1364
   23MOL   H181 6825   7.108   1.343   5.658 -2.4255  0.2150 -0.2363
   23MOL   C182 6826   7.254   1.330   5.484  0.8776 -0.6372 -0.3922
   23MOL   O183 6827   7.263   1.258   5.369  0.1274  0.1203 -0.2523
   23MOL   C184 6828   7.391   1.200   5.334 -0.0042  0.4274  0.4038
   23MOL   O185 6829   7.490   1.203   5.403 -0.2654 -0.2099  0.2927
   23MOL   C186 6830   7.397   1.142   5.187  0.4986  0.5768 -0.9685
   23MOL   C187 6831   7.261   1.086   5.134  0.1236 -0.0345  0.1325
   23MOL   C188 6832   7.254   1.485   5.444 -0.1789  0.5953 -0.1545
   23MOL   H189 6833   7.338   1.310   5.551  0.5990 -0.2261  0.0864
   23MOL   H190 6834   7.436   1.222   5.125  0.9658  3.2250  2.5836
   23MOL   H191 6835   7.470   1.061   5.190  0.7059  0.7750 -0.6118
   23MOL   H192 6836   7.273   1.037   5.037 -0.7602  0.8418 -0.4168
   23MOL   H193 6837   7.216   1.017   5.205  1.6781  0.9634  2.1354
   23MOL   H194 6838   7.189   1.162   5.105 -0.2073 -0.2275  0.4559
   23MOL   H195 6839   7.196   1.491   5.352 -0.1604 -1.1166 -0.3014
   23MOL   H196 6840   7.210   1.541   5.526 -0.0618  0.4435  0.0120
   23MOL   C197 6841   7.401   1.545   5.421  0.4681 -0.3903 -0.2335
   23MOL   O198 6842   7.383   1.680   5.377 -0.2593 -0.5345  0.1953
   23MOL   C199 6843   7.371   1.709   5.253 -0.1956 -0.9812 -0.4445
   23MOL   O200 6844   7.386   1.634   5.160  0.0487  0.2810 -0.1605
   23MOL   C201 6845   7.342   1.863   5.232 -0.0309 -0.2402 -0.6155
   23MOL   C202 6846   7.435   1.941   5.139  0.3105  0.2711  0.6566
   23MOL   C203 6847   7.493   1.530   5.540 -0.0495 -0.3476  0.1025
   23MOL   H204 6848   7.451   1.492   5.340 -0.3639 -0.6337 -0.5944
   23MOL   H205 6849   7.238   1.866   5.199 -0.0059  0.3927 -0.6229
   23MOL   H206 6850   7.335   1.910   5.330  0.0568 -0.9183 -0.2758
   23MOL   H207 6851   7.403   1.893   5.047 -2.4190 -0.0552  1.7215
   23MOL   H208 6852   7.410   2.047   5.133 -1.8233 -0.2086  0.6645
   23MOL   H209 6853   7.542   1.926   5.155  0.4368 -0.2068 -0.5693
   23MOL   H210 6854   7.450   1.569   5.633  1.0976  0.6171  0.2375
   23MOL   H211 6855   7.500   1.422   5.559 -1.0507 -0.7301 -1.6200
   23MOL   C212 6856   7.635   1.592   5.529 -0.8305 -0.3076 -0.4945
   23MOL   O213 6857   7.620   1.733   5.516  0.1088  0.0194  0.6208
   23MOL   C214 6858   7.664   1.797   5.402  0.4103  0.2757 -0.4995
   23MOL   O215 6859   7.718   1.746   5.305 -0.1590  0.2973 -0.1485
   23MOL   C216 6860   7.654   1.952   5.426  0.1159  0.1173 -0.5526
   23MOL   C217 6861   7.766   2.030   5.362  0.0067 -0.3946  0.1315
   23MOL   C218 6862   7.727   1.564   5.651  0.6671  0.3874  0.1422
   23MOL   H219 6863   7.672   1.541   5.441 -0.2281  0.3032 -0.6052
   23MOL   H220 6864   7.561   1.996   5.388  0.6863  1.5431 -0.3370
   23MOL   H221 6865   7.652   1.967   5.534 -1.6823  2.2831 -0.8275
   23MOL   H222 6866   7.759   2.026   5.253  1.5311 -0.8803  0.0382
   23MOL   H223 6867   7.762   2.133   5.398  0.8502 -0.3614  0.1468
   23MOL   H224 6868   7.865   1.996   5.393  0.4954  1.0949  0.2417
   23MOL   H225 6869   7.668   1.584   5.740 -0.6150 -0.9079 -0.3953
   23MOL   H226 6870   7.739   1.456   5.660  1.3473  0.5784  1.6865
   23MOL   C227 6871   7.861   1.635   5.648  0.4908 -0.0454 -0.3095
   23MOL   O228 6872   7.844   1.773   5.690 -0.6843  0.3459 -0.0704
   23MOL   C229 6873   7.807   1.817   5.816  0.1793  0.1821  0.6716
   23MOL   O230 6874   7.785   1.741   5.911  0.2814  0.0495 -0.5703
   23MOL   C231 6875   7.813   1.966   5.826 -0.1506 -0.3432 -0.1352
   23MOL   C232 6876   7.723   2.026   5.935 -0.3128 -0.9208 -0.0135
   23MOL   C233 6877   0.031   1.568   5.738  0.3020  0.9195 -0.0999
   23MOL   H234 6878   7.891   1.647   5.544 -3.3654 -2.0368 -1.7442
   23MOL   H235 6879   7.920   1.985   5.841  0.2642 -3.9106  2.0981
   23MOL   H236 6880   7.803   2.009   5.727  0.9710  0.0969 -0.0708
   23MOL   H237 6881   7.745   1.987   6.034 -2.8441 -0.6018  0.7254
   23MOL   H238 6882   7.747   2.132   5.951 -0.6746 -0.9204  0.5206
   23MOL   H239 6883   7.617   2.005   5.921 -0.5970 -0.2062  0.9987
   23MOL   H240 6884   7.937   1.570   5.840  0.9079 -2.3459  0.2317
   23MOL   H241 6885   0.047   1.462   5.720  0.0893  1.0275 -0.9360
   23MOL   C242 6886   0.167   1.630   5.738  0.1140 -0.6357 -0.4665
   23MOL   O243 6887   0.234   1.602   5.863 -0.5052 -0.4080  0.0563
   23MOL   C244 6888   0.269   1.712   5.940  0.2515 -0.6218  0.0096
   23MOL   O245 6889   0.242   1.830   5.922  0.3054  0.0202  0.4779
   23MOL   C246 6890   0.358   1.675   6.056 -0.3882  0.6598 -0.0461
   23MOL   C247 6891   0.307   1.559   6.138  0.6716 -0.6321  0.3349
   23MOL   C248 6892   0.254   1.590   5.622  0.1511 -0.5137  0.7830
   23MOL   H249 6893   0.145   1.737   5.742  0.8205 -0.4570 -1.2863
   23MOL   H250 6894   0.452   1.649   6.008 -0.1554 -2.0586  1.8199
   23MOL   H251 6895   0.376   1.756   6.127 -1.9048 -0.3215  1.4863
   23MOL   H252 6896   0.378   1.527   6.215  0.9703  0.8797  0.7030
   23MOL   H253 6897   0.222   1.604   6.189 -1.7768  0.2652 -4.2753
   23MOL   H254 6898   0.271   1.469   6.089 -3.3273  1.0574  0.0153
   23MOL   H255 6899   0.332   1.524   5.660  0.0814 -0.9533  0.1723
   23MOL   H256 6900   0.204   1.526   5.549 -2.2088  1.4464  0.6479
   23MOL   C257 6901   0.314   1.711   5.550 -0.0933  0.7609 -0.1898
   23MOL   O258 6902   0.375   1.803   5.642  0.1128  0.1531  0.3129
   23MOL   C259 6903   0.324   1.927   5.653  0.2707  0.3161  0.3689
   23MOL   O260 6904   0.206   1.955   5.614  0.1739 -0.3915 -0.9618
   23MOL   C261 6905   0.416   2.017   5.732 -0.0064  0.1869 -0.0173
   23MOL   C262 6906   0.449   2.148   5.663  0.4901 -0.2867 -0.6237
   23MOL   C263 6907   0.425   1.691   5.443  0.6779  0.3509  0.2791
   23MOL   H264 6908   0.231   1.753   5.494 -0.2163  1.1252  0.2643
   23MOL   H265 6909   0.383   2.035   5.834 -2.6708 -0.3349 -0.7524
   23MOL   H266 6910   0.505   1.956   5.747 -0.1749  0.1338  0.7631
   23MOL   H267 6911   0.519   2.150   5.579  0.4064 -0.8030 -0.7126
   23MOL   H268 6912   0.366   2.200   5.616  0.6977  1.0464  0.4940
   23MOL   H269 6913   0.495   2.220   5.730 -1.0556  0.3520 -0.2526
   23MOL   H270 6914   0.461   1.791   5.416  0.4280  0.0904 -1.0524
   23MOL   H271 6915   0.509   1.640   5.491  1.0319 -0.9250 -1.6102
   23MOL   C272 6916   0.380   1.610   5.323 -0.1380  0.0149 -0.6526
   23MOL   O273 6917   0.277   1.680   5.248  0.0335  0.3075 -0.5552
   23MOL   C274 6918   0.151   1.627   5.230  0.1519 -0.1415 -0.2888
   23MOL   O275 6919   0.110   1.535   5.298  0.1022  0.0006 -0.1810
   23MOL   C276 6920   0.073   1.695   5.116 -0.8518  0.4351 -0.2515
   23MOL   C277 6921   0.166   1.751   5.005  0.1093 -0.2086 -0.7206
   23MOL   C278 6922   0.492   1.572   5.225 -0.0411 -0.0923  0.0278
   23MOL   H279 6923   0.338   1.515   5.357 -0.3187  0.1727 -0.4339
   23MOL   H280 6924   0.005   1.622   5.070  0.3618 -0.6422 -0.3566
   23MOL   H281 6925   0.007   1.772   5.157  0.8965  1.6096  0.3937
   23MOL   H282 6926   0.242   1.686   4.962  0.5285  0.5339 -1.1176
   23MOL   H283 6927   0.113   1.816   4.935  0.7609  0.4025 -0.6549
   23MOL   H284 6928   0.225   1.825   5.060 -1.1533  0.6060 -0.4511
   23MOL   H285 6929   0.451   1.519   5.139  1.6256 -0.1691 -0.7515
   23MOL   H286 6930   0.514   1.666   5.174  0.8353 -0.4999 -0.3613
   23MOL   C287 6931   0.630   1.512   5.279 -0.4316  0.4897  0.3577
   23MOL   O288 6932   0.606   1.375   5.296  0.6452 -0.1016 -0.0170
   23MOL   C289 6933   0.647   1.303   5.402  0.7891  0.4866 -0.3541
   23MOL   O290 6934   0.711   1.343   5.498 -0.0145 -0.4407 -0.4366
   23MOL   C291 6935   0.597   1.152   5.405 -0.9032  0.1487  0.3237
   23MOL   C292 6936   0.714   1.053   5.392 -0.0603 -0.3029 -0.1749
   23MOL   C293 6937   0.753   1.522   5.179 -0.4278 -0.0437  0.2320
   23MOL   H294 6938   0.663   1.561   5.370  0.8652 -1.4015  0.9483
   23MOL   H295 6939   0.546   1.137   5.500 -2.3841 -0.4252 -0.5393
   23MOL   H296 6940   0.525   1.135   5.325 -1.6961 -2.0880  1.4759
   23MOL   H297 6941   0.688   0.947   5.394 -1.3558  0.0068  0.8416
   23MOL   H298 6942   0.768   1.091   5.306 -0.0971  1.2559  0.4652
   23MOL   H299 6943   0.783   1.064   5.476 -1.3142 -0.1162  0.8645
   23MOL   H300 6944   0.846   1.484   5.220 -1.0919 -0.0062  1.8172
   23MOL   H301 6945   0.728   1.472   5.085 -1.5117  1.4328 -0.2922
   23MOL   H302 6946   0.772   1.628   5.162 -3.0255  0.4416  0.0881
   24MOL     C1 6947   4.621   4.079   3.634  0.3878 -0.1754 -0.5014
   24MOL     O2 6948   4.685   4.209   3.646 -0.0619 -0.4014 -0.4099
   24MOL     C3 6949   4.764   4.255   3.551  0.9890  0.7043 -1.2120
   24MOL     O4 6950   4.778   4.209   3.437 -0.3605 -0.0293  0.2903
   24MOL     C5 6951   4.829   4.386   3.596 -0.2477 -0.1181  0.0491
   24MOL     C6 6952   4.913   4.396   3.724  0.7756 -0.6233 -0.2916
   24MOL     C7 6953   4.519   4.080   3.522 -0.8292 -0.7752 -0.4221
   24MOL     H8 6954   4.576   4.062   3.732  0.4533 -0.7924 -0.5730
   24MOL     H9 6955   4.870   4.439   3.510  0.2873  0.9748  0.9578
   24MOL    H10 6956   4.739   4.448   3.604 -0.3336  0.3835 -3.7489
   24MOL    H11 6957   4.915   4.502   3.750 -1.1586 -0.8720  1.0341
   24MOL    H12 6958   4.854   4.354   3.805  0.0375  1.7685  0.4684
   24MOL    H13 6959   5.005   4.340   3.712  1.7711  0.8618  0.3268
   24MOL    H14 6960   4.459   4.171   3.523 -1.3234 -1.0976 -0.8984
   24MOL    H15 6961   4.576   4.084   3.429 -0.4622  1.3532 -0.1303
   24MOL    H16 6962   4.699   4.005   3.615  0.8896  0.3236 -0.3811
   24MOL    C17 6963   4.427   3.956   3.532 -0.1544 -0.5564 -0.4017
   24MOL    O18 6964   4.302   3.997   3.590 -0.3695 -0.6564 -0.1088
   24MOL    C19 6965   4.281   3.984   3.727 -0.4765 -0.1919  0.1567
   24MOL    O20 6966   4.366   3.944   3.804  0.0303 -0.3244  0.2079
   24MOL    C21 6967   4.141   4.026   3.766  0.7140 -0.0448  0.3016
   24MOL    C22 6968   4.085   4.157   3.701 -1.4218  0.0467 -0.0926
   24MOL    C23 6969   4.394   3.898   3.392 -0.4154  0.4482  0.2031
   24MOL    H24 6970   4.477   3.875   3.585 -0.4619  0.7051  1.8705
   24MOL    H25 6971   4.063   3.953   3.745 -1.0651  1.4464  1.5760
   24MOL    H26 6972   4.139   4.022   3.875  0.5853 -2.0339  0.2369
   24MOL    H27 6973   4.174   4.208   3.662  1.2362 -3.8501  0.5722
   24MOL    H28 6974   4.023   4.127   3.617  0.2432  0.4053 -1.4888
   24MOL    H29 6975   4.031   4.231   3.760 -0.0086  0.8972  0.1507
   24MOL    H30 6976   4.286   3.884   3.380 -0.5339  0.7989  0.8096
   24MOL    H31 6977   4.427   3.957   3.308  2.4614 -1.6149 -0.1799
   24MOL    C32 6978   4.451   3.756   3.385 -0.4812 -0.2045 -0.3596
   24MOL    O33 6979   4.374   3.666   3.464 -0.8099  0.3354 -0.5212
   24MOL    C34 6980   4.428   3.561   3.531  0.2300 -0.2556 -0.3056
   24MOL    O35 6981   4.538   3.515   3.508 -0.9531 -0.1465  0.0657
   24MOL    C36 6982   4.334   3.503   3.627  0.2570  0.3669 -0.3369
   24MOL    C37 6983   4.321   3.589   3.761  0.0385  0.3238 -0.9833
   24MOL    C38 6984   4.461   3.708   3.244 -0.0307 -0.1301 -0.1546
   24MOL    H39 6985   4.552   3.759   3.426 -0.4808 -0.9769 -0.2824
   24MOL    H40 6986   4.238   3.515   3.576  0.8657  3.1170 -0.9428
   24MOL    H41 6987   4.347   3.400   3.658  1.0936  0.3006 -0.9021
   24MOL    H42 6988   4.369   3.553   3.852 -2.2810 -0.6800 -0.1268
   24MOL    H43 6989   4.360   3.691   3.754 -0.2776  0.6149  1.2730
   24MOL    H44 6990   4.218   3.605   3.791  1.0234  0.9336  2.2414
   24MOL    H45 6991   4.542   3.761   3.195 -1.9321  1.1926 -1.9849
   24MOL    H46 6992   4.493   3.603   3.248  0.5950  0.0706  0.0889
   24MOL    C47 6993   4.333   3.714   3.154  0.2299 -0.8547 -0.0599
   24MOL    O48 6994   4.348   3.825   3.064 -0.2645 -0.1545 -0.6970
   24MOL    C49 6995   4.247   3.910   3.030 -0.4490  1.0167  0.1808
   24MOL    O50 6996   4.138   3.906   3.076  0.0196 -0.1403  0.0643
   24MOL    C51 6997   4.278   4.024   2.936  0.3355  0.5570  0.2956
   24MOL    C52 6998   4.348   3.971   2.812 -0.1468 -0.3681  0.6022
   24MOL    C53 6999   4.317   3.589   3.063  1.1529 -0.8043 -0.2572
   24MOL    H54 7000   4.246   3.740   3.215  0.5569 -0.6064  0.3046
   24MOL    H55 7001   4.178   4.054   2.904 -0.3295 -1.4917  0.3405
   24MOL    H56 7002   4.338   4.099   2.988  3.0709 -2.0800  1.0778
   24MOL    H57 7003   4.453   3.948   2.831  0.1936  0.5512 -0.1200
   24MOL    H58 7004   4.320   3.870   2.783  2.2162 -0.7581 -0.4589
   24MOL    H59 7005   4.341   4.045   2.733  0.4660 -0.7517  0.1791
   24MOL    H60 7006   4.291   3.507   3.131 -1.9967  1.6282  1.6090
   24MOL    H61 7007   4.223   3.598   3.008 -1.2802 -2.1140  3.4539
   24MOL    C62 7008   4.432   3.554   2.955  0.6732  0.3546  0.1402
   24MOL    O63 7009   4.534   3.480   3.017 -0.2276 -0.0876  0.0150
   24MOL    C64 7010   4.657   3.520   2.992 -0.4748  0.4948  0.8416
   24MOL    O65 7011   4.689   3.608   2.912 -0.1058 -0.0757  0.2375
   24MOL    C66 7012   4.767   3.460   3.072  0.8218  0.9631 -0.2615
   24MOL    C67 7013   4.816   3.537   3.196 -0.0162  0.4608 -0.7616
   24MOL    C68 7014   4.375   3.470   2.837  0.1531  1.2716  0.4243
   24MOL    H69 7015   4.467   3.654   2.929  1.7978 -0.0199  0.1794
   24MOL    H70 7016   4.737   3.360   3.104  1.5674  0.3383 -1.4545
   24MOL    H71 7017   4.847   3.442   3.000  1.1139  1.1585  0.0114
   24MOL    H72 7018   4.869   3.476   3.269 -0.7052  0.6874 -0.0630
   24MOL    H73 7019   4.896   3.601   3.158  1.2820 -0.5198  0.2698
   24MOL    H74 7020   4.740   3.588   3.255  1.1853 -0.1656  1.3994
   24MOL    H75 7021   4.458   3.407   2.807 -0.1338  1.0684  0.0549
   24MOL    H76 7022   4.295   3.409   2.880  2.2121 -0.0299  2.4937
   24MOL    C77 7023   4.313   3.542   2.716  0.6211  0.0283 -0.7522
   24MOL    O78 7024   4.200   3.614   2.768 -0.4078  0.2334  0.0449
   24MOL    C79 7025   4.084   3.602   2.708  0.0397 -0.0050  0.8873
   24MOL    O80 7026   4.062   3.541   2.598 -1.0458  0.2469  0.2537
   24MOL    C81 7027   3.973   3.678   2.782  0.5782  0.8242  0.2049
   24MOL    C82 7028   3.840   3.684   2.705 -0.9500 -0.3199 -0.2959
   24MOL    C83 7029   4.413   3.633   2.645  0.1744 -0.2943  0.4877
   24MOL    H84 7030   4.279   3.468   2.643  1.7046 -1.3039  0.0551
   24MOL    H85 7031   3.969   3.660   2.889 -1.8613 -2.7410 -0.3908
   24MOL    H86 7032   3.999   3.784   2.779 -0.4332  1.0257 -2.8113
   24MOL    H87 7033   3.782   3.763   2.754 -0.0369  0.1753 -0.0016
   24MOL    H88 7034   3.859   3.718   2.604  1.0255 -0.1779  0.1051
   24MOL    H89 7035   3.783   3.591   2.701 -1.4548 -0.0738  0.9416
   24MOL    H90 7036   4.448   3.719   2.701  2.1257  0.6119 -2.0381
   24MOL    H91 7037   4.503   3.574   2.628  0.5622 -0.2873  2.3310
   24MOL    C92 7038   4.367   3.696   2.520  0.5562 -0.0762 -0.0568
   24MOL    O93 7039   4.460   3.785   2.468 -0.2210 -0.7854 -0.0007
   24MOL    C94 7040   4.442   3.920   2.459  0.4466 -0.2940 -0.5578
   24MOL    O95 7041   4.344   3.991   2.477 -0.1225  0.4417 -0.3088
   24MOL    C96 7042   4.574   3.985   2.410  0.4155  0.6446  0.0068
   24MOL    C97 7043   4.684   3.972   2.514  0.0783 -0.3381  0.0556
   24MOL    C98 7044   4.322   3.600   2.400 -0.0701  0.9007  0.7647
   24MOL    H99 7045   4.277   3.754   2.541  0.4680  0.3998 -1.6476
   24MOL   H100 7046   4.610   3.959   2.310  0.9887  0.1574  0.3384
   24MOL   H101 7047   4.555   4.093   2.407 -1.0028  0.3750 -1.4139
   24MOL   H102 7048   4.707   3.866   2.502 -1.3049 -0.4817 -1.5097
   24MOL   H103 7049   4.774   4.019   2.474 -0.4886 -0.2686 -1.1816
   24MOL   H104 7050   4.648   4.002   2.612 -1.2315  1.9311 -1.0695
   24MOL   H105 7051   4.253   3.524   2.437  1.6093 -0.2357  1.5960
   24MOL   H106 7052   4.259   3.660   2.334 -1.1070 -1.3790 -0.3765
   24MOL   C107 7053   4.441   3.544   2.317  0.9729 -0.1052 -0.5622
   24MOL   O108 7054   4.501   3.435   2.396 -0.1456 -0.3266 -0.2053
   24MOL   C109 7055   4.627   3.425   2.426 -0.0555  0.2829  0.4380
   24MOL   O110 7056   4.713   3.504   2.389  0.1075  0.4391 -0.2846
   24MOL   C111 7057   4.669   3.304   2.508  0.2958 -0.5303  0.3771
   24MOL   C112 7058   4.751   3.339   2.634 -0.0312  0.1925  0.2636
   24MOL   C113 7059   4.396   3.496   2.179  0.0025 -0.3499  0.4043
   24MOL   H114 7060   4.516   3.622   2.304  3.1520 -2.0947 -0.1946
   24MOL   H115 7061   4.589   3.238   2.540  1.5590 -2.3867 -0.1796
   24MOL   H116 7062   4.721   3.244   2.433 -0.8577  0.5307 -1.2974
   24MOL   H117 7063   4.798   3.245   2.663 -0.3458 -0.1697 -0.4005
   24MOL   H118 7064   4.825   3.417   2.620 -0.8771  0.8126 -0.8035
   24MOL   H119 7065   4.681   3.376   2.709  1.8558  3.0668  0.6853
   24MOL   H120 7066   4.459   3.417   2.137  0.6209 -0.0325  0.7330
   24MOL   H121 7067   4.302   3.444   2.195 -0.9120  0.7185 -1.4350
   24MOL   C122 7068   4.372   3.605   2.078 -0.0167  0.2521 -0.2012
   24MOL   O123 7069   4.497   3.639   2.017 -0.1473 -0.2905  0.2562
   24MOL   C124 7070   4.548   3.764   2.018  0.2543  1.0382 -0.0125
   24MOL   O125 7071   4.492   3.858   2.075  0.6285 -0.3882  0.5807
   24MOL   C126 7072   4.669   3.774   1.933 -0.1817 -0.5797 -0.5128
   24MOL   C127 7073   4.615   3.773   1.787 -0.5896  0.4870 -0.7887
   24MOL   C128 7074   4.295   3.545   1.959 -0.1175  0.0463 -0.0633
   24MOL   H129 7075   4.329   3.687   2.134  0.9865  0.6880 -0.0505
   24MOL   H130 7076   4.727   3.865   1.949  0.0014 -1.1571  2.1926
   24MOL   H131 7077   4.735   3.691   1.957 -1.2579 -1.0987  0.7263
   24MOL   H132 7078   4.577   3.674   1.760 -0.3807  0.7814 -2.2099
   24MOL   H133 7079   4.532   3.842   1.771  0.0595  1.3570 -0.4676
   24MOL   H134 7080   4.691   3.812   1.720  0.1098  3.2221  1.4796
   24MOL   H135 7081   4.360   3.488   1.892  1.0146  0.8337  0.3451
   24MOL   H136 7082   4.222   3.472   1.994  0.8770  0.0306  2.0291
   24MOL   C137 7083   4.238   3.652   1.857  0.7598  0.4421  0.0197
   24MOL   O138 7084   4.198   3.598   1.735  0.0659 -0.0079 -0.4136
   24MOL   C139 7085   4.254   3.624   1.611 -0.3376 -1.1213 -0.4720
   24MOL   O140 7086   4.359   3.687   1.595 -0.4797  0.1356 -0.0436
   24MOL   C141 7087   4.174   3.561   1.502 -0.1693 -0.0956 -0.2891
   24MOL   C142 7088   4.027   3.591   1.500  0.4918  0.5178 -0.5628
   24MOL   C143 7089   4.125   3.737   1.920  0.4877 -0.2075 -0.1063
   24MOL   H144 7090   4.324   3.717   1.840  0.2988  1.0945  0.1533
   24MOL   H145 7091   4.215   3.572   1.402 -0.5813  1.4433 -0.3101
   24MOL   H146 7092   4.182   3.453   1.514 -0.4294 -0.1371 -0.4792
   24MOL   H147 7093   3.967   3.525   1.563  0.2168  2.8550  1.7403
   24MOL   H148 7094   4.001   3.691   1.536 -1.1859 -0.2507  0.4315
   24MOL   H149 7095   3.979   3.577   1.403 -0.2311  0.9547 -0.2752
   24MOL   H150 7096   4.169   3.782   2.009  4.2226 -1.5538 -1.1610
   24MOL   H151 7097   4.110   3.828   1.862 -0.1771 -0.1093  0.2132
   24MOL   C152 7098   3.988   3.674   1.947  0.7007  0.0894  0.5608
   24MOL   O153 7099   3.951   3.712   2.081  0.3883  0.2885  0.2998
   24MOL   C154 7100   3.977   3.628   2.185  0.2419  0.0330  1.1036
   24MOL   O155 7101   4.035   3.520   2.182  0.0541 -0.6892 -1.0158
   24MOL   C156 7102   3.896   3.665   2.311 -0.6656 -0.8511  0.0040
   24MOL   C157 7103   3.745   3.653   2.301  0.1618  0.1449 -0.2304
   24MOL   C158 7104   3.877   3.706   1.844 -0.4455  0.1981 -0.2446
   24MOL   H159 7105   3.993   3.566   1.937 -2.6966 -0.1028  0.5500
   24MOL   H160 7106   3.931   3.591   2.383 -0.1290  0.3298  0.9698
   24MOL   H161 7107   3.926   3.763   2.347  1.2691 -1.5026  0.2132
   24MOL   H162 7108   3.719   3.664   2.407  0.2161 -1.9005  0.0218
   24MOL   H163 7109   3.689   3.727   2.244  1.0018  1.6870  0.9046
   24MOL   H164 7110   3.722   3.547   2.283  0.7596  0.0669 -0.5466
   24MOL   H165 7111   3.845   3.809   1.856  0.4189  0.1498  2.7962
   24MOL   H166 7112   3.925   3.716   1.747  3.0692  0.7609  1.4582
   24MOL   C167 7113   3.758   3.621   1.842  0.5939  0.5519 -0.3592
   24MOL   O168 7114   3.659   3.687   1.764 -0.2218 -0.4741 -0.3187
   24MOL   C169 7115   3.555   3.756   1.818  0.2059  0.3173 -0.8579
   24MOL   O170 7116   3.518   3.745   1.934 -0.1561  0.1768  0.5030
   24MOL   C171 7117   3.477   3.843   1.724 -0.0288  0.0381 -0.8322
   24MOL   C172 7118   3.356   3.910   1.784 -0.4140  0.8352  0.1606
   24MOL   C173 7119   3.786   3.476   1.803 -0.0500  0.2794  0.0013
   24MOL   H174 7120   3.728   3.601   1.945  0.8423 -2.1530 -0.7589
   24MOL   H175 7121   3.546   3.925   1.701 -0.1724 -0.2260 -2.2078
   24MOL   H176 7122   3.441   3.799   1.631  1.5904 -1.1436 -0.9146
   24MOL   H177 7123   3.343   4.000   1.723  0.8706  1.2298  0.4488
   24MOL   H178 7124   3.264   3.852   1.777 -0.2469  0.4017  1.4660
   24MOL   H179 7125   3.379   3.940   1.886 -1.5924  1.4674  0.2547
   24MOL   H180 7126   3.722   3.448   1.720 -0.1030 -0.4443  0.2815
   24MOL   H181 7127   3.890   3.469   1.772 -0.1050 -0.6351  0.0158
   24MOL   C182 7128   3.785   3.367   1.923 -0.1133 -1.1474 -0.2137
   24MOL   O183 7129   3.645   3.339   1.946  0.0705  0.6050  0.4168
   24MOL   C184 7130   3.595   3.311   2.070  0.8633  0.0118  0.1485
   24MOL   O185 7131   3.647   3.332   2.180 -0.5893 -0.0340  0.7628
   24MOL   C186 7132   3.456   3.258   2.068 -0.3180 -0.2431  0.0093
   24MOL   C187 7133   3.454   3.103   2.071  0.3542 -0.6407  0.4512
   24MOL   C188 7134   3.856   3.234   1.888  0.2318 -0.2757 -0.3316
   24MOL   H189 7135   3.823   3.404   2.018 -0.8862 -2.0075  0.4511
   24MOL   H190 7136   3.407   3.288   2.160  1.2157 -0.4111  0.8969
   24MOL   H191 7137   3.398   3.305   1.989 -2.0580  1.6870  2.3646
   24MOL   H192 7138   3.482   3.078   1.968  1.2553 -0.1631  0.5706
   24MOL   H193 7139   3.510   3.049   2.147 -1.3045 -1.2923  1.2204
   24MOL   H194 7140   3.350   3.073   2.086  0.1736 -0.2585 -0.0158
   24MOL   H195 7141   3.802   3.184   1.808  0.6560 -2.2286  0.5821
   24MOL   H196 7142   3.954   3.254   1.846  1.3894 -0.7603  2.0419
   24MOL   C197 7143   3.872   3.131   2.008 -0.7556  0.6381  0.2181
   24MOL   O198 7144   3.929   3.009   1.958  0.3131  0.2238  0.0022
   24MOL   C199 7145   3.851   2.911   1.906 -0.1707  0.8702  0.0753
   24MOL   O200 7146   3.736   2.922   1.874  0.3466  0.2893  0.2908
   24MOL   C201 7147   3.919   2.775   1.896  0.0696 -0.0805  0.5849
   24MOL   C202 7148   3.953   2.737   1.744  0.6488 -0.2014 -0.7452
   24MOL   C203 7149   3.955   3.181   2.137  1.3890 -0.1025  0.1922
   24MOL   H204 7150   3.774   3.107   2.050 -1.2969  0.8601 -0.9192
   24MOL   H205 7151   4.009   2.771   1.957  0.3660 -2.3142  0.0090
   24MOL   H206 7152   3.860   2.692   1.933 -1.3147  0.8647  0.5411
   24MOL   H207 7153   4.008   2.643   1.739  2.1669  0.4975  1.9373
   24MOL   H208 7154   3.864   2.728   1.681 -0.3009 -0.0414  0.5678
   24MOL   H209 7155   4.016   2.814   1.698 -2.2508  2.9934  0.4404
   24MOL   H210 7156   4.062   3.195   2.123  1.3506 -1.5788 -1.7364
   24MOL   H211 7157   3.926   3.285   2.155 -0.2010 -0.0950 -2.1679
   24MOL   C212 7158   3.925   3.107   2.267 -0.0116 -0.2723  0.2395
   24MOL   O213 7159   3.979   2.973   2.259  0.2473 -0.3369 -0.1289
   24MOL   C214 7160   3.897   2.871   2.284 -0.6976  0.1112 -0.1941
   24MOL   O215 7161   3.781   2.887   2.322  0.5339 -0.1052 -0.4936
   24MOL   C216 7162   3.959   2.732   2.282 -0.2299  0.0679 -0.2352
   24MOL   C217 7163   4.105   2.738   2.324  0.0381 -1.3062  0.1605
   24MOL   C218 7164   3.991   3.174   2.393  0.2741  0.2391  0.6147
   24MOL   H219 7165   3.817   3.112   2.278 -0.0631 -0.7445 -0.0225
   24MOL   H220 7166   3.896   2.669   2.344  0.6630 -2.1312 -1.4956
   24MOL   H221 7167   3.941   2.702   2.178 -0.4448  1.5392 -0.6309
   24MOL   H222 7168   4.108   2.753   2.432 -0.7592 -1.0658  0.1575
   24MOL   H223 7169   4.159   2.646   2.304 -0.3433 -1.6202  0.5660
   24MOL   H224 7170   4.160   2.816   2.272 -5.3360  2.3785 -0.4469
   24MOL   H225 7171   4.096   3.146   2.402 -0.0877 -0.9252  1.3635
   24MOL   H226 7172   3.977   3.282   2.382 -0.5089  0.0868  0.0881
   24MOL   C227 7173   3.919   3.140   2.516 -0.1356 -0.3756  0.6165
   24MOL   O228 7174   4.000   3.181   2.624 -0.1535  0.4068 -0.2016
   24MOL   C229 7175   4.097   3.091   2.671 -0.5305 -0.4554 -0.1458
   24MOL   O230 7176   4.113   2.972   2.644  0.4060  0.1250 -0.4219
   24MOL   C231 7177   4.192   3.165   2.768  0.0774 -0.2016  0.1531
   24MOL   C232 7178   4.333   3.096   2.780 -0.0349 -0.2122  0.3357
   24MOL   C233 7179   3.780   3.208   2.552 -0.1864 -0.2537  0.1052
   24MOL   H234 7180   3.910   3.032   2.527 -0.3820 -0.2065  2.2115
   24MOL   H235 7181   4.192   3.264   2.722 -1.3371  0.0392  0.6499
   24MOL   H236 7182   4.138   3.186   2.860 -0.6989 -2.6344  0.2827
   24MOL   H237 7183   4.384   3.109   2.684  0.9623  0.5484  0.9519
   24MOL   H238 7184   4.401   3.136   2.856  2.8375 -1.6980 -1.3506
   24MOL   H239 7185   4.319   2.988   2.774 -0.2561 -0.1792  0.2460
   24MOL   H240 7186   3.790   3.299   2.611  2.5872 -0.1266 -0.5190
   24MOL   H241 7187   3.740   3.240   2.456  0.7760 -1.6698 -0.7838
   24MOL   C242 7188   3.683   3.122   2.623  0.4258  0.5532  0.2561
   24MOL   O243 7189   3.736   3.084   2.750 -0.0232  0.2106  0.3801
   24MOL   C244 7190   3.765   2.956   2.773 -0.4950 -0.1047  0.1283
   24MOL   O245 7191   3.763   2.860   2.689 -0.7765  0.9006 -0.0061
   24MOL   C246 7192   3.795   2.922   2.919 -0.2870  0.4109 -0.0984
   24MOL   C247 7193   3.928   2.992   2.974  0.5032  0.2027 -0.5108
   24MOL   C248 7194   3.538   3.188   2.637 -0.0373 -0.0914 -0.1150
   24MOL   H249 7195   3.663   3.033   2.563 -0.1262  0.5145  0.4935
   24MOL   H250 7196   3.705   2.933   2.979  1.0836  0.6075  1.9904
   24MOL   H251 7197   3.814   2.815   2.916  4.3552  1.2089 -3.8372
   24MOL   H252 7198   4.004   2.993   2.896  1.5726  0.9322  0.5179
   24MOL   H253 7199   3.907   3.090   3.018 -0.1096  0.6703 -1.8112
   24MOL   H254 7200   3.972   2.929   3.051 -0.4092  0.1112 -0.0539
   24MOL   H255 7201   3.544   3.269   2.710 -0.3323 -0.1149 -0.0676
   24MOL   H256 7202   3.519   3.246   2.547  1.3249  0.6194  0.0433
   24MOL   C257 7203   3.411   3.095   2.661  0.0303 -0.8218  0.6619
   24MOL   O258 7204   3.408   2.996   2.557  0.3059 -0.1765 -0.8850
   24MOL   C259 7205   3.331   3.012   2.446 -0.2523 -0.0254  0.1052
   24MOL   O260 7206   3.268   3.111   2.416  0.3326  0.4627 -0.0446
   24MOL   C261 7207   3.325   2.884   2.365  0.4655  0.5811 -0.6149
   24MOL   C262 7208   3.195   2.855   2.292  0.1092  0.1155 -0.7192
   24MOL   C263 7209   3.428   3.033   2.804 -0.2879 -0.3898 -0.3954
   24MOL   H264 7210   3.320   3.154   2.650 -0.5245 -1.6704  0.7193
   24MOL   H265 7211   3.422   2.885   2.315  0.1866 -0.6170 -1.1925
   24MOL   H266 7212   3.344   2.804   2.436  0.0678  2.0530  1.1937
   24MOL   H267 7213   3.111   2.911   2.332 -0.9262 -2.0314  0.1947
   24MOL   H268 7214   3.217   2.883   2.189  0.2725 -1.9431 -1.2684
   24MOL   H269 7215   3.182   2.747   2.292  0.1206  0.1142 -0.6743
   24MOL   H270 7216   3.493   2.946   2.791 -0.2731 -0.6260  1.1354
   24MOL   H271 7217   3.474   3.103   2.873 -0.4551  0.1809 -0.8626
   24MOL   C272 7218   3.297   2.993   2.870 -0.3638  0.7970 -0.6235
   24MOL   O273 7219   3.213   3.109   2.897  0.2101  0.3670  0.3889
   24MOL   C274 7220   3.119   3.113   2.995 -0.4633  0.8829 -0.2475
   24MOL   O275 7221   3.087   3.024   3.073  0.2398  0.2419 -0.5600
   24MOL   C276 7222   3.045   3.248   2.996  0.0380  0.8016  0.7741
   24MOL   C277 7223   2.928   3.253   3.095  0.3386  0.9099  0.0098
   24MOL   C278 7224   3.220   2.887   2.799  0.0928  0.7678  0.1517
   24MOL   H279 7225   3.324   2.945   2.963 -2.5963 -1.5690 -1.1488
   24MOL   H280 7226   3.116   3.330   3.010 -0.7036  1.5029  0.4992
   24MOL   H281 7227   2.995   3.272   2.902 -1.9679  2.6808  2.2609
   24MOL   H282 7228   2.949   3.239   3.201 -0.9588 -1.6643 -0.0502
   24MOL   H283 7229   2.879   3.350   3.082 -0.1245  0.4493 -1.7420
   24MOL   H284 7230   2.845   3.184   3.081  1.3764 -0.4567  0.5072
   24MOL   H285 7231   3.126   2.888   2.854 -0.7314 -1.2135 -1.1967
   24MOL   H286 7232   3.195   2.910   2.695  0.1673 -2.8129 -0.7251
   24MOL   C287 7233   3.287   2.750   2.800  0.2310 -0.6696  0.0798
   24MOL   O288 7234   3.268   2.700   2.926 -0.1928 -0.0996 -0.5029
   24MOL   C289 7235   3.367   2.687   3.005 -1.0621 -0.3042  0.1031
   24MOL   O290 7236   3.481   2.735   2.993  0.3499  0.6657 -0.6075
   24MOL   C291 7237   3.333   2.594   3.114  0.3473 -0.2967 -0.2254
   24MOL   C292 7238   3.437   2.514   3.188 -0.1589 -0.1644  0.5341
   24MOL   C293 7239   3.235   2.654   2.696  0.5520  0.2375 -0.1797
   24MOL   H294 7240   3.389   2.759   2.762 -0.2945  2.6467 -0.6922
   24MOL   H295 7241   3.247   2.626   3.171 -0.4422  0.9177 -2.0620
   24MOL   H296 7242   3.283   2.514   3.059  0.2952 -0.2341 -0.2690
   24MOL   H297 7243   3.525   2.578   3.206  0.5334 -0.7756 -0.6226
   24MOL   H298 7244   3.390   2.483   3.281 -0.0567 -0.5971  0.4408
   24MOL   H299 7245   3.468   2.433   3.122 -0.7811 -0.7282  0.9366
   24MOL   H300 7246   3.285   2.557   2.702  0.8173  0.3087 -1.1677
   24MOL   H301 7247   3.126   2.649   2.700  0.3276  2.4070 -2.2922
   24MOL   H302 7248   3.262   2.690   2.597  2.0164 -0.2531  0.0250
   25MOL     C1 7249   0.113   0.860   6.081  0.2832  0.0235  0.5046
   25MOL     O2 7250   0.195   0.856   5.964 -0.0384  0.7179 -0.2049
   25MOL     C3 7251   0.145   0.843   5.842 -0.5465  0.8410 -0.1664
   25MOL     O4 7252   0.046   0.781   5.804  0.3556 -0.3954  0.0763
   25MOL     C5 7253   0.222   0.919   5.737 -0.3476  0.1403 -0.6966
   25MOL     C6 7254   0.362   0.855   5.702  0.2212  0.1151 -0.0330
   25MOL     C7 7255   0.191   0.940   6.188 -0.6589 -0.2532 -0.1833
   25MOL     H8 7256   0.085   0.757   6.104 -1.6678  0.8633  2.1414
   25MOL     H9 7257   0.156   0.922   5.651  0.1332  2.4498 -1.0160
   25MOL    H10 7258   0.235   1.024   5.764  0.3839  0.8955 -3.8575
   25MOL    H11 7259   0.435   0.915   5.649  0.1355 -3.1700 -4.0666
   25MOL    H12 7260   0.411   0.816   5.791 -0.0066 -0.0908  0.0024
   25MOL    H13 7261   0.339   0.771   5.637 -0.5328 -0.1431  0.5467
   25MOL    H14 7262   0.136   0.929   6.282  0.6137 -0.9923  0.4758
   25MOL    H15 7263   0.288   0.890   6.188 -0.5628 -0.0799  1.1187
   25MOL    H16 7264   0.018   0.909   6.058 -0.4235 -2.0363 -1.0657
   25MOL    C17 7265   0.209   1.088   6.148 -0.1670 -0.0198 -0.0747
   25MOL    O18 7266   0.081   1.148   6.113  0.0136 -0.1986 -0.2173
   25MOL    C19 7267   0.070   1.227   6.003  0.3958  0.1969  0.2070
   25MOL    O20 7268   0.155   1.250   5.909 -0.0159 -0.2067 -0.3746
   25MOL    C21 7269   7.879   1.309   6.010  0.7310  0.1503  0.9791
   25MOL    C22 7270   7.884   1.419   6.117 -1.1791 -0.0432 -0.0515
   25MOL    C23 7271   0.275   1.163   6.260 -0.2769  0.6013 -0.3083
   25MOL    H24 7272   0.268   1.103   6.058  1.8245  0.3107  1.2551
   25MOL    H25 7273   7.878   1.347   5.907  1.1100  0.0278  0.9284
   25MOL    H26 7274   7.798   1.238   6.020 -1.0308  2.4035  3.3128
   25MOL    H27 7275   7.940   1.505   6.081  1.3796 -0.3501  3.0697
   25MOL    H28 7276   7.782   1.441   6.149 -1.4734  0.2325 -1.1514
   25MOL    H29 7277   7.935   1.374   6.201 -1.2020  0.1498  0.0670
   25MOL    H30 7278   0.259   1.270   6.273  0.7207  0.4425  2.8327
   25MOL    H31 7279   0.239   1.126   6.357 -0.3716  0.6234 -0.3347
   25MOL    C32 7280   0.431   1.153   6.253 -0.5019  0.7370  0.8676
   25MOL    O33 7281   0.483   1.255   6.174  0.2876 -0.2077 -0.1399
   25MOL    C34 7282   0.548   1.240   6.061 -0.2729  0.0907  0.1163
   25MOL    O35 7283   0.566   1.134   5.999 -0.0054  0.0132  0.2101
   25MOL    C36 7284   0.600   1.377   6.016 -0.1077  0.5246 -0.5511
   25MOL    C37 7285   0.556   1.407   5.866  0.3767 -0.0632  0.1797
   25MOL    C38 7286   0.498   1.163   6.395  0.4543 -0.4140  0.7122
   25MOL    H39 7287   0.456   1.056   6.210 -1.2312  1.1009 -0.4083
   25MOL    H40 7288   0.565   1.452   6.087 -0.1804 -1.1100  1.1928
   25MOL    H41 7289   0.708   1.370   6.021 -0.3179 -1.6861  1.7433
   25MOL    H42 7290   0.577   1.511   5.844 -1.4222 -0.0965 -1.8736
   25MOL    H43 7291   0.617   1.351   5.794  1.1195  0.6418  0.2460
   25MOL    H44 7292   0.453   1.373   5.862  0.3107  0.1673 -0.0851
   25MOL    H45 7293   0.606   1.154   6.384  0.4741  1.5670 -1.2663
   25MOL    H46 7294   0.471   1.261   6.435 -2.4526  0.1341 -2.3317
   25MOL    C47 7295   0.439   1.070   6.505 -0.0343  0.5764  0.3019
   25MOL    O48 7296   0.421   0.930   6.456 -0.8311 -0.3161 -0.2058
   25MOL    C49 7297   0.321   0.858   6.513 -0.6136  0.2545  0.1872
   25MOL    O50 7298   0.251   0.894   6.602 -0.2481 -0.7103  0.0723
   25MOL    C51 7299   0.318   0.709   6.480  0.5600 -0.0740  0.3448
   25MOL    C52 7300   0.390   0.630   6.589 -0.8795  0.0478 -0.2711
   25MOL    C53 7301   0.542   1.068   6.617 -0.6224 -0.4606  0.3676
   25MOL    H54 7302   0.345   1.119   6.531 -0.8695  0.6449 -2.6949
   25MOL    H55 7303   0.217   0.669   6.474  1.4628 -2.6587  1.6442
   25MOL    H56 7304   0.359   0.691   6.381 -1.5270 -1.7109 -0.2499
   25MOL    H57 7305   0.336   0.638   6.684  0.5725 -1.0029  0.6586
   25MOL    H58 7306   0.400   0.524   6.566 -1.1603 -0.2146  0.7665
   25MOL    H59 7307   0.491   0.661   6.618 -0.3110 -1.9055 -0.1164
   25MOL    H60 7308   0.525   0.979   6.677 -0.7649 -0.8937 -0.3246
   25MOL    H61 7309   0.645   1.069   6.582 -0.6010 -1.5455  0.4030
   25MOL    C62 7310   0.548   1.204   6.703  0.2103  0.4335 -0.4251
   25MOL    O63 7311   0.430   1.215   6.773  0.1119 -0.0818  0.2605
   25MOL    C64 7312   0.324   1.285   6.722 -0.4568  0.3473  0.3050
   25MOL    O65 7313   0.332   1.362   6.625 -0.3078  0.1412 -0.1754
   25MOL    C66 7314   0.205   1.276   6.810  0.0370  0.0621  0.0036
   25MOL    C67 7315   0.167   1.128   6.831  0.5814 -0.1119 -0.4266
   25MOL    C68 7316   0.660   1.199   6.812 -0.2604 -0.5916 -0.5509
   25MOL    H69 7317   0.579   1.290   6.643  1.7287  1.2596  1.4793
   25MOL    H70 7318   0.218   1.326   6.907 -0.7588 -0.2957  0.2954
   25MOL    H71 7319   0.115   1.319   6.767 -0.2416 -1.5033 -1.0157
   25MOL    H72 7320   0.074   1.119   6.888  1.4246 -2.1223  0.6952
   25MOL    H73 7321   0.137   1.078   6.739  0.1969  0.2583 -0.5061
   25MOL    H74 7322   0.246   1.076   6.885  0.6087  1.4191  1.0662
   25MOL    H75 7323   0.661   1.107   6.871 -1.4297 -1.0521 -1.2247
   25MOL    H76 7324   0.756   1.193   6.761 -0.4025  1.4124 -1.0879
   25MOL    C77 7325   0.653   1.305   6.928 -0.0226  0.1172 -0.1817
   25MOL    O78 7326   0.691   1.233   7.047  0.4255 -0.5348  0.1030
   25MOL    C79 7327   0.593   1.171   7.118  0.0434  0.0479 -0.2068
   25MOL    O80 7328   0.472   1.183   7.105  0.5244  0.5386  0.2788
   25MOL    C81 7329   0.646   1.077   7.229  0.2182 -0.4214  0.7203
   25MOL    C82 7330   0.555   0.996   7.316 -1.2693 -0.1140 -0.4493
   25MOL    C83 7331   0.760   1.421   6.917 -0.2019 -0.1121  0.7900
   25MOL    H84 7332   0.558   1.353   6.953 -0.2345 -0.1547 -0.4498
   25MOL    H85 7333   0.718   1.011   7.180 -0.8780  0.0908 -1.6592
   25MOL    H86 7334   0.709   1.133   7.298 -0.1171  0.2564  0.4776
   25MOL    H87 7335   0.472   0.947   7.265 -0.4267 -1.1235 -0.8701
   25MOL    H88 7336   0.605   0.913   7.365  1.5987  1.2284 -1.0076
   25MOL    H89 7337   0.510   1.060   7.391 -0.2461 -0.6371  0.6289
   25MOL    H90 7338   0.764   1.485   7.005 -0.2751 -1.6605  1.9474
   25MOL    H91 7339   0.854   1.366   6.907 -0.0039 -0.1169  2.6272
   25MOL    C92 7340   0.735   1.503   6.788 -0.1660  0.3304  0.0514
   25MOL    O93 7341   0.629   1.593   6.809  0.0308  0.0283 -0.0074
   25MOL    C94 7342   0.544   1.627   6.703  0.2098 -0.2288  0.3158
   25MOL    O95 7343   0.556   1.594   6.586 -0.1579 -0.2351  0.0518
   25MOL    C96 7344   0.430   1.726   6.749  1.1141  0.4053 -0.1444
   25MOL    C97 7345   0.294   1.656   6.778  0.0475  0.1477 -0.3318
   25MOL    C98 7346   0.858   1.581   6.748 -0.5820 -0.2330 -0.2828
   25MOL    H99 7347   0.723   1.433   6.705  0.1962 -0.2757  0.5012
   25MOL   H100 7348   0.453   1.783   6.839  1.6313  2.1055 -1.3266
   25MOL   H101 7349   0.410   1.805   6.676 -1.4171  0.9831  1.1053
   25MOL   H102 7350   0.264   1.611   6.683  0.8996  0.0025 -0.5383
   25MOL   H103 7351   0.289   1.576   6.852  1.7867 -1.3929 -1.8006
   25MOL   H104 7352   0.214   1.722   6.810 -0.2472  0.7671 -2.2918
   25MOL   H105 7353   0.838   1.669   6.688 -1.3745  0.2071  0.6107
   25MOL   H106 7354   0.908   1.617   6.838  1.4551 -1.6300 -0.8250
   25MOL   C107 7355   0.961   1.500   6.670 -0.6164  0.6031  0.1025
   25MOL   O108 7356   0.909   1.456   6.543 -0.1178  0.7009  0.1816
   25MOL   C109 7357   0.895   1.327   6.533 -0.3398  0.2550 -0.4370
   25MOL   O110 7358   0.922   1.236   6.613 -0.3469  0.1238  0.6803
   25MOL   C111 7359   0.841   1.295   6.396 -0.4651 -0.2378 -0.1831
   25MOL   C112 7360   0.889   1.160   6.342 -0.7129 -0.0472  0.4724
   25MOL   C113 7361   1.094   1.577   6.656  0.2352 -0.2657 -0.5496
   25MOL   H114 7362   0.990   1.415   6.732 -0.4242 -1.0760 -2.1803
   25MOL   H115 7363   0.732   1.303   6.395 -0.4216  0.4670  0.3302
   25MOL   H116 7364   0.862   1.364   6.314 -0.2692  0.8098  0.7379
   25MOL   H117 7365   0.853   1.085   6.413  0.1118  0.8105  1.8160
   25MOL   H118 7366   0.847   1.152   6.242 -0.6578  0.0663  0.4413
   25MOL   H119 7367   0.996   1.142   6.337 -0.4537  1.7389 -0.5066
   25MOL   H120 7368   1.158   1.525   6.584  1.0211 -0.6632  0.4184
   25MOL   H121 7369   1.069   1.669   6.604  0.0895  0.6940  1.1689
   25MOL   C122 7370   1.178   1.591   6.785  0.0448  0.8117  0.0445
   25MOL   O123 7371   1.225   1.461   6.821 -0.1312 -0.3000 -0.1713
   25MOL   C124 7372   1.195   1.405   6.937  0.4216 -0.3824  0.3894
   25MOL   O125 7373   1.167   1.458   7.043 -0.2149  0.0687 -0.3689
   25MOL   C126 7374   1.230   1.256   6.934  0.7297  0.4851 -0.4661
   25MOL   C127 7375   1.115   1.153   6.956  0.6356 -0.3448  0.0331
   25MOL   C128 7376   1.307   1.677   6.760 -0.1592 -0.7067 -0.0829
   25MOL   H129 7377   1.121   1.645   6.861  0.7581 -0.5101  1.5536
   25MOL   H130 7378   1.290   1.236   6.845  0.7200 -1.2110 -0.1116
   25MOL   H131 7379   1.290   1.236   7.022 -0.8446 -0.2223  0.4728
   25MOL   H132 7380   1.066   1.159   7.053 -2.0314  0.8618 -1.3258
   25MOL   H133 7381   1.038   1.170   6.880 -0.1088  1.5875  1.1854
   25MOL   H134 7382   1.160   1.055   6.946  2.8647  0.8385 -1.8631
   25MOL   H135 7383   1.355   1.674   6.858  0.8043 -0.5992 -0.5539
   25MOL   H136 7384   1.360   1.622   6.682  0.6116  0.5410 -0.4396
   25MOL   C137 7385   1.287   1.823   6.713 -0.3304 -0.5739  0.0061
   25MOL   O138 7386   1.225   1.903   6.814 -0.7261 -0.4445 -0.1651
   25MOL   C139 7387   1.092   1.917   6.824 -0.1536  0.1749 -0.0103
   25MOL   O140 7388   1.014   1.855   6.749  0.0757  0.5545 -0.4350
   25MOL   C141 7389   1.047   2.018   6.928  0.0991 -0.0206 -0.8414
   25MOL   C142 7390   0.902   2.049   6.934 -0.0244 -0.0012  0.4318
   25MOL   C143 7391   1.427   1.884   6.694 -0.0807  0.6521  0.0256
   25MOL   H144 7392   1.243   1.829   6.614  3.3147 -3.5408 -1.9173
   25MOL   H145 7393   1.056   1.968   7.024  0.1831 -1.0498 -1.3805
   25MOL   H146 7394   1.108   2.109   6.929 -1.6550  1.1616  1.0272
   25MOL   H147 7395   0.836   1.978   6.884  2.1554 -1.9653  0.2526
   25MOL   H148 7396   0.870   2.059   7.037  0.2561  2.9117  0.2763
   25MOL   H149 7397   0.881   2.145   6.887 -1.1211  0.2266  1.3953
   25MOL   H150 7398   1.398   1.987   6.674 -1.1609  0.3193 -0.1263
   25MOL   H151 7399   1.498   1.887   6.777  1.3259 -0.6931 -1.0947
   25MOL   C152 7400   1.506   1.834   6.570  0.0038  0.2724 -0.2213
   25MOL   O153 7401   1.444   1.888   6.452  0.0728  0.3305 -0.1351
   25MOL   C154 7402   1.349   1.817   6.384  0.3920 -0.2429  0.5862
   25MOL   O155 7403   1.302   1.711   6.418 -0.1035 -0.0425 -0.1324
   25MOL   C156 7404   1.321   1.878   6.239 -0.2880 -0.5305  0.3623
   25MOL   C157 7405   1.229   1.781   6.158  0.5790  0.1818  0.1718
   25MOL   C158 7406   1.654   1.882   6.560 -0.5574 -0.0964  0.1567
   25MOL   H159 7407   1.509   1.725   6.562  0.7102 -0.0491  3.4885
   25MOL   H160 7408   1.272   1.975   6.249  0.1864  0.0533 -2.5408
   25MOL   H161 7409   1.416   1.900   6.189 -1.2273  0.4583 -1.0482
   25MOL   H162 7410   1.131   1.766   6.205 -0.4483  0.3631 -1.8576
   25MOL   H163 7411   1.201   1.817   6.059 -0.2807 -0.2218  0.2639
   25MOL   H164 7412   1.268   1.680   6.148 -1.3709 -0.5198 -0.4816
   25MOL   H165 7413   1.678   1.872   6.454 -2.1674  0.6403 -0.2852
   25MOL   H166 7414   1.655   1.991   6.571 -1.8779  0.3459 -3.3054
   25MOL   C167 7415   1.767   1.821   6.644 -0.5208 -0.3970  0.3155
   25MOL   O168 7416   1.733   1.838   6.783  0.3199  0.1297  0.0847
   25MOL   C169 7417   1.801   1.906   6.871 -0.3112 -0.6845 -0.5243
   25MOL   O170 7418   1.891   1.982   6.847  0.0334 -0.5293 -0.3231
   25MOL   C171 7419   1.755   1.883   7.015  0.0032 -0.5869 -0.6724
   25MOL   C172 7420   1.627   1.956   7.042  0.3511 -0.0708  0.9234
   25MOL   C173 7421   1.782   1.674   6.600  0.3520 -0.6712  0.1178
   25MOL   H174 7422   1.865   1.863   6.620 -0.7546 -1.3220 -2.4709
   25MOL   H175 7423   1.741   1.777   7.037 -3.2000 -0.3989 -1.5694
   25MOL   H176 7424   1.822   1.935   7.084 -2.9322  0.2615  1.6811
   25MOL   H177 7425   1.618   2.042   6.976 -1.7818 -1.3295 -0.4499
   25MOL   H178 7426   1.544   1.889   7.021  0.6749 -0.0690 -0.4077
   25MOL   H179 7427   1.617   1.990   7.146  1.1621  1.8726  0.3965
   25MOL   H180 7428   1.838   1.630   6.682 -2.6011 -2.7547  1.0808
   25MOL   H181 7429   1.683   1.628   6.601 -1.1830  2.3764 -2.0757
   25MOL   C182 7430   1.860   1.650   6.473  0.3257 -0.3792 -0.1239
   25MOL   O183 7431   1.996   1.682   6.486  0.0122  0.3135 -0.1063
   25MOL   C184 7432   2.050   1.794   6.424  0.9448  0.1854 -0.2220
   25MOL   O185 7433   1.987   1.887   6.371  0.0276  0.6542 -0.3617
   25MOL   C186 7434   2.203   1.794   6.423 -0.1763  0.2162 -0.0221
   25MOL   C187 7435   2.256   1.791   6.565 -0.6578 -0.1394  0.2495
   25MOL   C188 7436   1.865   1.504   6.425  0.1197  0.5116  0.5352
   25MOL   H189 7437   1.819   1.700   6.386  1.7902 -1.1136 -1.2602
   25MOL   H190 7438   2.217   1.696   6.377  1.0438 -0.6103  2.0443
   25MOL   H191 7439   2.250   1.866   6.356  0.5403 -0.1637  0.0569
   25MOL   H192 7440   2.222   1.873   6.629  1.8686  1.4273 -0.3728
   25MOL   H193 7441   2.234   1.699   6.619  2.3313 -0.8256  0.3493
   25MOL   H194 7442   2.364   1.805   6.572 -0.6175 -0.1611 -0.3319
   25MOL   H195 7443   1.958   1.477   6.375  0.8949 -1.6560  3.0496
   25MOL   H196 7444   1.867   1.444   6.516  3.8219  2.2262  1.6834
   25MOL   C197 7445   1.745   1.465   6.335 -0.0941 -0.0713 -0.3593
   25MOL   O198 7446   1.743   1.520   6.206 -0.2412 -0.6284 -0.1979
   25MOL   C199 7447   1.679   1.638   6.186 -0.4071 -0.0167 -0.2474
   25MOL   O200 7448   1.606   1.693   6.268  0.7472 -0.0511 -0.1573
   25MOL   C201 7449   1.694   1.681   6.040  0.1731 -0.8284 -0.2233
   25MOL   C202 7450   1.715   1.833   6.021 -0.5417  0.1689  0.1676
   25MOL   C203 7451   1.734   1.311   6.318 -0.4568  0.0862  0.1609
   25MOL   H204 7452   1.651   1.500   6.377 -0.2932 -0.5535 -0.4036
   25MOL   H205 7453   1.775   1.620   6.000  0.4269 -1.4472  1.2058
   25MOL   H206 7454   1.601   1.648   5.995 -0.3617  0.2310  0.1024
   25MOL   H207 7455   1.822   1.853   6.034 -0.2015 -1.1124 -0.6257
   25MOL   H208 7456   1.676   1.853   5.922  0.1455 -1.9017 -0.5549
   25MOL   H209 7457   1.656   1.899   6.085 -0.9674  0.6434 -0.7175
   25MOL   H210 7458   1.720   1.293   6.211  1.1646  0.6045 -0.1530
   25MOL   H211 7459   1.829   1.264   6.343  0.2249  1.5348  0.3251
   25MOL   C212 7460   1.627   1.243   6.406 -0.0131 -0.8121  0.5614
   25MOL   O213 7461   1.499   1.268   6.349 -0.3673 -0.6065 -0.3931
   25MOL   C214 7462   1.417   1.368   6.393 -1.0545  0.0274 -0.1282
   25MOL   O215 7463   1.437   1.433   6.496  0.1111 -0.2973 -0.1858
   25MOL   C216 7464   1.288   1.382   6.314 -0.3261 -0.3885  0.2245
   25MOL   C217 7465   1.322   1.379   6.167  0.2901 -0.3602 -0.3503
   25MOL   C218 7466   1.647   1.087   6.419 -0.5373  0.9564 -0.3470
   25MOL   H219 7467   1.633   1.293   6.502  0.2528  0.6477 -0.2084
   25MOL   H220 7468   1.223   1.299   6.341 -1.3895  0.6396  0.8440
   25MOL   H221 7469   1.240   1.478   6.329 -0.7345 -0.7196  1.0445
   25MOL   H222 7470   1.408   1.442   6.144 -0.2942 -0.0392 -1.7432
   25MOL   H223 7471   1.339   1.280   6.126  0.8289  0.8448 -3.1922
   25MOL   H224 7472   1.231   1.417   6.119  0.3316 -0.3392 -0.4126
   25MOL   H225 7473   1.604   1.029   6.338 -1.1491 -1.0432  1.3448
   25MOL   H226 7474   1.752   1.060   6.430 -1.6315 -2.9200  1.4189
   25MOL   C227 7475   1.589   1.044   6.559  0.9033 -0.1389 -0.3491
   25MOL   O228 7476   1.463   0.993   6.517 -0.2212 -0.4560  0.0438
   25MOL   C229 7477   1.345   1.045   6.554  0.1839  0.4515  0.3342
   25MOL   O230 7478   1.321   1.127   6.647 -0.3869  0.5032 -0.2739
   25MOL   C231 7479   1.229   0.969   6.486 -0.0103 -0.2051  0.4272
   25MOL   C232 7480   1.216   0.819   6.494 -0.0092  0.4127 -0.4774
   25MOL   C233 7481   1.671   0.941   6.636  0.5971 -0.5419  1.2233
   25MOL   H234 7482   1.584   1.129   6.627 -3.0289  0.3668 -1.1457
   25MOL   H235 7483   1.141   1.016   6.528 -3.0060 -3.1000 -2.3487
   25MOL   H236 7484   1.233   1.012   6.386  1.6168  0.9378  0.9631
   25MOL   H237 7485   1.249   0.787   6.593  0.8943 -0.6755 -1.1132
   25MOL   H238 7486   1.118   0.771   6.486  0.9015 -1.3427 -1.3468
   25MOL   H239 7487   1.272   0.764   6.418  0.9084  1.6985 -0.7469
   25MOL   H240 7488   1.677   0.842   6.591 -1.5610 -0.0671 -0.1659
   25MOL   H241 7489   1.777   0.964   6.648  0.2472  1.7762  0.2312
   25MOL   C242 7490   1.616   0.929   6.781 -0.4306  0.6129  0.6552
   25MOL   O243 7491   1.561   0.800   6.807  0.0582 -0.2745 -0.3536
   25MOL   C244 7492   1.432   0.791   6.842  0.3317  0.1990  0.2976
   25MOL   O245 7493   1.353   0.881   6.878 -0.0449  0.1880  0.3472
   25MOL   C246 7494   1.376   0.650   6.831  0.5696  0.4776  0.1648
   25MOL   C247 7495   1.416   0.595   6.697 -0.6940  0.5124 -0.0190
   25MOL   C248 7496   1.729   0.945   6.886  0.3336 -0.0929  0.5873
   25MOL   H249 7497   1.537   1.004   6.787 -1.1629  0.0419 -1.3984
   25MOL   H250 7498   1.399   0.583   6.913  0.0387 -1.5967 -1.3266
   25MOL   H251 7499   1.268   0.655   6.822  0.5835 -0.4279 -0.6251
   25MOL   H252 7500   1.405   0.662   6.612  0.8837  1.9820  0.9076
   25MOL   H253 7501   1.521   0.565   6.696 -0.7056  0.4719 -0.1401
   25MOL   H254 7502   1.360   0.502   6.686 -1.2410  0.6041  1.9129
   25MOL   H255 7503   1.700   0.922   6.988 -2.5194  1.7435  0.2280
   25MOL   H256 7504   1.800   0.864   6.868  0.1250 -0.4815  1.5041
   25MOL   C257 7505   1.795   1.082   6.879 -0.0548  0.6954 -0.6860
   25MOL   O258 7506   1.701   1.187   6.895 -0.0407  0.0759  0.3289
   25MOL   C259 7507   1.700   1.289   6.800  0.8069  0.5855  0.3599
   25MOL   O260 7508   1.769   1.294   6.701 -0.3720 -0.5059 -0.3770
   25MOL   C261 7509   1.586   1.389   6.819 -0.3356 -0.2294  0.1219
   25MOL   C262 7510   1.624   1.497   6.923 -0.1873 -0.2990 -0.5260
   25MOL   C263 7511   1.897   1.100   6.999  0.5364  0.2499  0.6543
   25MOL   H264 7512   1.852   1.088   6.787 -3.3753 -1.7612 -3.0299
   25MOL   H265 7513   1.570   1.431   6.719  1.3616 -0.7698 -0.3852
   25MOL   H266 7514   1.492   1.340   6.845 -0.4530  0.1981  0.5164
   25MOL   H267 7515   1.688   1.575   6.882  0.7091 -2.2119 -2.8474
   25MOL   H268 7516   1.538   1.557   6.956 -0.0491  0.3244 -1.2968
   25MOL   H269 7517   1.664   1.447   7.011  2.1359  2.7958  0.2460
   25MOL   H270 7518   1.918   1.205   7.016  0.2669  0.5461 -0.7801
   25MOL   H271 7519   1.854   1.065   7.093  2.0314 -0.4992  1.0703
   25MOL   C272 7520   2.015   1.002   6.977 -0.6702 -0.2779  0.4133
   25MOL   O273 7521   2.083   1.055   6.865  0.1484  0.5443 -0.2221
   25MOL   C274 7522   2.100   0.987   6.749 -0.1817 -0.1672 -0.4703
   25MOL   O275 7523   2.060   0.868   6.737 -0.9962  0.1314  0.0127
   25MOL   C276 7524   2.171   1.058   6.639 -0.6365  0.6498  0.0604
   25MOL   C277 7525   2.077   1.154   6.566  0.3028 -0.5242  0.1365
   25MOL   C278 7526   2.117   1.005   7.090  0.5723 -0.0892 -0.7530
   25MOL   H279 7527   1.984   0.898   6.967  0.3018 -0.6112  0.8030
   25MOL   H280 7528   2.255   1.100   6.695 -1.1396  0.9753  0.5739
   25MOL   H281 7529   2.213   0.980   6.575  1.8135  0.7877  1.4112
   25MOL   H282 7530   2.031   1.234   6.625  0.2399 -0.4102 -0.0692
   25MOL   H283 7531   2.119   1.198   6.476 -1.2460  0.7705  0.0227
   25MOL   H284 7532   1.990   1.099   6.530  0.4385 -1.4242  1.1372
   25MOL   H285 7533   2.174   1.096   7.108 -0.0533  0.3847 -1.1494
   25MOL   H286 7534   2.056   0.983   7.177 -1.2836 -0.3269 -2.0830
   25MOL   C287 7535   2.211   0.888   7.078  0.5435  0.0382 -0.8446
   25MOL   O288 7536   2.301   0.897   6.966 -0.2696  0.5633 -0.3686
   25MOL   C289 7537   2.352   0.789   6.904 -0.2435  0.3949  0.8725
   25MOL   O290 7538   2.336   0.669   6.927 -0.5117 -0.2146  0.1199
   25MOL   C291 7539   2.446   0.827   6.790  0.0851 -0.1446  0.5348
   25MOL   C292 7540   2.406   0.756   6.664 -0.3097  0.0010 -0.4965
   25MOL   C293 7541   2.296   0.867   7.204  0.1254  0.3991 -0.5510
   25MOL   H294 7542   2.152   0.797   7.065 -0.8209  1.0393 -1.8150
   25MOL   H295 7543   2.462   0.931   6.760 -0.3966 -0.5977 -1.3212
   25MOL   H296 7544   2.544   0.800   6.829  0.8676  0.7379 -0.8008
   25MOL   H297 7545   2.475   0.782   6.584 -1.0522  3.1082 -0.1977
   25MOL   H298 7546   2.410   0.648   6.676 -0.5962  0.0354 -0.1054
   25MOL   H299 7547   2.305   0.778   6.630 -1.2811 -0.5311  1.9294
   25MOL   H300 7548   2.334   0.962   7.242  1.9529 -0.5089 -0.0905
   25MOL   H301 7549   2.230   0.825   7.280  0.6443 -0.2279 -0.4469
   25MOL   H302 7550   2.379   0.799   7.190  1.2947  1.7452 -0.2738
   26MOL     C1 7551   5.739   4.146   3.202 -0.3997 -0.3514 -0.7273
   26MOL     O2 7552   5.733   4.271   3.143 -0.2633  0.0642  0.3447
   26MOL     C3 7553   5.620   4.330   3.114  0.1698 -0.2674 -0.4609
   26MOL     O4 7554   5.508   4.292   3.141 -0.7984  0.6034 -0.2661
   26MOL     C5 7555   5.645   4.451   3.028 -0.4195 -0.6271  0.3552
   26MOL     C6 7556   5.703   4.563   3.117 -0.2732 -0.2458 -0.3918
   26MOL     C7 7557   5.877   4.130   3.271 -0.2660  0.3321  0.2818
   26MOL     H8 7558   5.708   4.074   3.126  0.1598 -1.1593 -0.2000
   26MOL     H9 7559   5.711   4.414   2.949  2.1608 -0.3143  2.3039
   26MOL    H10 7560   5.554   4.491   2.984  0.5516 -1.0372 -2.0998
   26MOL    H11 7561   5.641   4.581   3.204 -0.4326  2.5150 -1.0136
   26MOL    H12 7562   5.808   4.557   3.148 -0.0138 -2.2922 -1.5873
   26MOL    H13 7563   5.712   4.657   3.062 -0.4562  0.0280  0.0523
   26MOL    H14 7564   5.939   4.157   3.185 -1.4707 -0.9061 -1.0130
   26MOL    H15 7565   5.887   4.205   3.349 -1.1452  1.5245 -0.7195
   26MOL    H16 7566   5.653   4.142   3.268  0.0195 -1.3059 -0.2177
   26MOL    C17 7567   5.916   3.983   3.317 -0.1133  0.0840  0.0825
   26MOL    O18 7568   5.972   3.903   3.210  0.2190  0.1044 -0.1833
   26MOL    C19 7569   5.899   3.823   3.143 -0.2191  0.4960 -0.2318
   26MOL    O20 7570   5.778   3.809   3.132 -0.4959  0.2197 -0.0964
   26MOL    C21 7571   5.989   3.730   3.056 -0.6134 -0.1033 -0.7944
   26MOL    C22 7572   6.077   3.635   3.141 -0.5185  0.0538 -0.3303
   26MOL    C23 7573   6.020   3.979   3.429  0.6190 -0.8515  0.0962
   26MOL    H24 7574   5.829   3.940   3.366 -0.7801  1.9244  0.5710
   26MOL    H25 7575   5.924   3.656   3.011 -1.4926 -1.1332  2.0700
   26MOL    H26 7576   6.037   3.778   2.970  2.7233 -0.9381  0.5385
   26MOL    H27 7577   6.171   3.684   3.166  0.7708 -1.8220 -1.4302
   26MOL    H28 7578   6.016   3.607   3.228  0.1438 -1.1472 -0.2371
   26MOL    H29 7579   6.095   3.541   3.089 -0.1606 -1.0218  1.6929
   26MOL    H30 7580   6.109   4.024   3.385  0.1701 -0.8315 -0.8007
   26MOL    H31 7581   5.983   4.045   3.507  0.0106 -2.3694  1.0946
   26MOL    C32 7582   6.044   3.837   3.480  0.3744 -0.0201 -0.3121
   26MOL    O33 7583   6.171   3.845   3.547  0.1506 -0.1223 -0.3453
   26MOL    C34 7584   6.294   3.841   3.492 -0.1339  0.5078  0.5871
   26MOL    O35 7585   6.311   3.826   3.375 -0.8895  0.6387 -0.2365
   26MOL    C36 7586   6.400   3.856   3.599 -0.2751  0.3601  0.2728
   26MOL    C37 7587   6.523   3.761   3.578 -0.4593  0.1937 -0.2811
   26MOL    C38 7588   5.936   3.774   3.571 -0.0466 -0.8204  1.3706
   26MOL    H39 7589   6.054   3.771   3.394  1.3104 -0.7642  0.3591
   26MOL    H40 7590   6.436   3.957   3.584 -0.1999  0.1529 -0.9631
   26MOL    H41 7591   6.355   3.850   3.698 -0.3446 -0.3037  0.2023
   26MOL    H42 7592   6.496   3.669   3.630  1.8040 -0.9104 -0.9654
   26MOL    H43 7593   6.532   3.741   3.471  0.6533  0.6377 -0.2805
   26MOL    H44 7594   6.616   3.806   3.614 -0.6797  0.9275 -0.6153
   26MOL    H45 7595   5.964   3.791   3.675  1.4827  5.3421  0.1655
   26MOL    H46 7596   5.842   3.825   3.547  1.4592  1.2076 -0.3801
   26MOL    C47 7597   5.920   3.621   3.555  0.0729 -0.3522 -0.4559
   26MOL    O48 7598   6.036   3.563   3.612  0.6637 -0.0065 -0.2114
   26MOL    C49 7599   6.113   3.483   3.536 -0.1836  0.1687  0.2889
   26MOL    O50 7600   6.091   3.439   3.428 -0.3290 -0.1752 -0.4705
   26MOL    C51 7601   6.241   3.440   3.613  0.4845 -0.6427  0.1509
   26MOL    C52 7602   6.356   3.374   3.534  1.0352  0.3356 -0.4823
   26MOL    C53 7603   5.810   3.542   3.644  0.1799 -0.4507 -0.1859
   26MOL    H54 7604   5.916   3.595   3.449  1.6773  1.4865 -0.9912
   26MOL    H55 7605   6.289   3.532   3.646 -1.4090  0.4164  0.0082
   26MOL    H56 7606   6.211   3.389   3.705 -0.3099 -0.1170  0.1896
   26MOL    H57 7607   6.334   3.271   3.506 -2.4738  0.9484 -0.2250
   26MOL    H58 7608   6.380   3.437   3.448  1.7237  0.2932 -0.3245
   26MOL    H59 7609   6.448   3.364   3.591  2.7245 -0.6180 -3.2875
   26MOL    H60 7610   5.818   3.437   3.617  1.9757 -0.4393  0.2375
   26MOL    H61 7611   5.830   3.550   3.751  0.8188 -0.7176 -0.2771
   26MOL    C62 7612   5.658   3.581   3.625 -0.0481 -0.1191 -0.3558
   26MOL    O63 7613   5.626   3.692   3.706 -0.2037  0.2517 -0.2701
   26MOL    C64 7614   5.553   3.673   3.820 -0.4407  0.0024  0.1069
   26MOL    O65 7615   5.512   3.566   3.855 -0.2764 -0.4905  0.0262
   26MOL    C66 7616   5.549   3.800   3.910  0.5117  0.1037  0.5825
   26MOL    C67 7617   5.526   3.921   3.826  0.2284  0.6893 -0.5596
   26MOL    C68 7618   5.617   3.619   3.486  0.9793  0.0989  0.0229
   26MOL    H69 7619   5.595   3.495   3.648 -0.3274 -0.0927 -1.0173
   26MOL    H70 7620   5.483   3.779   3.994 -0.0071 -1.2084 -0.1340
   26MOL    H71 7621   5.647   3.802   3.957  0.3294  0.5203  0.9374
   26MOL    H72 7622   5.500   3.999   3.898 -1.8680 -0.1500 -0.3530
   26MOL    H73 7623   5.608   3.949   3.760 -0.1338 -0.7882 -1.6517
   26MOL    H74 7624   5.437   3.909   3.764 -1.9801 -0.2339  2.6210
   26MOL    H75 7625   5.690   3.689   3.444 -0.2269  0.3185 -1.7815
   26MOL    H76 7626   5.623   3.532   3.420  1.3328  0.6349 -0.6634
   26MOL    C77 7627   5.478   3.679   3.466 -0.8756 -0.2060 -0.2418
   26MOL    O78 7628   5.468   3.758   3.346 -0.1297  0.7057 -0.6912
   26MOL    C79 7629   5.483   3.894   3.352  0.0145 -0.2177 -0.6676
   26MOL    O80 7630   5.539   3.948   3.446 -0.1161  0.0711  0.2539
   26MOL    C81 7631   5.414   3.963   3.239 -0.3289 -0.2714 -0.1209
   26MOL    C82 7632   5.344   3.877   3.137 -0.2295  0.3524  0.4001
   26MOL    C83 7633   5.364   3.569   3.476 -0.0147 -0.2784  1.2035
   26MOL    H84 7634   5.459   3.730   3.561 -0.8537  0.0600 -0.3823
   26MOL    H85 7635   5.347   4.043   3.270 -1.8624 -1.4537 -0.3490
   26MOL    H86 7636   5.492   4.019   3.187  0.1955 -0.3153  0.6203
   26MOL    H87 7637   5.368   3.923   3.041 -0.9519  2.6293  1.2825
   26MOL    H88 7638   5.385   3.777   3.123  2.2615  1.2474  0.9770
   26MOL    H89 7639   5.236   3.876   3.149 -0.2542 -1.4144  0.2351
   26MOL    H90 7640   5.309   3.551   3.384  0.7192  1.9424  0.2965
   26MOL    H91 7641   5.417   3.475   3.491 -0.4179 -0.8685 -0.9268
   26MOL    C92 7642   5.261   3.599   3.595 -0.5164 -0.8404  0.4256
   26MOL    O93 7643   5.157   3.685   3.552 -0.0960 -0.6524  0.0955
   26MOL    C94 7644   5.142   3.800   3.615  0.1774 -0.1819  0.0048
   26MOL    O95 7645   5.191   3.831   3.728  0.1460  0.3860  0.6152
   26MOL    C96 7646   5.050   3.897   3.540 -0.3051 -0.6150  0.0008
   26MOL    C97 7647   4.910   3.843   3.527 -1.0026 -0.8361 -0.2498
   26MOL    C98 7648   5.213   3.461   3.633  0.1875  0.5770  0.0502
   26MOL    H99 7649   5.314   3.630   3.685 -2.2532  0.2978  1.1042
   26MOL   H100 7650   5.037   3.995   3.585 -0.6478 -0.0907 -1.2075
   26MOL   H101 7651   5.095   3.921   3.443 -0.4307  1.8354  0.5178
   26MOL   H102 7652   4.855   3.907   3.458  0.1326  0.8232  0.3404
   26MOL   H103 7653   4.904   3.740   3.493 -0.2186 -1.1715  0.5971
   26MOL   H104 7654   4.863   3.842   3.626  1.6944 -0.9764  1.0957
   26MOL   H105 7655   5.152   3.421   3.552  0.6419  0.0801 -0.0465
   26MOL   H106 7656   5.297   3.395   3.655  0.2619  0.8438  0.5637
   26MOL   C107 7657   5.118   3.469   3.757 -0.2711 -0.5892  0.1584
   26MOL   O108 7658   4.989   3.518   3.714 -0.1149  0.1262 -0.2895
   26MOL   C109 7659   4.902   3.562   3.803  0.0274 -0.0681  0.9121
   26MOL   O110 7660   4.926   3.598   3.915  0.0315 -0.6154 -0.5633
   26MOL   C111 7661   4.774   3.591   3.731  0.8627 -0.1408 -0.3880
   26MOL   C112 7662   4.657   3.632   3.821 -0.0218  0.2500 -0.3733
   26MOL   C113 7663   5.102   3.329   3.819  0.1903  0.1344  0.2304
   26MOL   H114 7664   5.159   3.530   3.837 -0.1662 -0.0361 -0.3148
   26MOL   H115 7665   4.793   3.650   3.641  2.1208 -0.5413 -0.3933
   26MOL   H116 7666   4.749   3.501   3.675  1.8499  0.0827 -1.1960
   26MOL   H117 7667   4.576   3.656   3.752 -1.6954 -0.2747  1.3685
   26MOL   H118 7668   4.628   3.556   3.893 -2.3807  0.8818 -0.6024
   26MOL   H119 7669   4.682   3.717   3.884 -1.3589  1.4701 -1.4325
   26MOL   H120 7670   5.201   3.289   3.837  0.3796 -0.3579 -1.7146
   26MOL   H121 7671   5.054   3.358   3.912 -1.2155 -0.2396 -0.3476
   26MOL   C122 7672   5.016   3.232   3.738  0.2626  0.3544 -0.1027
   26MOL   O123 7673   5.034   3.226   3.600  0.7838  0.3899 -0.5249
   26MOL   C124 7674   4.925   3.201   3.524  0.7958  0.2483 -0.2138
   26MOL   O125 7675   4.815   3.213   3.568 -0.4288 -0.0414  0.7719
   26MOL   C126 7676   4.953   3.153   3.387 -0.2058  0.3091  0.4646
   26MOL   C127 7677   4.841   3.101   3.299 -0.0262  0.3185  0.2559
   26MOL   C128 7678   5.030   3.091   3.796 -0.7122 -0.0730 -0.7584
   26MOL   H129 7679   4.915   3.263   3.766  0.3830 -0.8819  1.7969
   26MOL   H130 7680   5.026   3.210   3.329 -0.6656  0.4635  0.0370
   26MOL   H131 7681   5.009   3.063   3.413 -1.0312  0.0913  1.5046
   26MOL   H132 7682   4.803   3.194   3.255 -0.6231 -0.8385 -1.7008
   26MOL   H133 7683   4.881   3.027   3.230  0.6170 -0.5905  1.5997
   26MOL   H134 7684   4.751   3.061   3.347 -1.8437 -0.0343 -3.3020
   26MOL   H135 7685   5.026   3.109   3.904  4.0185 -1.9717 -0.1270
   26MOL   H136 7686   4.944   3.029   3.774 -1.0845 -0.3252  1.3283
   26MOL   C137 7687   5.169   3.025   3.806  0.0396  0.4996 -0.2868
   26MOL   O138 7688   5.148   2.911   3.885 -0.5332 -0.0279 -0.4564
   26MOL   C139 7689   5.243   2.856   3.964 -0.1605  0.6215  0.6903
   26MOL   O140 7690   5.363   2.898   3.969  0.5452  0.0675  0.0775
   26MOL   C141 7691   5.198   2.734   4.042 -0.0255  0.3504  0.4265
   26MOL   C142 7692   5.286   2.712   4.169  0.0269  0.2185 -0.3644
   26MOL   C143 7693   5.228   2.994   3.671  0.6816 -0.0835  0.1425
   26MOL   H144 7694   5.237   3.086   3.865  0.2156 -0.6814  0.7449
   26MOL   H145 7695   5.099   2.769   4.071 -0.2777 -0.1563  0.1858
   26MOL   H146 7696   5.207   2.664   3.959  2.2984  1.2735 -0.1495
   26MOL   H147 7697   5.392   2.710   4.141 -0.2119  0.6980 -1.3682
   26MOL   H148 7698   5.277   2.779   4.254 -2.4623 -1.2245  0.5295
   26MOL   H149 7699   5.256   2.612   4.200 -0.4870  0.1958 -0.9203
   26MOL   H150 7700   5.284   2.901   3.678 -0.3395 -0.6793  0.4758
   26MOL   H151 7701   5.145   2.979   3.601  0.0232 -1.4123  1.1805
   26MOL   C152 7702   5.330   3.096   3.624 -0.0471  0.4875  0.0065
   26MOL   O153 7703   5.443   3.077   3.706  0.4181  0.0264 -0.6691
   26MOL   C154 7704   5.544   3.169   3.710 -0.0299  0.5062 -0.0765
   26MOL   O155 7705   5.561   3.256   3.626 -0.2684 -0.1256  0.5042
   26MOL   C156 7706   5.618   3.158   3.845  0.8039 -0.3040 -0.6277
   26MOL   C157 7707   5.767   3.181   3.819  0.3095 -0.1994 -0.6143
   26MOL   C158 7708   5.361   3.087   3.475 -0.2494  0.4393 -0.1188
   26MOL   H159 7709   5.295   3.195   3.652  1.6026  0.8092  1.0171
   26MOL   H160 7710   5.578   3.243   3.900  0.4907 -0.5208 -0.5190
   26MOL   H161 7711   5.593   3.069   3.903  1.2119 -0.0222 -0.0158
   26MOL   H162 7712   5.777   3.289   3.828  0.5508 -0.3303  0.9573
   26MOL   H163 7713   5.820   3.121   3.893  1.2986  2.9879  1.3709
   26MOL   H164 7714   5.798   3.162   3.716 -0.2212  0.9889 -0.9947
   26MOL   H165 7715   5.269   3.110   3.421 -0.0840  1.2939 -0.0468
   26MOL   H166 7716   5.430   3.165   3.443 -0.5572  0.5343 -0.5604
   26MOL   C167 7717   5.426   2.950   3.430 -0.8226  0.1539 -0.3982
   26MOL   O168 7718   5.383   2.903   3.303 -0.4201 -0.4676 -0.4869
   26MOL   C169 7719   5.265   2.863   3.290 -0.1767  0.4121  0.5351
   26MOL   O170 7720   5.178   2.870   3.377  0.5691  0.2893 -0.0433
   26MOL   C171 7721   5.242   2.779   3.163  0.0801  0.6723  0.5015
   26MOL   C172 7722   5.096   2.797   3.114  0.4405  0.5022  0.1459
   26MOL   C173 7723   5.580   2.949   3.417  0.4757  0.6941  0.5612
   26MOL   H174 7724   5.396   2.878   3.506 -0.8947  1.1578  0.5272
   26MOL   H175 7725   5.309   2.819   3.087 -0.4205  0.5194 -0.0259
   26MOL   H176 7726   5.262   2.673   3.180 -1.6660  0.4626  1.3432
   26MOL   H177 7727   5.076   2.758   3.014  0.9292  1.7413 -0.4327
   26MOL   H178 7728   5.016   2.745   3.167  0.0126  1.2430  0.2324
   26MOL   H179 7729   5.064   2.900   3.124 -1.4135  0.0006 -0.4371
   26MOL   H180 7730   5.626   2.956   3.516  0.3348  3.9504  0.4439
   26MOL   H181 7731   5.611   2.851   3.382  2.4023  1.3983  0.2317
   26MOL   C182 7732   5.659   3.060   3.335 -0.0539 -0.0089 -0.1695
   26MOL   O183 7733   5.796   3.043   3.368 -0.8489 -0.6335  0.0273
   26MOL   C184 7734   5.871   3.148   3.367  0.2422 -0.8437  0.6178
   26MOL   O185 7735   5.831   3.267   3.335 -0.4337 -0.2447  0.2588
   26MOL   C186 7736   6.019   3.121   3.392  0.1436  0.1002 -0.6614
   26MOL   C187 7737   6.110   3.156   3.274  0.3257  0.7152 -0.7861
   26MOL   C188 7738   5.638   3.037   3.182 -0.5546  0.1904 -0.0339
   26MOL   H189 7739   5.633   3.165   3.345  1.2187  0.2851  0.1251
   26MOL   H190 7740   6.049   3.187   3.473  0.4966 -2.0721  1.0142
   26MOL   H191 7741   6.043   3.021   3.428  0.3016  1.1325  2.1688
   26MOL   H192 7742   6.113   3.066   3.212 -0.6454 -0.2866  0.5728
   26MOL   H193 7743   6.072   3.242   3.220  1.5361  1.5041 -0.3932
   26MOL   H194 7744   6.210   3.182   3.309  0.5260 -1.4891  0.3977
   26MOL   H195 7745   5.732   3.057   3.130 -0.3522 -0.5254  0.0516
   26MOL   H196 7746   5.626   2.933   3.151  1.0032 -0.3202  1.0485
   26MOL   C197 7747   5.531   3.125   3.114 -0.2572 -0.7547 -0.8058
   26MOL   O198 7748   5.588   3.259   3.097  0.1571  0.0984  0.0192
   26MOL   C199 7749   5.524   3.367   3.123  0.0016  0.6918 -1.2369
   26MOL   O200 7750   5.414   3.366   3.181 -0.2243  0.4123 -0.2581
   26MOL   C201 7751   5.599   3.493   3.075  0.2510  0.0590  0.0914
   26MOL   C202 7752   5.681   3.471   2.947 -0.4172  0.3721  0.2271
   26MOL   C203 7753   5.500   3.079   2.973  0.4173 -0.3927  1.2206
   26MOL   H204 7754   5.439   3.125   3.173  0.5416 -1.3262  0.4530
   26MOL   H205 7755   5.521   3.568   3.062  1.0231  1.1126  1.3601
   26MOL   H206 7756   5.658   3.533   3.158 -2.4764  0.7154  1.7718
   26MOL   H207 7757   5.766   3.408   2.971 -0.7716 -0.9709 -1.9302
   26MOL   H208 7758   5.620   3.418   2.875 -0.3079  1.1343 -0.4342
   26MOL   H209 7759   5.706   3.567   2.901 -1.0491 -0.1193 -1.1649
   26MOL   H210 7760   5.573   3.132   2.912  1.1436 -2.3859  0.3227
   26MOL   H211 7761   5.517   2.972   2.965 -0.6369 -0.4481 -0.6404
   26MOL   C212 7762   5.355   3.109   2.924 -0.2791  0.0814  0.4436
   26MOL   O213 7763   5.314   3.239   2.931 -0.4822  0.9142 -0.1363
   26MOL   C214 7764   5.192   3.269   3.000 -0.0478 -0.2137  0.7037
   26MOL   O215 7765   5.116   3.188   3.053  0.0188  0.6364 -0.3560
   26MOL   C216 7766   5.148   3.414   2.987 -0.2366 -0.1079 -0.1897
   26MOL   C217 7767   5.117   3.446   2.842  0.0752 -0.6977  0.6089
   26MOL   C218 7768   5.341   3.064   2.778 -0.7316  0.3123  0.3369
   26MOL   H219 7769   5.296   3.044   2.989 -1.6861  1.2124  0.3296
   26MOL   H220 7770   5.067   3.429   3.059 -0.4761 -3.7665  0.3814
   26MOL   H221 7771   5.230   3.471   3.032 -0.7699 -0.7701  1.6775
   26MOL   H222 7772   5.191   3.405   2.773 -0.1711 -1.3331  0.7193
   26MOL   H223 7773   5.026   3.388   2.823 -0.6540 -0.4766  3.3198
   26MOL   H224 7774   5.102   3.551   2.817  1.6579 -0.6550 -0.2296
   26MOL   H225 7775   5.405   3.138   2.729  0.0601 -1.7177 -1.7927
   26MOL   H226 7776   5.386   2.967   2.756 -1.3392  0.0147  0.3980
   26MOL   C227 7777   5.200   3.032   2.735 -0.2755 -0.8202  0.3899
   26MOL   O228 7778   5.207   3.063   2.594 -0.0264  0.0098 -0.5596
   26MOL   C229 7779   5.150   3.171   2.544  0.9852 -0.2549 -0.0717
   26MOL   O230 7780   5.079   3.247   2.605  0.0156  0.1820  0.7250
   26MOL   C231 7781   5.166   3.180   2.393  0.2727 -0.1867 -0.5944
   26MOL   C232 7782   5.067   3.086   2.327 -0.4159  0.0109  0.6265
   26MOL   C233 7783   5.167   2.885   2.759  0.6968  0.2678 -0.2430
   26MOL   H234 7784   5.128   3.091   2.791 -0.6885  0.0661 -1.0677
   26MOL   H235 7785   5.140   3.281   2.361 -2.1450 -1.2000 -1.9401
   26MOL   H236 7786   5.269   3.156   2.364  1.2328  1.1362  1.6104
   26MOL   H237 7787   5.084   3.088   2.220  0.3964  1.0575  0.7581
   26MOL   H238 7788   5.104   2.987   2.354 -0.8726 -0.1760  0.5570
   26MOL   H239 7789   4.961   3.091   2.349 -0.3269 -0.4315  1.1800
   26MOL   H240 7790   5.207   2.822   2.680  0.7976 -0.3017  0.2626
   26MOL   H241 7791   5.214   2.852   2.851 -2.2056 -0.3106  1.1057
   26MOL   C242 7792   5.019   2.847   2.748  0.3937 -0.8774 -0.0820
   26MOL   O243 7793   4.935   2.953   2.804  0.3235  0.6808  0.2162
   26MOL   C244 7794   4.821   2.922   2.874  0.3059  0.8434  0.9131
   26MOL   O245 7795   4.775   2.809   2.874  0.3732  0.3637 -0.2067
   26MOL   C246 7796   4.759   3.048   2.934  0.3425 -0.4551  0.1291
   26MOL   C247 7797   4.660   3.007   3.047 -0.2849 -0.3938 -0.0506
   26MOL   C248 7798   4.953   2.837   2.608  0.5203 -0.1083 -0.2242
   26MOL   H249 7799   4.992   2.755   2.800 -1.4204 -1.5760 -2.1966
   26MOL   H250 7800   4.843   3.098   2.984 -2.5480  1.5364  3.1922
   26MOL   H251 7801   4.725   3.121   2.860  0.6081  0.2925  0.7325
   26MOL   H252 7802   4.699   2.925   3.108  0.8919 -1.3904 -2.0894
   26MOL   H253 7803   4.631   3.086   3.116  1.0684 -0.8458  1.0681
   26MOL   H254 7804   4.566   2.989   2.995 -0.8371 -0.2067  0.8790
   26MOL   H255 7805   4.845   2.823   2.617  0.3032  1.7029  0.1694
   26MOL   H256 7806   4.957   2.931   2.555  0.5828 -1.9444 -3.5767
   26MOL   C257 7807   5.006   2.719   2.526  0.4019  0.3120  0.0541
   26MOL   O258 7808   4.957   2.615   2.609 -0.3275  0.1858 -0.7749
   26MOL   C259 7809   5.037   2.513   2.633 -0.7411 -0.2000 -0.4056
   26MOL   O260 7810   5.157   2.499   2.604  0.2825  0.2453  0.2764
   26MOL   C261 7811   4.962   2.403   2.713 -0.0736  0.1564 -0.2020
   26MOL   C262 7812   4.867   2.448   2.827  0.1386 -0.7417  0.0554
   26MOL   C263 7813   4.942   2.722   2.385  0.1454 -0.5388  0.3085
   26MOL   H264 7814   5.113   2.734   2.514  1.0039 -2.4572  1.5056
   26MOL   H265 7815   4.904   2.361   2.631 -1.6629  2.8105 -0.5117
   26MOL   H266 7816   5.035   2.329   2.746 -0.3109  0.4124  0.8996
   26MOL   H267 7817   4.834   2.356   2.875  1.4536 -1.0862  0.3119
   26MOL   H268 7818   4.920   2.497   2.908 -0.4614  2.4160 -1.3713
   26MOL   H269 7819   4.781   2.509   2.798 -0.6745 -1.2526  1.3623
   26MOL   H270 7820   4.837   2.696   2.395  0.2548 -0.2853  2.2800
   26MOL   H271 7821   4.947   2.820   2.339  0.3472 -0.1125  1.2302
   26MOL   C272 7822   4.999   2.627   2.279  0.1429 -0.0646  0.4169
   26MOL   O273 7823   4.947   2.498   2.309  0.4864 -0.4228  0.0816
   26MOL   C274 7824   5.020   2.392   2.306 -0.0588  0.2791  0.8206
   26MOL   O275 7825   5.141   2.390   2.282  0.4113 -0.0492  0.2761
   26MOL   C276 7826   4.951   2.263   2.352 -0.1291 -0.0388  0.0175
   26MOL   C277 7827   4.832   2.219   2.274 -0.6895 -0.2137 -0.7310
   26MOL   C278 7828   4.952   2.673   2.134  0.0453 -0.0812  0.2157
   26MOL   H279 7829   5.108   2.627   2.282  0.1486  0.3053  0.1927
   26MOL   H280 7830   5.026   2.184   2.365  1.1746  1.1151 -0.3182
   26MOL   H281 7831   4.939   2.275   2.460 -3.3430 -1.0383 -0.1908
   26MOL   H282 7832   4.848   2.117   2.238 -0.7689 -1.7189  3.2761
   26MOL   H283 7833   4.747   2.231   2.341  0.2670 -0.1369  0.4762
   26MOL   H284 7834   4.810   2.298   2.201  3.5096  1.9065  0.1513
   26MOL   H285 7835   4.960   2.582   2.074 -4.6500 -0.6730  0.3364
   26MOL   H286 7836   4.846   2.694   2.147  0.0021 -0.0528 -0.1643
   26MOL   C287 7837   5.042   2.785   2.074  0.2499  0.1057  0.1548
   26MOL   O288 7838   5.168   2.734   2.056 -1.2314 -0.0072  0.1220
   26MOL   C289 7839   5.271   2.787   2.130 -0.4891 -0.1615  0.0569
   26MOL   O290 7840   5.265   2.891   2.191 -0.0688  0.3507  0.0733
   26MOL   C291 7841   5.406   2.712   2.121  0.8071  1.0309 -0.6198
   26MOL   C292 7842   5.386   2.559   2.133 -0.3323 -0.2513 -0.7444
   26MOL   C293 7843   4.983   2.851   1.945  0.1213 -0.1465  0.1815
   26MOL   H294 7844   5.044   2.867   2.145  5.3819 -0.6310  1.0887
   26MOL   H295 7845   5.458   2.729   2.027  0.9841 -0.7695 -0.8699
   26MOL   H296 7846   5.454   2.762   2.204 -1.4392  1.1651  0.6480
   26MOL   H297 7847   5.482   2.508   2.130  0.7907  1.8146 -0.8594
   26MOL   H298 7848   5.328   2.534   2.222  1.5889 -0.2032  0.5346
   26MOL   H299 7849   5.319   2.516   2.057 -2.2593 -0.3470  0.9654
   26MOL   H300 7850   5.056   2.913   1.893  0.9811 -0.1175  1.4129
   26MOL   H301 7851   4.954   2.771   1.877  0.5845 -2.1348  2.2755
   26MOL   H302 7852   4.902   2.917   1.978 -1.2925 -1.5787 -0.3435
   27MOL     C1 7853   4.776   3.519   7.125 -0.3754 -0.5134  0.3556
   27MOL     O2 7854   4.740   3.617   7.224  0.3371 -0.3133 -0.1920
   27MOL     C3 7855   4.755   3.745   7.193  0.6891 -0.0404 -0.0947
   27MOL     O4 7856   4.801   3.795   7.087 -0.4755 -0.0284  0.4517
   27MOL     C5 7857   4.707   3.833   7.309 -0.2457 -0.0574  0.1007
   27MOL     C6 7858   4.815   3.885   7.419  0.2990 -0.5833 -0.6736
   27MOL     C7 7859   4.666   3.409   7.123  0.1780  0.1107 -0.3167
   27MOL     H8 7860   4.869   3.463   7.134 -0.9399 -1.6175 -0.5036
   27MOL     H9 7861   4.663   3.923   7.265 -0.8337  0.7055  2.1932
   27MOL    H10 7862   4.627   3.790   7.369 -1.8992  2.1645 -0.4358
   27MOL    H11 7863   4.770   3.957   7.487  0.4056 -0.9900 -0.1725
   27MOL    H12 7864   4.850   3.797   7.474  0.3945 -1.2374 -1.7535
   27MOL    H13 7865   4.902   3.911   7.359 -0.4259 -2.0054 -2.4223
   27MOL    H14 7866   4.664   3.365   7.223  0.4034  1.9815  0.5177
   27MOL    H15 7867   4.566   3.453   7.118  1.0177  2.0750 -0.1504
   27MOL    H16 7868   4.776   3.559   7.024  1.5651  1.5601  1.1371
   27MOL    C17 7869   4.687   3.295   7.021  0.2625  0.2546  0.3918
   27MOL    O18 7870   4.590   3.192   7.050 -0.1043 -0.2251 -0.5495
   27MOL    C19 7871   4.623   3.071   7.094  0.5561  0.1548  0.3606
   27MOL    O20 7872   4.731   3.014   7.076 -0.0666 -0.3577 -1.0480
   27MOL    C21 7873   4.521   2.992   7.173 -0.1139  0.1951 -0.0818
   27MOL    C22 7874   4.558   2.987   7.323 -0.0869  0.5471  0.1608
   27MOL    C23 7875   4.693   3.338   6.879 -0.1310  0.4949  0.6469
   27MOL    H24 7876   4.784   3.248   7.042 -0.7472 -2.8061 -1.5846
   27MOL    H25 7877   4.420   3.023   7.147 -1.3505 -3.1199  0.5191
   27MOL    H26 7878   4.518   2.888   7.139 -1.2712  0.8192 -2.0039
   27MOL    H27 7879   4.578   3.086   7.363 -1.8171  1.0544 -0.1880
   27MOL    H28 7880   4.476   2.934   7.372  0.2397  0.6875  0.8602
   27MOL    H29 7881   4.648   2.929   7.345 -1.1781 -0.4700  2.1189
   27MOL    H30 7882   4.607   3.389   6.838 -0.4937 -1.3947 -0.9815
   27MOL    H31 7883   4.773   3.412   6.868  0.0219  0.2263 -0.0312
   27MOL    C32 7884   4.717   3.219   6.776 -0.1850  0.2979 -0.4830
   27MOL    O33 7885   4.659   3.254   6.647  0.0005 -0.2056 -0.0654
   27MOL    C34 7886   4.548   3.202   6.605  0.1279 -0.2485  0.2246
   27MOL    O35 7887   4.487   3.111   6.654  0.2556  0.3055  0.0325
   27MOL    C36 7888   4.494   3.252   6.468  0.0717 -0.4463 -0.0281
   27MOL    C37 7889   4.408   3.379   6.482 -0.5210  0.3523  0.6895
   27MOL    C38 7890   4.863   3.179   6.769 -0.2493  0.0641  0.4630
   27MOL    H39 7891   4.659   3.138   6.820 -0.4015  0.6903 -0.0319
   27MOL    H40 7892   4.588   3.283   6.421  0.5609 -0.5754  0.8569
   27MOL    H41 7893   4.444   3.182   6.400 -0.2339  0.2019 -0.4777
   27MOL    H42 7894   4.425   3.433   6.576 -0.9038  0.7912  0.5104
   27MOL    H43 7895   4.426   3.448   6.399 -1.2124  0.8480  0.9498
   27MOL    H44 7896   4.302   3.353   6.476 -0.0154 -1.4555 -1.0787
   27MOL    H45 7897   4.918   3.236   6.695  2.2194 -0.2795  1.9924
   27MOL    H46 7898   4.916   3.185   6.864  0.8901  0.5522 -0.2005
   27MOL    C47 7899   4.887   3.027   6.719 -0.0672  0.4552 -0.2949
   27MOL    O48 7900   4.821   2.996   6.593 -0.1697  0.3622  0.1577
   27MOL    C49 7901   4.769   2.872   6.567  0.8138  0.4513  0.1982
   27MOL    O50 7902   4.742   2.776   6.644 -0.0754  0.4509 -0.7906
   27MOL    C51 7903   4.730   2.876   6.425  0.8934  0.4473  0.6001
   27MOL    C52 7904   4.662   2.745   6.370 -0.1149 -0.1424  0.0279
   27MOL    C53 7905   5.029   2.979   6.712 -0.2134 -0.2003 -0.2627
   27MOL    H54 7906   4.842   2.963   6.796 -2.7388  1.3108 -1.0749
   27MOL    H55 7907   4.666   2.962   6.411 -1.8265 -1.6723 -0.4385
   27MOL    H56 7908   4.825   2.895   6.374  1.6003  2.0334  2.4227
   27MOL    H57 7909   4.563   2.730   6.412  0.2443  0.7682  1.2183
   27MOL    H58 7910   4.637   2.744   6.264 -2.0350 -1.3676  0.4721
   27MOL    H59 7911   4.717   2.654   6.392 -0.4487  0.1021  1.9190
   27MOL    H60 7912   5.058   2.975   6.607 -4.1609 -0.1441 -1.4072
   27MOL    H61 7913   5.107   3.043   6.754  0.6294 -0.8609 -0.8039
   27MOL    C62 7914   5.052   2.851   6.789  0.0274  0.0988 -0.0445
   27MOL    O63 7915   5.189   2.815   6.751  0.3533 -0.1079 -0.4685
   27MOL    C64 7916   5.219   2.686   6.723  0.9209  0.3686 -0.4333
   27MOL    O65 7917   5.143   2.591   6.726 -0.3988  0.8212 -0.3755
   27MOL    C66 7918   5.365   2.659   6.699 -0.4879  1.1702 -0.0548
   27MOL    C67 7919   5.448   2.685   6.827 -0.3779 -0.0509 -0.0751
   27MOL    C68 7920   5.052   2.863   6.943  0.7929 -0.3922 -0.9371
   27MOL    H69 7921   4.972   2.780   6.769 -0.2419  0.6832 -1.0859
   27MOL    H70 7922   5.366   2.554   6.671  1.1556  0.3264  2.9444
   27MOL    H71 7923   5.401   2.713   6.611 -2.0113  2.3060 -0.0185
   27MOL    H72 7924   5.425   2.781   6.872  0.3453 -0.1136  0.4452
   27MOL    H73 7925   5.434   2.599   6.892  0.9422 -0.6388 -0.5536
   27MOL    H74 7926   5.556   2.686   6.811 -0.2898 -2.6535  0.0511
   27MOL    H75 7927   5.151   2.899   6.973  1.2784 -2.5314  0.1218
   27MOL    H76 7928   4.978   2.935   6.976  0.6030 -0.1291 -1.9219
   27MOL    C77 7929   5.020   2.732   7.016 -0.1203 -0.3395  0.8781
   27MOL    O78 7930   5.072   2.727   7.146 -0.0880 -0.1277 -0.3118
   27MOL    C79 7931   5.187   2.675   7.169 -1.1239  0.1828 -0.4647
   27MOL    O80 7932   5.267   2.637   7.086 -0.3594  0.0867 -0.0664
   27MOL    C81 7933   5.208   2.658   7.312  0.2213 -0.5434 -0.0337
   27MOL    C82 7934   5.351   2.612   7.358  0.1507 -0.4381 -0.5278
   27MOL    C83 7935   4.866   2.708   7.026 -0.0714  0.2277  0.4294
   27MOL    H84 7936   5.064   2.650   6.960 -0.3323  1.6378 -2.2685
   27MOL    H85 7937   5.173   2.751   7.358  0.3158 -0.1628 -0.7208
   27MOL    H86 7938   5.132   2.595   7.358  2.7289 -3.8843 -0.3199
   27MOL    H87 7939   5.359   2.599   7.465  0.4668  2.3056 -0.1960
   27MOL    H88 7940   5.370   2.517   7.307  0.3905  0.4707 -2.1873
   27MOL    H89 7941   5.433   2.682   7.342  0.5286 -0.3477  1.7669
   27MOL    H90 7942   4.829   2.787   7.092 -1.1441  0.3754 -0.3437
   27MOL    H91 7943   4.816   2.722   6.931 -0.7731  1.5103  0.9771
   27MOL    C92 7944   4.821   2.570   7.085 -0.3149 -0.2211  0.3292
   27MOL    O93 7945   4.679   2.566   7.070  0.1438 -0.2611  0.7127
   27MOL    C94 7946   4.597   2.603   7.163 -0.0960 -0.9419 -0.2838
   27MOL    O95 7947   4.616   2.656   7.274 -0.0685  0.4519  0.3919
   27MOL    C96 7948   4.454   2.585   7.104 -0.2382  0.5849  0.1354
   27MOL    C97 7949   4.341   2.643   7.190 -0.0627 -0.1652  0.2349
   27MOL    C98 7950   4.892   2.449   7.024 -0.3559 -0.2846 -1.9826
   27MOL    H99 7951   4.855   2.568   7.188  2.5638 -1.5460 -0.5802
   27MOL   H100 7952   4.452   2.613   6.999 -0.6643 -2.5900 -0.7430
   27MOL   H101 7953   4.442   2.477   7.101  1.3942  0.3976 -0.5322
   27MOL   H102 7954   4.332   2.589   7.284  2.1606  1.0328  1.1764
   27MOL   H103 7955   4.354   2.750   7.202 -0.0601 -0.1231 -0.1179
   27MOL   H104 7956   4.248   2.636   7.133 -0.0800  1.4929  0.0508
   27MOL   H105 7957   4.870   2.449   6.917 -2.1270 -0.1479 -1.6309
   27MOL   H106 7958   4.999   2.462   7.041 -1.1959  0.7912  3.1815
   27MOL   C107 7959   4.843   2.311   7.068 -0.1809 -0.2396 -0.5056
   27MOL   O108 7960   4.887   2.208   6.976  0.0236 -0.5908 -0.4896
   27MOL   C109 7961   4.809   2.137   6.899 -0.2841 -0.2982  0.0917
   27MOL   O110 7962   4.684   2.146   6.906  0.0721  0.0461  0.9837
   27MOL   C111 7963   4.869   2.040   6.801 -0.3270  0.2785 -0.3177
   27MOL   C112 7964   4.951   1.930   6.862  0.2600 -0.1300  0.2768
   27MOL   C113 7965   4.878   2.270   7.215 -0.7741 -0.3756 -0.1804
   27MOL   H114 7966   4.734   2.315   7.079  0.0448  2.0500  1.1996
   27MOL   H115 7967   4.788   1.994   6.745 -0.7402 -0.8488  1.1596
   27MOL   H116 7968   4.927   2.086   6.721 -1.9170  0.5924 -1.3173
   27MOL   H117 7969   5.035   1.970   6.919 -0.2054  1.1956  0.0344
   27MOL   H118 7970   4.890   1.866   6.926  2.2241 -1.7548  0.5897
   27MOL   H119 7971   4.983   1.868   6.778  0.4262 -0.4554  0.5759
   27MOL   H120 7972   4.982   2.296   7.237 -0.3973 -2.9758  1.3692
   27MOL   H121 7973   4.823   2.341   7.277  1.6554  1.3232  0.0861
   27MOL   C122 7974   4.835   2.126   7.258 -0.6021 -0.2276 -0.7716
   27MOL   O123 7975   4.957   2.052   7.244 -0.1658  1.1176 -0.5856
   27MOL   C124 7976   4.963   1.924   7.207 -0.0260 -0.4693 -0.1382
   27MOL   O125 7977   4.875   1.853   7.167 -0.5179 -0.2170  0.6275
   27MOL   C126 7978   5.102   1.868   7.236  0.3443  0.4199  0.0228
   27MOL   C127 7979   5.117   1.799   7.374 -0.0306  0.3220 -0.4579
   27MOL   C128 7980   4.774   2.128   7.400  0.4767 -0.7894 -0.1729
   27MOL   H129 7981   4.757   2.091   7.190 -2.4164  0.6705  0.8148
   27MOL   H130 7982   5.123   1.794   7.159 -2.3385  0.7929 -1.0949
   27MOL   H131 7983   5.181   1.944   7.229  0.4379  0.4434  1.2119
   27MOL   H132 7984   5.036   1.726   7.381 -2.4573  2.9537 -0.1339
   27MOL   H133 7985   5.207   1.738   7.385 -1.5799 -1.7787  1.2079
   27MOL   H134 7986   5.120   1.867   7.459  0.8431 -0.7297  0.3772
   27MOL   H135 7987   4.858   2.132   7.469 -0.6891  0.1995  1.2386
   27MOL   H136 7988   4.706   2.213   7.412  1.3571 -0.3418  1.9185
   27MOL   C137 7989   4.709   2.003   7.454 -0.0868 -0.3665  0.2273
   27MOL   O138 7990   4.702   2.006   7.598  0.4571  0.7543 -0.1606
   27MOL   C139 7991   4.780   1.939   7.672  0.9088  0.3025  0.0155
   27MOL   O140 7992   4.866   1.855   7.629  0.8602 -0.0727 -0.3534
   27MOL   C141 7993   4.745   1.942   7.815 -0.3320  0.9372 -0.4026
   27MOL   C142 7994   4.841   1.887   7.916 -0.4392 -0.0516 -0.3161
   27MOL   C143 7995   4.583   1.955   7.389  1.0598  0.5278  0.5041
   27MOL   H144 7996   4.784   1.927   7.430 -2.0909 -1.0830 -4.2712
   27MOL   H145 7997   4.727   2.044   7.851 -1.1307  1.2032 -1.5117
   27MOL   H146 7998   4.649   1.890   7.822  0.4125 -0.1313  2.9080
   27MOL   H147 7999   4.853   1.953   0.057  0.8955 -0.6028 -0.0560
   27MOL   H148 8000   4.794   1.797   0.012  0.7279 -0.3434  0.3972
   27MOL   H149 8001   4.933   1.865   7.862  0.1644  1.5281  0.0550
   27MOL   H150 8002   4.609   1.962   7.284 -3.1848 -1.4700 -0.7838
   27MOL   H151 8003   4.552   1.853   7.411 -1.9819  1.5654  1.3654
   27MOL   C152 8004   4.466   2.042   7.422  0.5466 -0.8889 -0.3817
   27MOL   O153 8005   4.378   2.049   7.313  0.0808  0.0133  0.2850
   27MOL   C154 8006   4.393   2.135   7.220  0.7881  0.4242 -0.5089
   27MOL   O155 8007   4.489   2.213   7.209 -0.3200  0.1414 -0.0247
   27MOL   C156 8008   4.279   2.129   7.118  1.1848 -0.1506 -0.0282
   27MOL   C157 8009   4.294   2.021   7.010 -0.3221 -0.3590  0.2447
   27MOL   C158 8010   4.391   1.998   7.538  0.3621 -0.1515  0.1846
   27MOL   H159 8011   4.499   2.144   7.439 -1.7529 -0.5367  2.4130
   27MOL   H160 8012   4.187   2.123   7.176  1.5247 -1.0031  0.4293
   27MOL   H161 8013   4.268   2.226   7.068 -0.1672 -0.3463 -0.1302
   27MOL   H162 8014   4.229   2.030   6.924 -0.6650 -2.3019  0.2810
   27MOL   H163 8015   4.393   2.031   6.967  0.3873 -0.2588  1.8404
   27MOL   H164 8016   4.285   1.920   7.052 -0.3820 -0.5461 -0.2157
   27MOL   H165 8017   4.336   1.909   7.509  1.2868 -1.0285  1.0785
   27MOL   H166 8018   4.463   1.981   7.618 -1.1962 -1.1774  1.3866
   27MOL   C167 8019   4.301   2.105   7.587  0.9337  0.5616  0.3360
   27MOL   O168 8020   4.356   2.240   7.580 -0.1398 -0.4480 -0.6353
   27MOL   C169 8021   4.431   2.299   7.687 -0.7725 -0.1775 -0.7711
   27MOL   O170 8022   4.445   2.242   7.794 -0.7701  0.5517 -0.3328
   27MOL   C171 8023   4.497   2.436   7.667 -0.1040 -0.3809  0.1176
   27MOL   C172 8024   4.467   2.504   7.542  0.1123 -0.1602  0.1913
   27MOL   C173 8025   4.161   2.107   7.525 -0.0586  0.3711 -0.0017
   27MOL   H174 8026   4.293   2.070   7.690  2.7953 -2.0787 -0.3702
   27MOL   H175 8027   4.454   2.494   7.748  2.3688 -0.1598  1.3266
   27MOL   H176 8028   4.605   2.436   7.684  0.1740  0.5826 -1.5771
   27MOL   H177 8029   4.364   2.487   7.509  0.2012  0.1606 -0.2671
   27MOL   H178 8030   4.482   2.612   7.540  1.6375 -0.3613  0.6947
   27MOL   H179 8031   4.523   2.448   7.467  1.8709 -0.2005  1.5119
   27MOL   H180 8032   4.115   2.206   7.525  1.1615  0.9735  2.2855
   27MOL   H181 8033   4.155   2.076   7.420  1.0392  0.7822 -0.1969
   27MOL   C182 8034   4.058   2.026   7.595  0.2755  0.4948 -0.1551
   27MOL   O183 8035   4.081   1.883   7.595  0.4526  0.4806  0.0883
   27MOL   C184 8036   4.008   1.801   7.519  0.3968  0.0166  0.3514
   27MOL   O185 8037   3.929   1.833   7.428 -0.1081 -0.2435  0.0171
   27MOL   C186 8038   4.049   1.653   7.537  0.0903 -0.1164 -0.1675
   27MOL   C187 8039   4.148   1.615   7.427 -0.2812  0.5771 -0.6079
   27MOL   C188 8040   4.027   2.082   7.738 -0.2080 -0.0383 -0.0748
   27MOL   H189 8041   3.965   2.053   7.545  0.6641  0.0470 -1.1243
   27MOL   H190 8042   4.085   1.642   7.639 -0.8780 -1.8399  0.0140
   27MOL   H191 8043   3.960   1.591   7.529 -1.1262  1.7654 -1.6429
   27MOL   H192 8044   4.242   1.670   7.428  1.9153 -3.0077 -0.4622
   27MOL   H193 8045   4.170   1.508   7.425  0.2078  0.6234  1.4035
   27MOL   H194 8046   4.100   1.626   7.330 -1.3259 -1.5931 -0.3782
   27MOL   H195 8047   4.084   2.036   7.819  1.7976 -0.1775 -1.5368
   27MOL   H196 8048   4.065   2.184   7.746  0.3986 -0.2174 -0.6843
   27MOL   C197 8049   3.869   2.091   7.775 -0.6782 -0.3528  0.2132
   27MOL   O198 8050   3.820   1.957   7.789 -0.0458  0.3571  0.5384
   27MOL   C199 8051   3.705   1.916   7.732 -0.1911 -0.8475  1.0150
   27MOL   O200 8052   3.620   1.973   7.666  0.6344 -0.0275 -0.0463
   27MOL   C201 8053   3.684   1.768   7.764 -0.6448 -0.6865 -0.4319
   27MOL   C202 8054   3.614   1.747   7.904  0.2759 -0.0149  0.0005
   27MOL   C203 8055   3.848   2.153   7.914 -0.8141  0.1667 -0.0796
   27MOL   H204 8056   3.816   2.152   7.702  0.4639 -0.8096 -1.0196
   27MOL   H205 8057   3.616   1.730   7.687 -0.6010 -1.2013 -0.2245
   27MOL   H206 8058   3.782   1.721   7.772 -0.8325 -0.4732  4.0093
   27MOL   H207 8059   3.519   1.800   7.903  0.0073 -0.4758  1.0333
   27MOL   H208 8060   3.588   1.645   7.931 -3.7547  0.8275 -0.4403
   27MOL   H209 8061   3.665   1.812   0.031 -0.3984  1.3262 -0.7115
   27MOL   H210 8062   3.749   2.124   0.006 -0.4423 -0.4360  0.4285
   27MOL   H211 8063   3.920   2.100   0.031  0.2019 -0.7708 -2.0174
   27MOL   C212 8064   3.878   2.302   7.923  0.5716  0.3784 -0.7485
   27MOL   O213 8065   3.797   2.363   7.836 -0.4955 -0.3658 -0.3691
   27MOL   C214 8066   3.846   2.452   7.740  0.4251 -0.5001 -0.3592
   27MOL   O215 8067   3.961   2.486   7.728 -0.5759 -0.3574 -0.3052
   27MOL   C216 8068   3.755   2.482   7.624  0.1315 -0.6496 -0.3319
   27MOL   C217 8069   3.613   2.525   7.662  0.5568 -0.4736 -0.0016
   27MOL   C218 8070   3.870   2.357   0.121  0.1110 -0.7022  0.3697
   27MOL   H219 8071   3.981   2.312   7.887  0.8299  0.3739 -0.0138
   27MOL   H220 8072   3.796   2.559   7.559 -0.3474  0.1028  0.2457
   27MOL   H221 8073   3.744   2.393   7.562 -2.5676 -0.2241 -0.5293
   27MOL   H222 8074   3.555   2.440   7.699 -1.2074  0.6941 -0.0389
   27MOL   H223 8075   3.615   2.608   7.733  0.6846  0.6055 -1.2596
   27MOL   H224 8076   3.572   2.555   7.566 -0.2715 -1.3212  0.0793
   27MOL   H225 8077   3.767   2.368   0.153 -0.3362 -1.7844 -0.6983
   27MOL   H226 8078   3.912   2.280   0.185 -1.1482 -0.6975  1.2153
   27MOL   C227 8079   3.934   2.494   0.154 -0.2781  0.9415  0.5396
   27MOL   O228 8080   3.874   2.534   0.277 -0.4026 -0.1916 -0.4463
   27MOL   C229 8081   3.809   2.649   0.287  0.0209  0.5853  0.0223
   27MOL   O230 8082   3.794   2.725   0.196 -0.5117  0.2565 -0.2491
   27MOL   C231 8083   3.736   2.672   0.419  0.2812 -0.2233 -0.4194
   27MOL   C232 8084   3.668   2.806   0.443 -0.6340 -0.2495 -0.0884
   27MOL   C233 8085   4.087   2.477   0.172  1.1330  0.3774 -0.3778
   27MOL   H234 8086   3.913   2.561   0.071 -2.2896  0.9470  1.0430
   27MOL   H235 8087   3.660   2.594   0.414  0.1285 -0.0374 -0.9857
   27MOL   H236 8088   3.811   2.648   0.494  0.3384 -0.3948 -0.5311
   27MOL   H237 8089   3.631   2.816   0.545  0.9183  2.8997  0.1949
   27MOL   H238 8090   3.749   2.871   0.412  0.5354 -1.5742  0.1271
   27MOL   H239 8091   3.579   2.813   0.380 -0.3705  1.2816 -0.3025
   27MOL   H240 8092   4.117   2.510   0.272  0.5240  0.0986 -0.0988
   27MOL   H241 8093   4.115   2.372   0.161 -0.2643 -0.1560  0.8547
   27MOL   C242 8094   4.157   2.565   0.068  0.4715  0.2056  0.4695
   27MOL   O243 8095   4.133   2.703   0.092  0.5653  0.3150 -0.1567
   27MOL   C244 8096   4.141   2.800   7.943  0.1209  0.4938 -0.4029
   27MOL   O245 8097   4.173   2.784   7.825  0.1616  0.0907  0.4148
   27MOL   C246 8098   4.120   2.935   0.057 -0.2957 -0.4373  0.4327
   27MOL   C247 8099   3.969   2.945   0.086 -0.2521  0.1142  0.6130
   27MOL   C248 8100   4.308   2.544   0.038 -0.0358 -0.6632 -0.5742
   27MOL   H249 8101   4.108   2.534   7.920  0.1948 -2.0872  1.3370
   27MOL   H250 8102   4.183   2.941   0.146  0.4529 -0.8278 -0.0678
   27MOL   H251 8103   4.150   3.014   7.933 -1.0688 -0.6028 -0.1108
   27MOL   H252 8104   3.941   3.050   0.080  1.2631  0.4786 -0.4264
   27MOL   H253 8105   3.908   2.879   0.025 -0.0062  0.0570  0.4311
   27MOL   H254 8106   3.962   2.916   0.191  0.8037 -1.1897  0.3255
   27MOL   H255 8107   4.328   2.442   0.007  0.5930 -0.2391 -1.5734
   27MOL   H256 8108   4.343   2.601   7.897 -1.9551  1.1365 -0.2074
   27MOL   C257 8109   4.408   2.570   0.145 -0.4880  0.4779 -0.1194
   27MOL   O258 8110   4.410   2.446   0.221 -0.1887 -0.1702 -0.1622
   27MOL   C259 8111   4.435   2.450   0.347 -0.5916 -0.2365 -0.2909
   27MOL   O260 8112   4.458   2.552   0.418  0.4308  0.0482  0.4217
   27MOL   C261 8113   4.439   2.307   0.409 -0.2052 -0.6973 -0.1692
   27MOL   C262 8114   4.443   2.299   0.571  0.1881 -0.1762 -0.1594
   27MOL   C263 8115   4.545   2.599   0.078  0.0806 -0.2712  0.1855
   27MOL   H264 8116   4.381   2.645   0.219 -1.4864  0.1820 -0.1753
   27MOL   H265 8117   4.345   2.272   0.367 -1.1989  1.4594  0.1751
   27MOL   H266 8118   4.524   2.244   0.381  0.0495 -0.0365 -0.8777
   27MOL   H267 8119   4.538   2.333   0.613 -0.4727  0.4314  0.8603
   27MOL   H268 8120   4.365   2.360   0.616  0.7761  1.4477 -1.2524
   27MOL   H269 8121   4.426   2.196   0.599  3.1472  0.0245  2.6625
   27MOL   H270 8122   4.629   2.567   0.140  0.1527  1.6674  1.1267
   27MOL   H271 8123   4.556   2.550   7.926 -1.2356  0.8622 -0.5575
   27MOL   C272 8124   4.575   2.749   0.049 -1.1259 -0.0726  0.5177
   27MOL   O273 8125   4.501   2.806   7.891  0.4995 -0.5502  0.2937
   27MOL   C274 8126   4.538   2.786   7.763  0.3260  0.3151 -0.4967
   27MOL   O275 8127   4.630   2.711   7.729  0.5880 -0.1192  0.2728
   27MOL   C276 8128   4.443   2.847   7.656 -0.3763  0.4628  0.1607
   27MOL   C277 8129   4.437   2.993   7.684  0.0600  0.4027 -0.5698
   27MOL   C278 8130   4.543   2.852   0.161  1.0846 -0.2055 -0.0533
   27MOL   H279 8131   4.680   2.756   0.023 -1.2302  0.3993  0.2301
   27MOL   H280 8132   4.496   2.844   7.561  1.9149 -0.5307  1.4347
   27MOL   H281 8133   4.347   2.795   7.651 -0.8993  1.2617  1.6162
   27MOL   H282 8134   4.353   3.034   7.628 -1.9020 -1.1819  1.1119
   27MOL   H283 8135   4.407   3.002   7.789 -0.7261  0.0615 -0.7619
   27MOL   H284 8136   4.529   3.051   7.675  0.3249  0.0154 -0.4151
   27MOL   H285 8137   4.434   2.860   0.167  1.1379  1.9148 -1.5267
   27MOL   H286 8138   4.579   2.814   0.257 -0.6620  3.5587  2.2462
   27MOL   C287 8139   4.604   2.996   0.136 -0.6352 -0.2614  0.3735
   27MOL   O288 8140   4.537   3.089   0.216 -0.7851 -0.0768 -0.0971
   27MOL   C289 8141   4.461   3.194   0.159  0.3784  0.2094  0.6616
   27MOL   O290 8142   4.445   3.211   0.035  0.1932  0.2557  0.1128
   27MOL   C291 8143   4.395   3.287   0.260 -0.2832  0.3091 -0.1530
   27MOL   C292 8144   4.261   3.348   0.208 -0.5371  0.4427  0.2253
   27MOL   C293 8145   4.745   2.999   0.182  0.9033  0.4376 -0.1855
   27MOL   H294 8146   4.604   3.015   0.029  2.8930  1.8388  0.6885
   27MOL   H295 8147   4.383   3.234   0.355  1.6972  0.9011  0.4585
   27MOL   H296 8148   4.462   3.371   0.276 -0.6711  0.2922  1.7569
   27MOL   H297 8149   4.248   3.333   0.101  0.1777 -0.1320  0.2157
   27MOL   H298 8150   4.179   3.292   0.252  0.0378  0.2586  1.0896
   27MOL   H299 8151   4.257   3.453   0.237  2.9983  0.4642  0.9221
   27MOL   H300 8152   4.800   2.958   0.098 -0.1205 -1.3987  0.0140
   27MOL   H301 8153   4.773   3.103   0.197  0.0474  0.5470  0.7305
   27MOL   H302 8154   4.772   2.938   0.268  0.7448 -0.0806 -0.5043
   28MOL     C1 8155   4.938   1.626   1.002 -0.7883 -0.3381  0.2229
   28MOL     O2 8156   5.034   1.621   0.901 -0.2833 -0.1553  0.3650
   28MOL     C3 8157   5.069   1.733   0.844 -0.4844  0.2372  0.8142
   28MOL     O4 8158   5.025   1.844   0.872 -0.4914 -0.3061 -0.2279
   28MOL     C5 8159   5.173   1.707   0.734  0.0435  0.5595  0.1214
   28MOL     C6 8160   5.268   1.821   0.709 -0.7332  0.2835  0.0228
   28MOL     C7 8161   5.005   1.625   1.137 -0.1414 -0.3859  0.2753
   28MOL     H8 8162   4.885   1.530   1.006 -1.4850  0.0979  2.1222
   28MOL     H9 8163   5.240   1.629   0.771  0.2802  0.0810 -1.2821
   28MOL    H10 8164   5.119   1.678   0.644 -2.5130  0.3479  1.7029
   28MOL    H11 8165   5.343   1.795   0.633  0.2492  0.6060  0.8707
   28MOL    H12 8166   5.206   1.902   0.671 -2.9680 -0.8011  1.2880
   28MOL    H13 8167   5.322   1.851   0.799  0.3731  1.1806 -0.9226
   28MOL    H14 8168   5.063   1.534   1.153  0.5421  0.0605  0.3305
   28MOL    H15 8169   5.085   1.695   1.115 -1.6653  0.8249 -1.6427
   28MOL    H16 8170   4.865   1.706   0.997 -1.1524 -0.8327 -2.9144
   28MOL    C17 8171   4.932   1.680   1.263  0.0423 -0.2965  0.9731
   28MOL    O18 8172   4.828   1.586   1.275  0.0593  0.4590 -0.4244
   28MOL    C19 8173   4.715   1.617   1.346  0.3896 -0.3680 -0.6159
   28MOL    O20 8174   4.673   1.733   1.359 -0.0529  0.2586 -0.4459
   28MOL    C21 8175   4.648   1.496   1.404  0.0348 -0.7284  0.1527
   28MOL    C22 8176   4.573   1.549   1.536  0.3510 -0.1838 -0.5127
   28MOL    C23 8177   5.013   1.684   1.389  0.5611 -0.0160 -0.1745
   28MOL    H24 8178   4.899   1.782   1.244  0.4034 -0.2840  0.4104
   28MOL    H25 8179   4.575   1.446   1.340 -0.4992 -1.0491  1.0035
   28MOL    H26 8180   4.724   1.425   1.438 -2.3284 -3.6159 -0.3430
   28MOL    H27 8181   4.506   1.631   1.511 -0.0806 -0.4893 -0.3414
   28MOL    H28 8182   4.511   1.476   1.588 -0.7356  0.7378 -0.4979
   28MOL    H29 8183   4.647   1.584   1.609 -0.8747  0.6888  0.3206
   28MOL    H30 8184   5.045   1.582   1.411 -0.7798 -0.6951 -1.3032
   28MOL    H31 8185   5.108   1.730   1.363  0.2135  0.5895 -0.3839
   28MOL    C32 8186   4.963   1.749   1.517  0.5111 -0.4870 -0.0235
   28MOL    O33 8187   5.069   1.725   1.612 -0.7036 -0.0915 -0.4413
   28MOL    C34 8188   5.078   1.618   1.691 -0.6384  0.5106  0.9835
   28MOL    O35 8189   5.004   1.526   1.698  0.4833 -0.1271  0.6266
   28MOL    C36 8190   5.203   1.618   1.773 -0.3055  0.3890 -0.2919
   28MOL    C37 8191   5.335   1.629   1.693 -0.6410 -1.1969 -0.3311
   28MOL    C38 8192   4.925   1.908   1.498 -0.0636 -0.3219  0.2540
   28MOL    H39 8193   4.875   1.696   1.555 -0.4245  0.9011 -0.2389
   28MOL    H40 8194   5.189   1.693   1.851 -1.3788 -0.6013  0.4855
   28MOL    H41 8195   5.205   1.531   1.839  1.4192  0.1102 -0.7052
   28MOL    H42 8196   5.423   1.604   1.752 -0.1773 -0.9378 -0.9059
   28MOL    H43 8197   5.335   1.571   1.601 -0.6348 -0.1145 -1.0206
   28MOL    H44 8198   5.339   1.725   1.642 -1.5361 -1.5201 -1.0279
   28MOL    H45 8199   5.008   1.976   1.478 -1.0940  1.2066  1.0053
   28MOL    H46 8200   4.870   1.919   1.404  0.7840  2.0647  0.0079
   28MOL    C47 8201   4.836   1.958   1.601 -0.5343  0.0203 -0.2088
   28MOL    O48 8202   4.886   1.927   1.737  0.3043  0.1315 -0.2249
   28MOL    C49 8203   4.830   1.833   1.814  0.5117  0.2362 -0.3970
   28MOL    O50 8204   4.721   1.784   1.800  0.2919 -0.0505 -0.2159
   28MOL    C51 8205   4.926   1.801   1.928 -0.2428 -0.2008 -0.1345
   28MOL    C52 8206   4.920   1.903   2.044 -0.7878  0.3865 -0.3103
   28MOL    C53 8207   4.805   2.103   1.592  0.4649 -1.0555  0.2736
   28MOL    H54 8208   4.744   1.900   1.587 -0.3830 -0.2319 -0.1677
   28MOL    H55 8209   4.928   1.697   1.962 -3.5446  0.5374  2.5923
   28MOL    H56 8210   5.026   1.818   1.886 -0.3925  0.2317 -0.3170
   28MOL    H57 8211   5.024   1.927   2.068 -1.0376  0.5076  0.6874
   28MOL    H58 8212   4.861   1.991   2.021 -0.6067  0.1235 -1.8698
   28MOL    H59 8213   4.880   1.856   2.134 -0.4543  0.0020 -0.3597
   28MOL    H60 8214   4.885   2.151   1.648  0.0113  0.1603 -0.1206
   28MOL    H61 8215   4.806   2.138   1.489  1.2171 -0.6678  0.4064
   28MOL    C62 8216   4.664   2.145   1.641  0.5923  0.0842 -0.0606
   28MOL    O63 8217   4.669   2.284   1.640  0.4620  0.2656 -0.1627
   28MOL    C64 8218   4.620   2.356   1.737  0.0376 -0.2407  0.0185
   28MOL    O65 8219   4.554   2.312   1.831 -0.0561  0.1440 -0.5828
   28MOL    C66 8220   4.657   2.501   1.730 -0.0209 -0.2047 -0.2441
   28MOL    C67 8221   4.553   2.585   1.655  0.0688 -0.4518  0.3326
   28MOL    C68 8222   4.540   2.093   1.555  0.4437 -0.1505 -0.4229
   28MOL    H69 8223   4.647   2.115   1.745 -0.7051 -1.1085 -0.6067
   28MOL    H70 8224   4.673   2.535   1.832  0.3478 -1.4573  0.1179
   28MOL    H71 8225   4.755   2.513   1.686  0.6366  1.5881  1.6480
   28MOL    H72 8226   4.595   2.602   1.555 -2.1669 -0.6919 -0.6766
   28MOL    H73 8227   4.454   2.545   1.634 -1.0629  1.8817  1.0319
   28MOL    H74 8228   4.539   2.684   1.697  1.6045  0.8721 -2.1142
   28MOL    H75 8229   4.542   2.159   1.469  2.9457 -1.0902 -1.1079
   28MOL    H76 8230   4.560   1.994   1.514 -0.6347 -0.8508  0.6730
   28MOL    C77 8231   4.404   2.101   1.621 -0.2914 -0.3984 -0.7776
   28MOL    O78 8232   4.305   2.095   1.516  0.3103  0.5490 -0.3736
   28MOL    C79 8233   4.227   2.204   1.499  1.0123 -0.4503  0.1027
   28MOL    O80 8234   4.243   2.313   1.553 -0.0471 -0.4958 -0.1529
   28MOL    C81 8235   4.104   2.178   1.406  0.1892  0.3347 -0.0108
   28MOL    C82 8236   4.063   2.293   1.318  0.1065 -0.5318  0.0973
   28MOL    C83 8237   4.400   1.965   1.704 -0.0682 -0.1449 -0.2141
   28MOL    H84 8238   4.398   2.194   1.677 -0.4244 -0.7056 -0.2810
   28MOL    H85 8239   4.137   2.091   1.348 -0.3192 -0.3619  0.7296
   28MOL    H86 8240   4.024   2.141   1.470 -1.4067  2.8691 -0.4991
   28MOL    H87 8241   3.997   2.272   1.234  1.3546  1.5255 -1.4372
   28MOL    H88 8242   4.028   2.368   1.388  1.2564 -0.3959  0.5331
   28MOL    H89 8243   4.151   2.342   1.276 -0.2188  1.1968  1.4079
   28MOL    H90 8244   4.386   1.880   1.637 -2.0236  1.1080 -1.4546
   28MOL    H91 8245   4.495   1.942   1.751  1.0262  0.3608 -2.1194
   28MOL    C92 8246   4.292   1.958   1.814  0.2871 -0.0537 -0.4479
   28MOL    O93 8247   4.295   1.826   1.870 -0.3667 -0.6041 -0.4621
   28MOL    C94 8248   4.194   1.745   1.854  0.2849  0.4470  0.0036
   28MOL    O95 8249   4.087   1.762   1.791 -0.1148 -0.1202 -0.6535
   28MOL    C96 8250   4.228   1.618   1.926  0.0921  0.2650 -0.5487
   28MOL    C97 8251   4.352   1.539   1.875 -0.1264  0.0441 -0.0258
   28MOL    C98 8252   4.322   2.061   1.928 -0.2815 -0.1537  0.3075
   28MOL    H99 8253   4.194   1.994   1.782  0.8940  1.3934 -0.7328
   28MOL   H100 8254   4.257   1.637   2.029  0.5325 -0.2840 -0.5644
   28MOL   H101 8255   4.144   1.549   1.917 -0.8600  1.3516  0.0417
   28MOL   H102 8256   4.443   1.598   1.890  0.4510 -0.8331 -0.0361
   28MOL   H103 8257   4.353   1.443   1.928  0.2836  0.5992  0.9896
   28MOL   H104 8258   4.352   1.528   1.767  1.1139 -1.1840  0.0785
   28MOL   H105 8259   4.412   2.035   1.984  0.6040 -0.9487 -1.4493
   28MOL   H106 8260   4.345   2.157   1.880  0.1009 -0.6393 -0.4802
   28MOL   C107 8261   4.207   2.085   2.025  0.0525 -0.3172  0.1976
   28MOL   O108 8262   4.175   1.981   2.112 -0.2417 -0.6609  0.3943
   28MOL   C109 8263   4.045   1.949   2.150 -0.4828  0.3429  0.4140
   28MOL   O110 8264   3.943   2.014   2.126 -0.4674 -0.1969  0.2190
   28MOL   C111 8265   4.038   1.820   2.227  0.4649 -0.3302 -0.1220
   28MOL   C112 8266   4.110   1.819   2.364  0.8450 -0.7266  0.3989
   28MOL   C113 8267   4.243   2.202   2.122 -0.0170 -1.0054 -0.0849
   28MOL   H114 8268   4.118   2.113   1.968  0.2347 -2.1903 -1.0462
   28MOL   H115 8269   3.934   1.794   2.246  0.3010  0.6351  0.3265
   28MOL   H116 8270   4.080   1.733   2.176 -0.2702 -1.8349  1.7576
   28MOL   H117 8271   4.075   1.896   2.433  0.6754 -0.0794 -0.3973
   28MOL   H118 8272   4.106   1.726   2.421 -1.5545  0.1982  1.8060
   28MOL   H119 8273   4.213   1.847   2.339  0.8880 -1.9421 -0.8224
   28MOL   H120 8274   4.280   2.285   2.061 -0.5254 -1.1200 -0.5493
   28MOL   H121 8275   4.150   2.240   2.165  0.9368 -0.8320  1.8759
   28MOL   C122 8276   4.320   2.169   2.254 -0.4571  0.2030 -0.4747
   28MOL   O123 8277   4.442   2.103   2.218  0.2340  0.6280  0.0982
   28MOL   C124 8278   4.486   2.000   2.292  0.1138 -0.4433  0.5905
   28MOL   O125 8279   4.438   1.968   2.400  0.3232 -0.1759 -0.0742
   28MOL   C126 8280   4.603   1.913   2.233  0.4342  0.3164  0.2811
   28MOL   C127 8281   4.668   1.835   2.342  0.0734 -0.2881 -0.8991
   28MOL   C128 8282   4.357   2.284   2.347 -0.3681  0.6484 -0.3863
   28MOL   H129 8283   4.253   2.100   2.304  0.7363  0.7430  1.9219
   28MOL   H130 8284   4.568   1.840   2.159  1.6358 -2.0821  2.0245
   28MOL   H131 8285   4.673   1.978   2.181 -0.7806  0.3219 -1.4152
   28MOL   H132 8286   4.686   1.891   2.433  0.0189 -0.3570 -0.8454
   28MOL   H133 8287   4.604   1.754   2.378 -0.5126  1.0139  1.0725
   28MOL   H134 8288   4.769   1.806   2.312 -0.1122  0.1362 -1.9471
   28MOL   H135 8289   4.258   2.325   2.369  0.5421  1.2788  2.7444
   28MOL   H136 8290   4.391   2.240   2.440  0.7773 -0.2538 -1.2193
   28MOL   C137 8291   4.454   2.397   2.301 -0.1899 -0.5311 -0.2911
   28MOL   O138 8292   4.392   2.458   2.199 -0.0053  0.4597  0.2396
   28MOL   C139 8293   4.460   2.500   2.084 -0.4296 -0.4255  0.6536
   28MOL   O140 8294   4.584   2.489   2.062  0.0892  0.0734 -0.3366
   28MOL   C141 8295   4.373   2.543   1.969  0.2855  0.0478  0.4357
   28MOL   C142 8296   4.270   2.644   2.016 -0.9258  0.2580 -0.6450
   28MOL   C143 8297   4.465   2.517   2.401  0.7642  0.2036 -0.0195
   28MOL   H144 8298   4.550   2.351   2.276  0.5503 -0.2466  1.8704
   28MOL   H145 8299   4.439   2.581   1.892  1.5121 -3.3267 -0.2835
   28MOL   H146 8300   4.321   2.453   1.935  0.9231 -0.1269 -0.0765
   28MOL   H147 8301   4.320   2.726   2.069 -0.3357 -1.8718  2.1700
   28MOL   H148 8302   4.210   2.679   1.932  1.2190  1.3528 -1.7644
   28MOL   H149 8303   4.203   2.601   2.090 -1.5323  1.5891 -0.3932
   28MOL   H150 8304   4.538   2.584   2.357  1.0477  0.5517  0.9821
   28MOL   H151 8305   4.371   2.572   2.403  0.1414 -0.8744  0.9680
   28MOL   C152 8306   4.503   2.475   2.544 -0.5407 -0.6280  0.7530
   28MOL   O153 8307   4.611   2.376   2.548 -0.7579  0.1110 -0.0262
   28MOL   C154 8308   4.601   2.295   2.663  0.1810  0.5212  0.7688
   28MOL   O155 8309   4.533   2.307   2.767  0.2671  0.3041 -0.4077
   28MOL   C156 8310   4.696   2.184   2.641 -0.1231  0.1323 -0.3872
   28MOL   C157 8311   4.635   2.048   2.672 -0.4578 -0.7974 -0.5193
   28MOL   C158 8312   4.539   2.594   2.633  0.2270 -0.2718 -0.2104
   28MOL   H159 8313   4.415   2.439   2.597 -0.5981  1.2503  2.0065
   28MOL   H160 8314   4.717   2.177   2.534  0.0633 -2.3719 -0.2233
   28MOL   H161 8315   4.793   2.204   2.686  0.2405 -1.0873 -0.6043
   28MOL   H162 8316   4.560   2.001   2.608  0.2013 -3.1908  0.3788
   28MOL   H163 8317   4.717   1.978   2.688  0.2150  0.2375  0.5979
   28MOL   H164 8318   4.595   2.049   2.774 -0.3063 -0.0695 -0.4690
   28MOL   H165 8319   4.552   2.557   2.734 -1.8379 -0.3963  0.0260
   28MOL   H166 8320   4.639   2.626   2.602  0.5114 -2.5984 -1.8386
   28MOL   C167 8321   4.441   2.716   2.629 -0.4079 -0.0893 -0.1735
   28MOL   O168 8322   4.447   2.788   2.508 -0.2711  0.0051 -0.3320
   28MOL   C169 8323   4.534   2.884   2.492 -0.1480 -0.5296 -0.5433
   28MOL   O170 8324   4.634   2.912   2.565  0.2318 -0.0161 -0.6668
   28MOL   C171 8325   4.501   2.967   2.376 -0.8162  0.0125 -0.7163
   28MOL   C172 8326   4.373   3.054   2.392 -0.1832  0.0544 -0.4925
   28MOL   C173 8327   4.303   2.689   2.683 -0.1444 -0.0075  0.0568
   28MOL   H174 8328   4.480   2.791   2.698  1.3456  0.3744 -1.6229
   28MOL   H175 8329   4.585   3.035   2.363 -0.3181 -0.0275  2.0308
   28MOL   H176 8330   4.493   2.898   2.292 -0.0005 -0.4519 -0.4179
   28MOL   H177 8331   4.280   2.999   2.391 -1.4923  2.2270 -1.5778
   28MOL   H178 8332   4.375   3.123   2.476  4.0481 -0.4533 -0.0270
   28MOL   H179 8333   4.369   3.118   2.304 -0.0327 -0.9312 -1.2263
   28MOL   H180 8334   4.255   2.782   2.714 -1.6080 -1.2068  1.4621
   28MOL   H181 8335   4.244   2.643   2.603  1.3494 -0.5311 -0.7677
   28MOL   C182 8336   4.294   2.598   2.803 -0.7192 -0.2971 -0.4994
   28MOL   O183 8337   4.365   2.654   2.910 -0.7364 -0.4834  0.6649
   28MOL   C184 8338   4.423   2.581   3.003  0.9069  0.2645  0.8891
   28MOL   O185 8339   4.387   2.464   3.036  0.2827  0.2504  0.4287
   28MOL   C186 8340   4.522   2.668   3.080 -0.1167  0.2183  0.3963
   28MOL   C187 8341   4.639   2.585   3.152  0.6687 -0.6521  0.1438
   28MOL   C188 8342   4.147   2.586   2.855 -0.5291  0.4451 -0.2998
   28MOL   H189 8343   4.336   2.499   2.790  0.5698  0.1994 -0.1989
   28MOL   H190 8344   4.556   2.757   3.026  2.3172  0.0649  1.5618
   28MOL   H191 8345   4.473   2.715   3.165 -1.4913  2.2708 -1.4791
   28MOL   H192 8346   4.611   2.502   3.217 -1.1795  0.1866  0.4516
   28MOL   H193 8347   4.716   2.546   3.086 -1.6257  0.3836 -3.2742
   28MOL   H194 8348   4.693   2.651   3.220  1.6805 -0.4182 -0.8625
   28MOL   H195 8349   4.135   2.538   2.953 -1.2849 -2.1520 -1.6089
   28MOL   H196 8350   4.114   2.690   2.863 -0.2133  0.7207 -2.4255
   28MOL   C197 8351   4.049   2.508   2.758 -0.0823 -0.2668 -0.4172
   28MOL   O198 8352   4.083   2.373   2.792 -0.4096  0.7454 -0.0036
   28MOL   C199 8353   4.144   2.292   2.700 -0.3019  0.0974  0.0923
   28MOL   O200 8354   4.165   2.327   2.587  0.1697 -1.1811 -0.3640
   28MOL   C201 8355   4.203   2.163   2.754 -0.4268  0.3674  0.8496
   28MOL   C202 8356   4.271   2.086   2.636  0.4580  0.0400 -0.2147
   28MOL   C203 8357   3.903   2.541   2.772 -0.3637 -0.4159  0.5903
   28MOL   H204 8358   4.058   2.532   2.653  1.1489  2.0208  0.1722
   28MOL   H205 8359   4.280   2.189   2.827  0.9210  1.1183 -0.8060
   28MOL   H206 8360   4.122   2.108   2.801 -0.6463  0.0648  0.1128
   28MOL   H207 8361   4.305   1.985   2.659 -0.3811  0.1788  1.8265
   28MOL   H208 8362   4.210   2.082   2.546 -2.5693 -0.1367  1.7667
   28MOL   H209 8363   4.366   2.132   2.608  0.7406 -0.0934  0.5014
   28MOL   H210 8364   3.887   2.649   2.777  2.4705  0.1152 -0.7874
   28MOL   H211 8365   3.848   2.519   2.680  1.0463  1.1092 -0.6422
   28MOL   C212 8366   3.827   2.475   2.899  0.6663  0.6654 -0.0764
   28MOL   O213 8367   3.800   2.575   2.994 -0.0587 -0.0637 -0.7292
   28MOL   C214 8368   3.830   2.557   3.122 -0.0127 -0.3111 -0.6209
   28MOL   O215 8369   3.883   2.456   3.167  0.0562 -0.8219  0.4990
   28MOL   C216 8370   3.820   2.690   3.204 -0.1472 -0.0577  0.3183
   28MOL   C217 8371   3.828   2.670   3.354 -0.3741  0.5386  0.2981
   28MOL   C218 8372   3.703   2.400   2.865  0.0571 -0.6259 -0.3385
   28MOL   H219 8373   3.898   2.406   2.942 -0.6102 -1.0502 -0.6670
   28MOL   H220 8374   3.901   2.757   3.176  0.4887 -0.4278  1.2233
   28MOL   H221 8375   3.723   2.736   3.187 -0.7397 -1.0627  0.8924
   28MOL   H222 8376   3.933   2.646   3.369 -0.1133  0.6640 -1.1932
   28MOL   H223 8377   3.786   2.758   3.404 -2.4659 -0.2803  0.0603
   28MOL   H224 8378   3.753   2.601   3.392 -1.4434  1.5094 -0.0150
   28MOL   H225 8379   3.638   2.382   2.951  0.4379 -4.6153 -0.8237
   28MOL   H226 8380   3.655   2.465   2.792  2.2915  1.0683 -0.3284
   28MOL   C227 8381   3.723   2.262   2.812  0.3670 -0.5204  0.3715
   28MOL   O228 8382   3.793   2.258   2.687 -0.3291 -0.3510 -1.0221
   28MOL   C229 8383   3.737   2.204   2.580 -0.6782  0.7052  0.0613
   28MOL   O230 8384   3.630   2.143   2.589  0.2493 -0.3511  0.4671
   28MOL   C231 8385   3.815   2.232   2.456 -0.4810 -0.4225  0.2683
   28MOL   C232 8386   3.923   2.117   2.416 -0.2705 -0.6009  0.1280
   28MOL   C233 8387   3.780   2.161   2.917  0.0537  1.3194  0.7048
   28MOL   H234 8388   3.620   2.227   2.807 -0.1719  0.8624  1.6092
   28MOL   H235 8389   3.740   2.257   2.380  2.5473  0.9118 -2.4016
   28MOL   H236 8390   3.876   2.321   2.470 -0.1937 -0.7143  0.8889
   28MOL   H237 8391   3.864   2.032   2.381  2.9460 -2.2252 -1.5774
   28MOL   H238 8392   3.999   2.144   2.342  0.0506 -2.1176 -0.0987
   28MOL   H239 8393   3.984   2.094   2.503  0.0373 -2.5215 -0.5674
   28MOL   H240 8394   3.886   2.184   2.913 -0.0486  1.4376 -2.4228
   28MOL   H241 8395   3.756   2.166   3.023  0.9002  0.4368  0.9412
   28MOL   C242 8396   3.767   2.013   2.873 -0.9866 -0.1405 -0.4089
   28MOL   O243 8397   3.857   1.940   2.963 -0.1766 -0.3671 -0.3001
   28MOL   C244 8398   3.969   1.882   2.914 -0.4630  0.0812  0.4453
   28MOL   O245 8399   4.010   1.896   2.803  0.3740 -0.2043 -0.1680
   28MOL   C246 8400   4.049   1.794   3.016  0.2524  0.5541  0.3268
   28MOL   C247 8401   3.969   1.680   3.070  0.3284 -0.5339  0.4478
   28MOL   C248 8402   3.631   1.944   2.897  0.0261 -0.1136 -1.7131
   28MOL   H249 8403   3.794   2.001   2.768 -0.3298 -0.6879 -0.1893
   28MOL   H250 8404   4.138   1.762   2.962  0.1861  0.8525  0.0337
   28MOL   H251 8405   4.085   1.857   3.097  1.8492 -0.6033  0.5377
   28MOL   H252 8406   3.954   1.692   3.177 -0.1941  1.0088  0.2192
   28MOL   H253 8407   3.865   1.675   3.037  0.6706 -1.8443 -0.4525
   28MOL   H254 8408   4.009   1.581   3.050  1.2587 -0.3188  1.2267
   28MOL   H255 8409   3.601   1.965   3.000  0.3905 -0.3135 -1.5631
   28MOL   H256 8410   3.561   1.999   2.835 -0.4274  0.6131 -0.5762
   28MOL   C257 8411   3.603   1.795   2.856 -0.1220 -0.3017 -0.1740
   28MOL   O258 8412   3.470   1.755   2.891  0.2918 -0.2307  0.4748
   28MOL   C259 8413   3.443   1.684   2.997 -0.3817  0.3123  1.2754
   28MOL   O260 8414   3.508   1.647   3.096 -0.3820  0.4430  0.1836
   28MOL   C261 8415   3.291   1.642   2.978 -0.2330  0.1622  0.1497
   28MOL   C262 8416   3.268   1.529   2.874 -0.0490  0.5917 -0.5827
   28MOL   C263 8417   3.620   1.770   2.702 -0.8686 -0.9853  0.1225
   28MOL   H264 8418   3.668   1.723   2.906 -1.5263 -1.5774 -0.1378
   28MOL   H265 8419   3.250   1.617   3.076 -1.2317  0.5489 -0.1691
   28MOL   H266 8420   3.223   1.725   2.960 -1.2496 -0.6940  0.0273
   28MOL   H267 8421   3.292   1.561   2.772  0.4812 -0.3115 -0.7508
   28MOL   H268 8422   3.342   1.449   2.881 -1.2005 -0.3355  1.4536
   28MOL   H269 8423   3.165   1.494   2.871  0.7236 -1.7084 -1.2588
   28MOL   H270 8424   3.522   1.781   2.657 -0.1347  1.4371 -0.9542
   28MOL   H271 8425   3.689   1.842   2.658 -1.1099 -1.4118 -0.9703
   28MOL   C272 8426   3.683   1.633   2.662 -0.3489  0.0092 -0.1524
   28MOL   O273 8427   3.809   1.606   2.727 -0.0850 -0.1602 -0.5168
   28MOL   C274 8428   3.915   1.565   2.658 -0.2715 -1.2947 -0.4102
   28MOL   O275 8429   3.925   1.562   2.538 -0.4244  0.1384  0.3486
   28MOL   C276 8430   4.030   1.525   2.746  0.4672 -0.1591  0.4573
   28MOL   C277 8431   4.002   1.389   2.824 -0.0277 -0.7574  0.6134
   28MOL   C278 8432   3.602   1.506   2.701 -0.7516 -0.0842 -0.3508
   28MOL   H279 8433   3.692   1.636   2.554 -1.4190 -0.2461 -0.2579
   28MOL   H280 8434   4.114   1.521   2.677  0.3217 -2.0569  0.3701
   28MOL   H281 8435   4.043   1.614   2.807 -0.6881  2.2493 -2.6991
   28MOL   H282 8436   3.901   1.378   2.862 -0.2601  1.8142  0.7785
   28MOL   H283 8437   4.015   1.298   2.764 -0.3930  0.8742 -2.0138
   28MOL   H284 8438   4.078   1.376   2.902  1.3737 -2.8115 -1.0316
   28MOL   H285 8439   3.601   1.492   2.809 -0.0215 -4.9487 -0.8230
   28MOL   H286 8440   3.499   1.523   2.671 -1.4538 -2.0529  0.8348
   28MOL   C287 8441   3.658   1.369   2.649  0.0722 -0.5275  0.2959
   28MOL   O288 8442   3.571   1.264   2.695  0.7809  0.9024 -0.4510
   28MOL   C289 8443   3.637   1.150   2.748 -0.6328 -0.0468  0.1279
   28MOL   O290 8444   3.757   1.139   2.760  0.1010  0.1781  0.4642
   28MOL   C291 8445   3.546   1.031   2.782 -0.9888 -1.3392  0.2483
   28MOL   C292 8446   3.569   0.915   2.688 -0.0496 -0.0357  0.2356
   28MOL   C293 8447   3.660   1.354   2.496  0.1523 -0.4234  0.1958
   28MOL   H294 8448   3.761   1.359   2.684  0.4100  0.3949 -0.4025
   28MOL   H295 8449   3.547   1.012   2.889 -0.9765 -1.4971  0.2207
   28MOL   H296 8450   3.444   1.069   2.775 -0.3300  1.0490  2.7835
   28MOL   H297 8451   3.652   0.936   2.620 -1.0666  2.1053 -0.4069
   28MOL   H298 8452   3.603   0.835   2.753  1.9078  0.4834 -0.1047
   28MOL   H299 8453   3.479   0.895   2.630  0.9498  3.4599 -2.7683
   28MOL   H300 8454   3.560   1.330   2.460  0.1588  0.4242 -0.3785
   28MOL   H301 8455   3.688   1.442   2.438 -0.2321 -1.0881 -1.0102
   28MOL   H302 8456   3.726   1.272   2.468  0.5828 -0.3732  1.0274
   29MOL     C1 8457   3.314   7.559   6.450 -0.3258 -0.2913 -0.3725
   29MOL     O2 8458   3.214   7.554   6.352  0.4154  0.2890  0.4270
   29MOL     C3 8459   3.092   7.501   6.377  0.4278 -0.2140  0.2854
   29MOL     O4 8460   3.047   7.471   6.490 -0.4935  0.1900  0.4172
   29MOL     C5 8461   3.018   7.474   6.251 -0.0147  0.2059  0.1438
   29MOL     C6 8462   3.075   7.348   6.181 -0.5478 -0.0595 -0.0050
   29MOL     C7 8463   3.381   7.426   6.479 -0.0645  0.1054  0.8020
   29MOL     H8 8464   3.273   7.595   6.544 -0.5491 -0.5595 -0.3647
   29MOL     H9 8465   2.911   7.472   6.272 -0.3827 -0.2533 -1.6901
   29MOL    H10 8466   3.036   7.562   6.188  0.6376  0.2779  0.4251
   29MOL    H11 8467   3.183   7.343   6.166 -0.1393 -0.4418  2.7602
   29MOL    H12 8468   3.059   7.266   6.251 -1.8404  2.2264  2.4685
   29MOL    H13 8469   3.036   7.323   6.083 -0.0226 -0.0366 -0.2208
   29MOL    H14 8470   3.327   7.378   6.561  1.0469  0.5734  1.8265
   29MOL    H15 8471   3.354   7.364   6.393  1.7320  0.8553 -0.3297
   29MOL    H16 8472   3.386   7.638   6.427 -1.4778  0.4156 -1.6099
   29MOL    C17 8473   3.532   7.420   6.509  0.0835  0.0171  0.7213
   29MOL    O18 8474   3.553   7.455   6.644  0.0928 -0.1420  0.4036
   29MOL    C19 8475   3.585   7.583   6.672 -1.2512  0.1579  0.9277
   29MOL    O20 8476   3.573   7.675   6.587 -0.3814  0.0233  0.4611
   29MOL    C21 8477   3.650   7.609   6.808 -0.0705  0.4094  0.0823
   29MOL    C22 8478   3.777   7.531   6.830 -0.8624 -0.3455 -0.4406
   29MOL    C23 8479   3.597   7.274   6.496 -0.0372  0.5896  0.6755
   29MOL    H24 8480   3.575   7.487   6.434  0.3718 -0.1689  0.7188
   29MOL    H25 8481   3.675   7.714   6.823  0.2250  0.4819 -0.8738
   29MOL    H26 8482   3.570   7.581   6.876  1.1084 -3.1086  0.1083
   29MOL    H27 8483   3.827   7.531   6.926  1.5910  0.7701 -1.6456
   29MOL    H28 8484   3.780   7.427   6.797 -0.4999 -0.5230  0.1549
   29MOL    H29 8485   3.840   7.601   6.774  0.3646 -1.9525 -1.1181
   29MOL    H30 8486   3.692   7.266   6.549  0.8223  0.2685 -0.8602
   29MOL    H31 8487   3.535   7.207   6.555 -3.0149  1.4258 -1.3878
   29MOL    C32 8488   3.618   7.210   6.355 -0.1825 -0.3417  0.7599
   29MOL    O33 8489   3.693   7.306   6.282 -0.8462 -0.9977  0.1270
   29MOL    C34 8490   3.662   7.336   6.158  0.5154 -0.0288  0.7050
   29MOL    O35 8491   3.583   7.269   6.089  0.4488  0.5486  0.6231
   29MOL    C36 8492   3.711   7.467   6.100  0.4979 -0.9318  0.1289
   29MOL    C37 8493   3.697   7.576   6.202 -0.1961  0.0239 -0.2217
   29MOL    C38 8494   3.692   7.075   6.364  0.2053  0.5620 -0.3525
   29MOL    H39 8495   3.521   7.190   6.310 -0.2002  1.3577 -0.0119
   29MOL    H40 8496   3.818   7.465   6.080  0.3285 -0.2563 -0.8820
   29MOL    H41 8497   3.653   7.498   6.013  1.6964  0.5521 -0.1850
   29MOL    H42 8498   3.712   7.672   6.151 -2.1251  0.1070 -0.6758
   29MOL    H43 8499   3.601   7.569   6.253 -0.9547  1.4250 -1.4079
   29MOL    H44 8500   3.772   7.562   6.280 -1.8543 -0.3030  1.3556
   29MOL    H45 8501   3.757   7.061   6.277 -1.6614  2.4566 -2.1191
   29MOL    H46 8502   3.757   7.072   6.451  0.3457  0.1896 -0.4673
   29MOL    C47 8503   3.596   6.950   6.395 -0.2510  0.3639  0.3294
   29MOL    O48 8504   3.507   6.933   6.285 -0.1776  0.1390  0.3163
   29MOL    C49 8505   3.387   6.861   6.304  0.5833 -0.2927  0.5596
   29MOL    O50 8506   3.353   6.796   6.405  0.2744 -0.1363  0.3143
   29MOL    C51 8507   3.294   6.869   6.176 -0.6391  0.4482 -0.0512
   29MOL    C52 8508   3.266   7.018   6.132  0.4691  0.8777  0.4887
   29MOL    C53 8509   3.680   6.819   6.423 -0.1558 -0.0572  0.3118
   29MOL    H54 8510   3.536   6.977   6.482 -1.5999 -2.8234  0.4551
   29MOL    H55 8511   3.348   6.807   6.104 -0.3339  1.1705 -0.4453
   29MOL    H56 8512   3.201   6.820   6.205  0.6396 -2.1399 -0.1553
   29MOL    H57 8513   3.178   7.018   6.069 -0.0620  0.3000  1.2136
   29MOL    H58 8514   3.254   7.091   6.213 -0.3068  2.1216 -0.7391
   29MOL    H59 8515   3.348   7.057   6.072  2.3224 -1.1180  1.6814
   29MOL    H60 8516   3.625   6.725   6.421 -1.7038  0.8218  0.3509
   29MOL    H61 8517   3.753   6.804   6.344  0.8467 -0.3734  1.2730
   29MOL    C62 8518   3.762   6.816   6.552  0.4391  0.1434  0.6146
   29MOL    O63 8519   3.668   6.821   6.657  0.1864  0.2886 -0.1984
   29MOL    C64 8520   3.650   6.935   6.731  0.5028  0.0940 -1.2521
   29MOL    O65 8521   3.717   7.035   6.728  0.4988  0.1459 -0.2744
   29MOL    C66 8522   3.530   6.916   6.827 -0.1274  0.6638 -0.7186
   29MOL    C67 8523   3.504   7.047   6.902  0.3709  0.0249 -0.7763
   29MOL    C68 8524   3.858   6.695   6.566  1.1903  0.3954 -0.2542
   29MOL    H69 8525   3.827   6.903   6.553  0.5309  0.1129 -1.1890
   29MOL    H70 8526   3.449   6.870   6.771  1.4755 -2.0534 -0.8838
   29MOL    H71 8527   3.555   6.841   6.902  0.1352  0.2570 -1.2060
   29MOL    H72 8528   3.439   7.013   6.983  2.2085 -1.0246  0.2818
   29MOL    H73 8529   3.597   7.085   6.942  0.7933 -0.2227 -1.5079
   29MOL    H74 8530   3.470   7.119   6.827  2.7893  2.6313  0.5504
   29MOL    H75 8531   3.806   6.599   6.562 -1.1583  1.5711  1.1788
   29MOL    H76 8532   3.921   6.700   6.476  1.2135  0.8776 -0.2099
   29MOL    C77 8533   3.952   6.703   6.694  0.1712 -0.2096 -0.1204
   29MOL    O78 8534   4.017   6.584   6.725  0.4474 -0.2837  0.3039
   29MOL    C79 8535   3.994   6.504   6.837 -0.0079  0.0301  0.2379
   29MOL    O80 8536   3.917   6.535   6.926 -0.6674  0.1219  0.3821
   29MOL    C81 8537   4.059   6.364   6.837 -0.1514  0.1192 -0.6285
   29MOL    C82 8538   3.995   6.277   6.723  0.1954 -0.4829  0.3697
   29MOL    C83 8539   4.049   6.825   6.695 -0.2891 -0.1386  0.1828
   29MOL    H84 8540   3.874   6.731   6.764 -0.2270  0.8143 -0.9614
   29MOL    H85 8541   4.164   6.387   6.817 -0.3708 -0.0416 -2.0718
   29MOL    H86 8542   4.062   6.306   6.929  1.8932 -0.1910 -0.8514
   29MOL    H87 8543   3.915   6.216   6.762 -0.1940  1.5497  2.8945
   29MOL    H88 8544   3.939   6.345   6.659 -0.1799 -0.3931  0.7861
   29MOL    H89 8545   4.060   6.225   6.653  1.6352  0.4457  0.9843
   29MOL    H90 8546   4.129   6.804   6.624 -1.8836 -1.1627 -1.3455
   29MOL    H91 8547   3.997   6.916   6.666 -0.8622 -1.0792 -1.7762
   29MOL    C92 8548   4.116   6.855   6.827 -0.0483  0.5889 -0.4469
   29MOL    O93 8549   4.175   6.983   6.810  0.4911  0.2249 -0.1610
   29MOL    C94 8550   4.307   7.000   6.819  0.1462  0.6241 -0.2921
   29MOL    O95 8551   4.391   6.912   6.851 -0.0656 -0.2937  0.6837
   29MOL    C96 8552   4.349   7.136   6.776  0.5750 -0.1030 -0.2614
   29MOL    C97 8553   4.255   7.198   6.670  0.6343 -0.4977  0.2673
   29MOL    C98 8554   4.009   6.872   6.938  0.5723  0.3887 -0.0901
   29MOL    H99 8555   4.188   6.777   6.854 -1.8157 -1.1674 -0.6805
   29MOL   H100 8556   4.339   7.192   6.869 -1.5259  0.4372 -0.7758
   29MOL   H101 8557   4.454   7.141   6.748  0.6324 -1.2765 -0.2545
   29MOL   H102 8558   4.287   7.299   6.649  4.2044 -1.7249 -0.5454
   29MOL   H103 8559   4.256   7.135   6.581  2.7251  0.7384 -0.6132
   29MOL   H104 8560   4.155   7.209   6.713  0.4279  0.1620 -0.3877
   29MOL   H105 8561   3.927   6.928   6.893 -1.2908 -1.1950  1.2678
   29MOL   H106 8562   3.969   6.779   6.977  0.6923  0.6273  0.6003
   29MOL   C107 8563   4.048   6.958   7.056 -0.4005  0.2122  0.4374
   29MOL   O108 8564   3.941   6.972   7.147 -0.1138  0.0061  0.8430
   29MOL   C109 8565   3.856   7.083   7.137  0.0280  0.1474  0.3378
   29MOL   O110 8566   3.863   7.168   7.049 -0.4432  0.4974  0.0619
   29MOL   C111 8567   3.735   7.066   7.228 -0.3992  0.4586 -0.0366
   29MOL   C112 8568   3.778   7.000   7.364  0.7337 -0.3229  0.2302
   29MOL   C113 8569   4.167   6.897   7.132  0.5844  0.2978  0.2964
   29MOL   H114 8570   4.074   7.058   7.022 -0.7158  0.1081 -0.1144
   29MOL   H115 8571   3.685   7.159   7.256 -0.3523  0.4360  0.1223
   29MOL   H116 8572   3.651   7.014   7.182 -0.1038  0.5298 -0.6683
   29MOL   H117 8573   3.803   6.895   7.349 -2.0587 -1.2666  1.7631
   29MOL   H118 8574   3.856   7.057   7.414 -0.9212  2.6353 -0.4201
   29MOL   H119 8575   3.688   7.005   7.426  1.2428 -0.2413  0.9702
   29MOL   H120 8576   4.259   6.898   7.073  1.2986  0.8236  1.4123
   29MOL   H121 8577   4.188   6.962   7.217 -0.6965 -1.0651  1.6839
   29MOL   C122 8578   4.147   6.753   7.184 -0.1624 -0.1494 -0.1114
   29MOL   O123 8579   4.278   6.709   7.221  0.4866  0.0131  0.3461
   29MOL   C124 8580   4.344   6.634   7.130 -0.4857 -0.5246 -0.4782
   29MOL   O125 8581   4.302   6.580   7.024 -0.4010 -0.3467  0.1465
   29MOL   C126 8582   4.491   6.625   7.170 -0.3408 -0.5412  0.6824
   29MOL   C127 8583   4.573   6.684   7.058 -0.0362 -0.2651 -0.2174
   29MOL   C128 8584   4.042   6.733   7.299 -0.5630  0.7670 -0.1885
   29MOL   H129 8585   4.103   6.691   7.106  2.3536 -0.6656 -1.1403
   29MOL   H130 8586   4.499   6.683   7.262  0.2362  0.6647 -0.1325
   29MOL   H131 8587   4.516   6.522   7.195  3.6030  0.2575  0.3315
   29MOL   H132 8588   4.594   6.606   6.985 -1.3362  0.4658 -1.4104
   29MOL   H133 8589   4.529   6.770   7.008  1.0141 -0.6627 -1.8813
   29MOL   H134 8590   4.666   6.725   7.097 -0.3884  0.5094 -0.1728
   29MOL   H135 8591   4.071   6.796   7.383 -0.2507 -1.7539  1.6630
   29MOL   H136 8592   3.943   6.767   7.267 -1.0454  0.6064  1.0915
   29MOL   C137 8593   4.028   6.591   7.359  0.2771 -0.0949  0.6269
   29MOL   O138 8594   3.934   6.585   7.465 -0.3257 -0.2484  0.1077
   29MOL   C139 8595   3.978   6.556   7.587 -1.4715 -0.1695 -0.2896
   29MOL   O140 8596   4.097   6.548   7.625  0.8847  0.2205  0.5321
   29MOL   C141 8597   3.862   6.571   7.687 -0.6233 -0.0231 -0.3096
   29MOL   C142 8598   3.818   6.724   7.704 -0.4386 -0.1675 -0.8024
   29MOL   C143 8599   3.990   6.488   7.255  0.0358 -0.0888  0.5089
   29MOL   H144 8600   4.125   6.562   7.399 -0.0650 -2.9769 -0.5235
   29MOL   H145 8601   3.773   6.519   7.654 -1.6901  0.5387  1.6308
   29MOL   H146 8602   3.877   6.526   7.785  1.4253  0.4874 -0.3651
   29MOL   H147 8603   3.815   6.770   7.605 -1.0088  2.9429  0.6131
   29MOL   H148 8604   3.728   6.741   7.762  0.8938  0.4715  1.1125
   29MOL   H149 8605   3.894   6.781   7.757  0.4546 -2.3343  0.3047
   29MOL   H150 8606   3.883   6.501   7.240  0.2917  0.6964 -0.6761
   29MOL   H151 8607   4.048   6.504   7.164 -0.1054 -0.2322  0.3958
   29MOL   C152 8608   3.991   6.350   7.314 -0.2327  0.4328  0.4563
   29MOL   O153 8609   3.947   6.267   7.209  0.3187  0.7743 -0.3131
   29MOL   C154 8610   3.820   6.223   7.216  0.5518 -0.9133  0.5092
   29MOL   O155 8611   3.738   6.238   7.304 -0.0190 -0.7004 -0.3421
   29MOL   C156 8612   3.783   6.145   7.093  0.0820 -0.0004 -0.3428
   29MOL   C157 8613   3.891   6.039   7.052 -0.8580  0.3106  0.2459
   29MOL   C158 8614   4.135   6.304   7.344 -0.2150  0.2780 -0.6506
   29MOL   H159 8615   3.915   6.348   7.391 -2.7666 -3.0652 -1.9666
   29MOL   H160 8616   3.687   6.094   7.102  0.4853 -0.7826 -0.4059
   29MOL   H161 8617   3.788   6.209   7.005 -0.0374  0.2178 -0.1915
   29MOL   H162 8618   3.866   5.955   6.987 -0.7891  0.8941 -0.5334
   29MOL   H163 8619   3.976   6.088   7.006 -0.6258 -1.5954 -1.4117
   29MOL   H164 8620   3.943   5.990   7.136  2.3451  1.5515 -0.9403
   29MOL   H165 8621   4.181   6.241   7.269 -0.1788  0.1553 -0.5254
   29MOL   H166 8622   4.206   6.387   7.336  0.6490 -0.2231  1.4194
   29MOL   C167 8623   4.152   6.224   7.476 -0.1450 -0.6582 -0.8932
   29MOL   O168 8624   4.119   6.087   7.466  0.1817  0.2142 -0.4433
   29MOL   C169 8625   4.004   6.036   7.522 -0.2556 -0.0590  0.0327
   29MOL   O170 8626   3.920   6.098   7.578 -0.1907 -0.0065  0.4553
   29MOL   C171 8627   3.985   5.888   7.495  1.3743  0.2445  0.3940
   29MOL   C172 8628   3.850   5.844   7.431 -0.3056 -0.1818 -0.2195
   29MOL   C173 8629   4.303   6.246   7.521  0.8456  0.8294  0.9928
   29MOL   H174 8630   4.099   6.272   7.559 -0.1340 -0.4738 -0.9919
   29MOL   H175 8631   4.061   5.856   7.424  1.2252  1.8064 -0.5000
   29MOL   H176 8632   3.998   5.834   7.589 -1.8354  0.5329  1.0843
   29MOL   H177 8633   3.764   5.895   7.475  0.1749  1.0182 -0.6448
   29MOL   H178 8634   3.848   5.871   7.326  0.3848 -0.7185 -0.3730
   29MOL   H179 8635   3.834   5.737   7.443 -5.5231  0.4287 -0.4559
   29MOL   H180 8636   4.369   6.190   7.456  1.0229  2.1418  0.0184
   29MOL   H181 8637   4.341   6.349   7.522  2.1874  0.3474  0.8378
   29MOL   C182 8638   4.332   6.186   7.663 -0.0149  0.5013  0.3775
   29MOL   O183 8639   4.467   6.182   7.689 -0.0818 -0.1681 -0.4370
   29MOL   C184 8640   4.555   6.074   7.648  0.1570 -0.8930  0.1272
   29MOL   O185 8641   4.527   6.001   7.557 -0.6098 -0.7360  0.6272
   29MOL   C186 8642   4.684   6.067   7.726 -0.5163  0.4453 -0.6369
   29MOL   C187 8643   4.722   5.920   7.776  0.2450  0.6009 -0.5097
   29MOL   C188 8644   4.266   6.259   7.789 -0.1248 -0.1701  0.4957
   29MOL   H189 8645   4.295   6.083   7.660 -0.1095  0.5087  1.2198
   29MOL   H190 8646   4.764   6.111   7.666  0.2284  0.2525  0.2082
   29MOL   H191 8647   4.696   6.126   7.817 -0.4889 -2.3249  1.2082
   29MOL   H192 8648   4.782   5.935   7.866  0.8723 -0.1682 -0.7946
   29MOL   H193 8649   4.643   5.850   7.805  2.0605 -1.8561 -1.2634
   29MOL   H194 8650   4.788   5.869   7.705 -0.5994  1.3434 -1.8308
   29MOL   H195 8651   4.323   6.352   7.793 -0.1879 -0.0223 -1.6663
   29MOL   H196 8652   4.164   6.289   7.764  0.2901  0.2086 -0.7567
   29MOL   C197 8653   4.271   6.176   7.918 -0.2966 -0.0314 -0.4897
   29MOL   O198 8654   4.399   6.176   0.038  0.6726 -0.6181 -0.1550
   29MOL   C199 8655   4.481   6.082   0.056  0.3934 -0.1871  0.3117
   29MOL   O200 8656   4.473   5.962   0.017 -0.7481 -0.7518 -0.6159
   29MOL   C201 8657   4.601   6.124   0.148  0.6257 -0.1827 -0.1390
   29MOL   C202 8658   4.670   6.006   0.219 -0.0834  0.5851 -0.2386
   29MOL   C203 8659   4.153   6.198   0.072 -0.2584 -0.5139 -0.0088
   29MOL   H204 8660   4.259   6.076   7.877 -1.1304  0.3055 -1.0751
   29MOL   H205 8661   4.667   6.173   0.077  1.6149 -0.5999  0.4826
   29MOL   H206 8662   4.566   6.198   0.219  0.2544  0.3139 -0.8363
   29MOL   H207 8663   4.705   5.928   0.152  1.4818 -0.0960  1.3245
   29MOL   H208 8664   4.747   6.039   0.289 -0.2088 -1.6038  0.9916
   29MOL   H209 8665   4.589   5.969   0.282  1.1610 -0.1652  0.9637
   29MOL   H210 8666   4.178   6.160   0.171 -0.7578  0.6881  0.5847
   29MOL   H211 8667   4.147   6.307   0.079 -0.9852 -0.6087  0.9700
   29MOL   C212 8668   4.016   6.154   0.026 -0.1613  1.0159  0.3295
   29MOL   O213 8669   4.011   6.010   0.049 -0.7098 -0.4932 -0.0862
   29MOL   C214 8670   4.048   5.911   7.905  0.1397  0.5968  0.0892
   29MOL   O215 8671   4.111   5.927   7.802 -0.0239  0.3254 -0.0871
   29MOL   C216 8672   4.016   5.772   0.011  0.2338  0.2681 -0.0135
   29MOL   C217 8673   3.970   5.677   7.841  0.2007 -0.0137  0.2629
   29MOL   C218 8674   3.905   6.237   0.083 -0.0698  0.2754  0.7683
   29MOL   H219 8675   4.018   6.166   7.862  1.3695 -0.1134  0.2130
   29MOL   H220 8676   4.107   5.725   0.048 -0.0698 -0.7296 -0.5089
   29MOL   H221 8677   3.936   5.779   0.084  1.0901 -0.5777  1.0264
   29MOL   H222 8678   3.867   5.709   7.824  0.1249 -0.3481  0.0917
   29MOL   H223 8679   4.044   5.687   7.762 -1.4587 -2.2000 -1.6359
   29MOL   H224 8680   3.960   5.573   7.874 -0.6148 -0.1663 -0.4476
   29MOL   H225 8681   3.906   6.214   0.189 -0.8643  0.5597  0.8359
   29MOL   H226 8682   3.927   6.343   0.073  0.2262  0.1613  0.1521
   29MOL   C227 8683   3.766   6.202   0.041  0.7273 -0.3189  0.0183
   29MOL   O228 8684   3.690   6.282   0.134  0.8123  0.5986  0.2043
   29MOL   C229 8685   3.590   6.224   0.199  0.0481  0.0704 -0.5715
   29MOL   O230 8686   3.536   6.119   0.166  1.1135  0.4062  0.1691
   29MOL   C231 8687   3.530   6.310   0.311  0.5206  0.8906  0.0949
   29MOL   C232 8688   3.616   6.327   0.434  0.0889  0.1803 -0.5777
   29MOL   C233 8689   3.731   6.221   7.839  0.4571  0.3079  0.1598
   29MOL   H234 8690   3.759   6.096   0.067  0.2490 -0.5854 -1.1444
   29MOL   H235 8691   3.514   6.408   0.265 -2.2180  1.3041  1.8181
   29MOL   H236 8692   3.435   6.268   0.345 -0.0245  2.4245  0.5452
   29MOL   H237 8693   3.573   6.410   0.491 -1.1470 -1.4222  0.9033
   29MOL   H238 8694   3.633   6.232   0.484 -0.4484 -0.2538 -1.2034
   29MOL   H239 8695   3.712   6.368   0.402 -0.3458  1.1068 -0.7170
   29MOL   H240 8696   3.744   6.326   7.814  0.8220  0.3292  0.4234
   29MOL   H241 8697   3.809   6.170   7.781  2.0093  3.1399 -0.3296
   29MOL   C242 8698   3.591   6.175   7.796 -0.4346  0.2801  0.5328
   29MOL   O243 8699   3.554   6.252   7.682 -0.4326  0.4234 -0.1197
   29MOL   C244 8700   3.507   6.377   7.685 -0.5980 -0.4144 -0.1302
   29MOL   O245 8701   3.513   6.450   7.785 -0.1730 -0.1459 -0.1327
   29MOL   C246 8702   3.456   6.416   7.544 -0.2956  0.3422 -0.1217
   29MOL   C247 8703   3.546   6.518   7.475 -0.2678  0.2926  0.0193
   29MOL   C248 8704   3.600   6.031   7.746 -0.0209 -0.4730  0.6169
   29MOL   H249 8705   3.516   6.185   7.875 -0.1300 -1.7349  1.1186
   29MOL   H250 8706   3.434   6.328   7.484  0.3693 -0.0084  0.1528
   29MOL   H251 8707   3.354   6.456   7.547  0.8199  3.5124 -1.6135
   29MOL   H252 8708   3.652   6.496   7.468 -0.1569  1.0595 -0.6919
   29MOL   H253 8709   3.515   6.532   7.371 -2.6506 -1.9395  0.3624
   29MOL   H254 8710   3.554   6.615   7.523 -0.6234  0.1257  0.4219
   29MOL   H255 8711   3.668   6.040   7.661 -1.1506  0.0931 -0.2539
   29MOL   H256 8712   3.640   5.972   7.828  1.7053 -1.2247 -0.7263
   29MOL   C257 8713   3.464   5.972   7.695  1.1277  0.0077  0.1456
   29MOL   O258 8714   3.473   5.833   7.658  0.0618 -0.3421 -0.2662
   29MOL   C259 8715   3.389   5.775   7.565  0.4779  0.6250  0.3194
   29MOL   O260 8716   3.292   5.827   7.503 -0.1969  0.1678 -0.5068
   29MOL   C261 8717   3.426   5.627   7.549 -0.4915 -0.0473  0.7599
   29MOL   C262 8718   3.555   5.600   7.478  0.2018  0.6038  0.3201
   29MOL   C263 8719   3.352   5.985   7.802  0.0025 -0.5377 -0.9882
   29MOL   H264 8720   3.442   6.016   7.598  0.7528 -3.4059 -1.3989
   29MOL   H265 8721   3.426   5.589   7.651  3.0459  0.7218  1.0994
   29MOL   H266 8722   3.342   5.574   7.503  1.0585 -1.8285 -0.0895
   29MOL   H267 8723   3.551   5.503   7.427 -1.9363  0.1592  1.2930
   29MOL   H268 8724   3.578   5.672   7.399 -1.8441 -0.3057 -1.1460
   29MOL   H269 8725   3.646   5.612   7.536  0.2041  2.2931 -0.0352
   29MOL   H270 8726   3.295   5.893   7.810 -2.1151  0.6968 -1.4661
   29MOL   H271 8727   3.392   5.990   7.903  2.2036 -2.8016 -1.6956
   29MOL   C272 8728   3.252   6.095   7.769  0.5576  0.5854  0.0285
   29MOL   O273 8729   3.181   6.053   7.646 -0.0544 -0.3538  0.0304
   29MOL   C274 8730   3.158   6.148   7.551  0.0637 -0.2347  0.1148
   29MOL   O275 8731   3.190   6.270   7.552  0.1905 -0.1410 -0.1095
   29MOL   C276 8732   3.084   6.093   7.432  0.3046  0.4034  0.5353
   29MOL   C277 8733   3.023   6.204   7.339  0.1820  0.3126 -0.5139
   29MOL   C278 8734   3.136   6.112   7.878  0.4569 -0.9802  0.2438
   29MOL   H279 8735   3.302   6.191   7.768  2.0852 -0.2004 -0.6553
   29MOL   H280 8736   3.151   6.027   7.378  0.3888  0.2406  0.8401
   29MOL   H281 8737   3.007   6.023   7.463  1.0537  0.0165  1.5389
   29MOL   H282 8738   2.981   6.292   7.387 -0.5170 -0.6255  0.6252
   29MOL   H283 8739   3.084   6.239   7.256 -1.0182  0.5443 -1.3167
   29MOL   H284 8740   2.935   6.162   7.288  0.1058  0.3310 -0.3985
   29MOL   H285 8741   3.083   6.194   7.831  0.4489 -0.3569  1.3265
   29MOL   H286 8742   3.072   6.027   7.904 -1.7809  1.5285  3.2868
   29MOL   C287 8743   3.198   6.167   0.063 -0.0629  0.3937  0.0300
   29MOL   O288 8744   3.110   6.264   0.116  0.5021 -0.4570  0.1684
   29MOL   C289 8745   3.160   6.382   0.151 -0.4776  0.2484  0.9746
   29MOL   O290 8746   3.278   6.414   0.134  0.2990 -0.3145  0.6821
   29MOL   C291 8747   3.068   6.487   0.214 -0.7452 -0.0137  0.2015
   29MOL   C292 8748   2.960   6.552   0.123 -0.0665  0.0308 -0.5895
   29MOL   C293 8749   3.229   6.059   0.174 -0.1719 -0.3831  0.7365
   29MOL   H294 8750   3.296   6.209   0.039  0.1951  0.3594  1.0165
   29MOL   H295 8751   3.023   6.450   0.306 -3.3399 -0.6251 -1.2457
   29MOL   H296 8752   3.134   6.573   0.228  1.0701 -1.3500  0.0159
   29MOL   H297 8753   2.942   6.653   0.159  0.6878 -0.5376  1.4438
   29MOL   H298 8754   3.003   6.568   0.024 -1.8397  1.2235 -1.2106
   29MOL   H299 8755   2.867   6.497   0.108  0.5741 -1.1602 -0.2599
   29MOL   H300 8756   3.306   6.096   0.242  0.3635 -1.2600  0.6087
   29MOL   H301 8757   3.142   6.029   0.232 -0.1333 -1.3329  0.3161
   29MOL   H302 8758   3.255   5.960   0.137 -0.6397 -0.3300  0.2558
   30MOL     C1 8759   0.442   6.541   0.095 -0.4337 -0.6759 -0.2618
   30MOL     O2 8760   0.549   6.497   0.005  0.3558 -0.3610 -0.5786
   30MOL     C3 8761   0.524   6.393   7.863  0.1459 -0.5352  0.3597
   30MOL     O4 8762   0.420   6.330   7.866 -0.0039  0.3448  0.3973
   30MOL     C5 8763   0.633   6.349   7.767  0.5124  0.3570 -0.3397
   30MOL     C6 8764   0.583   6.247   7.674 -0.2556 -0.0296  0.5455
   30MOL     C7 8765   0.488   6.671   0.164  0.5645  0.0513  0.3050
   30MOL     H8 8766   0.447   6.462   0.170 -1.4775 -0.2981  0.2285
   30MOL     H9 8767   0.683   6.429   7.712 -0.1486  0.5468 -0.6732
   30MOL    H10 8768   0.713   6.300   7.822 -0.0404  1.0126  1.0544
   30MOL    H11 8769   0.540   6.284   7.581 -0.1629 -3.4368 -0.9232
   30MOL    H12 8770   0.669   6.192   7.637  0.0801 -0.6576  2.2102
   30MOL    H13 8771   0.503   6.179   7.705  1.4102 -1.8433  0.9616
   30MOL    H14 8772   0.572   6.664   0.232  0.8639  2.4738  0.2323
   30MOL    H15 8773   0.522   6.739   0.085  2.3217 -3.1964 -1.8276
   30MOL    H16 8774   0.344   6.546   0.047 -0.5361  0.2556  0.0344
   30MOL    C17 8775   0.379   6.733   0.250  0.5232  0.1731  0.4246
   30MOL    O18 8776   0.277   6.789   0.166  0.7594  0.2993 -0.5459
   30MOL    C19 8777   0.230   6.919   0.177 -0.0047 -0.5475  0.2350
   30MOL    O20 8778   0.279   6.996   0.262 -0.1304  0.4401 -0.0214
   30MOL    C21 8779   0.118   6.949   0.083  0.7365  0.2131 -0.5789
   30MOL    C22 8780   0.011   7.019   0.158  0.3565 -0.1169  0.1496
   30MOL    C23 8781   0.304   6.650   0.355  0.1932 -0.4426 -0.1948
   30MOL    H24 8782   0.419   6.816   0.307 -0.2580  0.3803  0.6805
   30MOL    H25 8783   0.155   7.000   7.939 -0.7288 -0.3806 -1.5603
   30MOL    H26 8784   0.078   6.857   0.040  1.5178 -0.2291 -0.3585
   30MOL    H27 8785   7.891   6.949   0.211  0.2992  1.5706  2.3447
   30MOL    H28 8786   0.044   7.090   0.233  0.6694  0.9275 -0.9509
   30MOL    H29 8787   7.884   7.070   0.093  0.2667  1.0737  1.1664
   30MOL    H30 8788   0.219   6.706   0.394  1.1413  1.8171 -1.2449
   30MOL    H31 8789   0.256   6.570   0.299  1.3570 -0.5063 -1.1143
   30MOL    C32 8790   0.397   6.601   0.466 -0.7579 -0.2397  1.3624
   30MOL    O33 8791   0.406   6.711   0.558 -0.2338  0.1153 -0.2390
   30MOL    C34 8792   0.525   6.772   0.583 -0.1421  0.2393  0.1642
   30MOL    O35 8793   0.626   6.760   0.516 -0.1918 -0.2231 -0.3454
   30MOL    C36 8794   0.532   6.848   0.708 -0.0157 -0.4340  0.1068
   30MOL    C37 8795   0.450   6.976   0.677 -0.4015  0.3876  0.0480
   30MOL    C38 8796   0.328   6.478   0.548  0.0730  0.2426  0.7989
   30MOL    H39 8797   0.494   6.568   0.429 -0.6843 -0.3504  1.6545
   30MOL    H40 8798   0.480   6.799   0.790 -2.5362 -0.4826 -1.4898
   30MOL    H41 8799   0.634   6.869   0.741 -0.5992  1.2407  0.9134
   30MOL    H42 8800   0.481   7.020   0.582 -0.1332  1.6684  0.7140
   30MOL    H43 8801   0.344   6.953   0.667 -0.5473  0.5682  1.1479
   30MOL    H44 8802   0.460   7.054   0.752  1.7075  0.4246 -0.2238
   30MOL    H45 8803   0.258   6.523   0.618  1.8849  3.0822  0.8571
   30MOL    H46 8804   0.268   6.430   0.470  0.3927  1.0430  0.0543
   30MOL    C47 8805   0.426   6.389   0.622 -0.0363  0.5654  0.2238
   30MOL    O48 8806   0.498   6.464   0.723  0.3136 -0.3502 -0.1969
   30MOL    C49 8807   0.610   6.433   0.768  0.5584  0.3215 -0.5050
   30MOL    O50 8808   0.693   6.349   0.724 -0.1158 -0.1316 -0.1414
   30MOL    C51 8809   0.652   6.521   0.888 -0.2302  0.4086  0.1698
   30MOL    C52 8810   0.784   6.603   0.863 -0.1535  0.2189  0.1138
   30MOL    C53 8811   0.354   6.274   0.693  0.0667 -0.0178 -0.3065
   30MOL    H54 8812   0.502   6.350   0.554 -0.5810 -0.7960  0.3847
   30MOL    H55 8813   0.573   6.593   0.908  1.6160  2.6766 -0.4464
   30MOL    H56 8814   0.642   6.460   0.978 -0.4148 -0.5748 -0.5041
   30MOL    H57 8815   0.808   6.670   0.945 -0.2316  1.7298 -1.0767
   30MOL    H58 8816   0.866   6.535   0.841  1.3371  1.5966  1.3187
   30MOL    H59 8817   0.770   6.672   0.780  0.0684  2.0206  1.5554
   30MOL    H60 8818   0.418   6.211   0.755 -0.0936  0.8029  0.7065
   30MOL    H61 8819   0.272   6.321   0.748 -0.2149  0.2655 -0.9647
   30MOL    C62 8820   0.283   6.175   0.599 -0.3002 -0.2849  0.2234
   30MOL    O63 8821   0.383   6.116   0.505 -0.0204  0.2801  0.1665
   30MOL    C64 8822   0.373   6.144   0.369  0.2097 -0.4985  0.0716
   30MOL    O65 8823   0.303   6.235   0.320 -0.1347 -0.2788  0.8570
   30MOL    C66 8824   0.455   6.045   0.284 -0.3493  0.6216 -0.9898
   30MOL    C67 8825   0.506   6.095   0.145  0.6853 -0.2858 -0.8580
   30MOL    C68 8826   0.218   6.061   0.686  0.4133  0.0400 -0.3100
   30MOL    H69 8827   0.211   6.229   0.538  1.5721  2.3290  0.2506
   30MOL    H70 8828   0.546   6.022   0.339 -0.5102  0.4342 -0.7982
   30MOL    H71 8829   0.402   5.950   0.276 -1.3279  0.9399  1.2951
   30MOL    H72 8830   0.547   6.195   0.133 -3.2388  1.7015  1.4515
   30MOL    H73 8831   0.581   6.033   0.095  1.1613 -1.8087  1.6698
   30MOL    H74 8832   0.415   6.092   0.085 -0.5493 -0.5528  0.9750
   30MOL    H75 8833   0.217   5.977   0.617  0.9884 -1.1634  1.1175
   30MOL    H76 8834   0.282   6.041   0.772  0.9613  1.1576 -0.4500
   30MOL    C77 8835   0.079   6.108   0.736  0.0690  0.2560 -0.4047
   30MOL    O78 8836   7.936   6.075   0.631  0.2900  0.7444  0.2266
   30MOL    C79 8837   7.873   6.170   0.560 -0.3764  0.1908 -0.3195
   30MOL    O80 8838   7.882   6.292   0.577 -0.3203  0.2249  0.2423
   30MOL    C81 8839   7.784   6.100   0.456 -0.5674  0.2835  0.0599
   30MOL    C82 8840   7.693   6.206   0.390 -0.4150  0.3053  0.8269
   30MOL    C83 8841   0.049   6.044   0.870 -0.4143 -0.0423  0.4871
   30MOL    H84 8842   0.085   6.214   0.760 -1.2790  0.6521 -1.7011
   30MOL    H85 8843   7.857   6.070   0.381 -0.2891 -0.0574  0.4649
   30MOL    H86 8844   7.736   6.009   0.493  0.5600 -0.3024  0.0820
   30MOL    H87 8845   7.599   6.217   0.444  0.1790 -0.5551  2.0656
   30MOL    H88 8846   7.736   6.307   0.388  0.1716  0.0646  1.0596
   30MOL    H89 8847   7.669   6.180   0.287  1.1337  1.7298  0.0724
   30MOL    H90 8848   7.887   6.028   0.889  0.0337 -1.5945  1.8343
   30MOL    H91 8849   0.079   5.939   0.870 -0.2642 -0.0459  4.4354
   30MOL    C92 8850   0.103   6.114   1.002 -0.2832  0.0030 -0.1207
   30MOL    O93 8851   0.019   6.225   1.032  0.0062  0.2922 -0.3516
   30MOL    C94 8852   0.061   6.353   1.026 -0.2668 -1.1236 -0.4541
   30MOL    O95 8853   0.174   6.391   1.011 -0.2277 -0.2205  0.6980
   30MOL    C96 8854   7.897   6.449   1.042  0.1445  0.3397 -0.4750
   30MOL    C97 8855   7.935   6.586   1.084  0.5733 -0.4589 -0.3765
   30MOL    C98 8856   0.098   6.022   1.125  0.5653 -0.1198  0.5469
   30MOL    H99 8857   0.208   6.143   0.994 -0.0274  0.0512  2.8479
   30MOL   H100 8858   7.864   6.463   0.939  4.4356 -1.4091 -2.1835
   30MOL   H101 8859   7.815   6.417   1.106 -1.0702 -0.8152 -2.5494
   30MOL   H102 8860   0.054   6.631   1.007 -0.2768  0.8896 -0.3136
   30MOL   H103 8861   7.856   6.661   1.088  2.4708  1.5264  0.9712
   30MOL   H104 8862   0.043   6.587   1.179  0.3798  2.4220 -0.2372
   30MOL   H105 8863   7.937   6.002   1.142  0.1694  1.5259  0.1436
   30MOL   H106 8864   0.143   5.926   1.101  1.3144  0.5368 -0.7518
   30MOL   C107 8865   0.180   6.084   1.241  0.1212 -0.0530  0.5249
   30MOL   O108 8866   0.079   6.148   1.318 -0.7763  0.4456 -0.1857
   30MOL   C109 8867   0.112   6.269   1.379  0.3465  0.5047 -0.1437
   30MOL   O110 8868   0.224   6.316   1.378 -0.5889 -0.0094  0.6564
   30MOL   C111 8869   0.010   6.321   1.478 -0.8480  0.7273 -0.4214
   30MOL   C112 8870   7.814   6.327   1.421 -0.5460 -0.6319  0.4796
   30MOL   C113 8871   0.253   5.981   1.319 -0.0744  0.4605  0.3937
   30MOL   H114 8872   0.253   6.155   1.203 -0.8056  1.5483  1.7023
   30MOL   H115 8873   0.020   6.284   1.581  1.3690  1.2196 -0.4477
   30MOL   H116 8874   0.045   6.420   1.506 -0.6920 -0.0548  2.3415
   30MOL   H117 8875   7.796   6.249   1.347  0.2367 -0.7500  0.4147
   30MOL   H118 8876   7.736   6.310   1.496 -1.6987 -0.8378 -0.7510
   30MOL   H119 8877   7.790   6.419   1.369  0.9821  0.8376  2.3242
   30MOL   H120 8878   0.274   6.001   1.424 -0.4495  2.7576  0.0358
   30MOL   H121 8879   0.175   5.904   1.321 -1.3858  1.7803  1.1723
   30MOL   C122 8880   0.389   5.938   1.258 -0.1741 -0.5294 -0.2662
   30MOL   O123 8881   0.479   6.048   1.262 -0.0111  0.0449  0.1330
   30MOL   C124 8882   0.501   6.111   1.144 -0.2089  0.3004 -0.4676
   30MOL   O125 8883   0.462   6.074   1.033  0.2386  0.2783 -0.8417
   30MOL   C126 8884   0.590   6.234   1.153 -0.6151  0.0391  0.5516
   30MOL   C127 8885   0.645   6.272   1.295  0.2447  0.2173  0.1559
   30MOL   C128 8886   0.447   5.822   1.343  0.2282  0.5537 -0.1068
   30MOL   H129 8887   0.381   5.896   1.158  0.6719 -0.3611 -0.4074
   30MOL   H130 8888   0.674   6.203   1.091 -0.9135  0.3182  0.0084
   30MOL   H131 8889   0.535   6.315   1.106  0.5467  1.3908  1.4779
   30MOL   H132 8890   0.582   6.245   1.379 -0.1730  2.0697  0.4657
   30MOL   H133 8891   0.743   6.225   1.301 -0.2421 -0.6245  1.5999
   30MOL   H134 8892   0.656   6.380   1.306  0.3831  0.0588  1.5688
   30MOL   H135 8893   0.466   5.854   1.445 -1.1388 -1.3352  0.7734
   30MOL   H136 8894   0.367   5.748   1.351 -0.9700  1.9143  0.7456
   30MOL   C137 8895   0.575   5.753   1.284  0.4008 -0.3602 -0.4652
   30MOL   O138 8896   0.541   5.700   1.152 -0.2157  0.1712 -0.3094
   30MOL   C139 8897   0.606   5.591   1.115  0.1363  0.6595 -0.2829
   30MOL   O140 8898   0.712   5.558   1.170 -0.5163 -0.2055 -0.9810
   30MOL   C141 8899   0.532   5.513   1.008 -0.3176 -0.4418 -0.3951
   30MOL   C142 8900   0.545   5.354   1.023 -0.1244  0.4095  0.1064
   30MOL   C143 8901   0.702   5.841   1.282  0.1737 -0.2311 -0.8292
   30MOL   H144 8902   0.603   5.661   1.335 -0.3439  0.7274  1.9979
   30MOL   H145 8903   0.426   5.538   1.007 -0.1836  0.0970 -0.9917
   30MOL   H146 8904   0.563   5.537   0.907 -0.1795  0.1776 -0.2044
   30MOL   H147 8905   0.645   5.321   0.993  0.1464  1.0500  0.2978
   30MOL   H148 8906   0.513   5.322   1.122  0.8742 -0.6023  0.1164
   30MOL   H149 8907   0.473   5.307   0.957 -0.3953  0.6247  0.2515
   30MOL   H150 8908   0.782   5.780   1.243  0.4038 -2.1671  2.4918
   30MOL   H151 8909   0.686   5.931   1.222 -0.6122  0.9658  1.1004
   30MOL   C152 8910   0.745   5.890   1.421 -0.0698  0.4733 -0.2816
   30MOL   O153 8911   0.747   5.783   1.512  0.0316  0.4093  0.2465
   30MOL   C154 8912   0.701   5.791   1.643 -0.2617 -0.0884 -0.6904
   30MOL   O155 8913   0.629   5.878   1.691 -0.1689 -0.1875 -0.3944
   30MOL   C156 8914   0.744   5.668   1.725 -0.1693 -0.1984  0.3879
   30MOL   C157 8915   0.680   5.655   1.868  0.8090  0.0818 -0.0709
   30MOL   C158 8916   0.883   5.967   1.394  0.1375  0.1762 -0.3898
   30MOL   H159 8917   0.670   5.960   1.457  0.7099 -0.3931  3.1865
   30MOL   H160 8918   0.734   5.580   1.662 -0.8227  0.1203  0.0364
   30MOL   H161 8919   0.851   5.674   1.742 -0.2004  1.7670  0.0360
   30MOL   H162 8920   0.574   5.683   1.860  0.4189 -0.8476  1.5555
   30MOL   H163 8921   0.693   5.553   1.903  2.5426  0.4527  0.3940
   30MOL   H164 8922   0.738   5.716   1.937  1.5212  0.5072 -1.0356
   30MOL   H165 8923   0.954   5.887   1.372 -0.8416 -0.2679 -2.0461
   30MOL   H166 8924   0.884   6.029   1.305 -0.8993 -0.8578 -1.1440
   30MOL   C167 8925   0.942   6.048   1.518 -0.6106 -0.8840  0.0607
   30MOL   O168 8926   1.078   6.075   1.492  1.0395  0.7661 -0.0927
   30MOL   C169 8927   1.181   5.998   1.533  0.8449 -0.5072 -0.0869
   30MOL   O170 8928   1.171   5.904   1.616  0.2609 -0.3051 -0.5748
   30MOL   C171 8929   1.310   6.045   1.481  0.6565  0.6504 -0.0406
   30MOL   C172 8930   1.350   6.169   1.570 -0.1618  0.0840 -0.2871
   30MOL   C173 8931   0.876   6.184   1.544  0.1541  0.0288  0.2439
   30MOL   H174 8932   0.933   5.982   1.604  0.9177 -3.0623 -1.3968
   30MOL   H175 8933   1.385   5.966   1.490  1.0101  0.9373 -0.4238
   30MOL   H176 8934   1.299   6.070   1.376  1.4202 -1.2510 -0.6012
   30MOL   H177 8935   1.273   6.246   1.575 -1.4389 -1.2344  1.0915
   30MOL   H178 8936   1.358   6.138   1.674  2.2591  1.2384 -0.0930
   30MOL   H179 8937   1.448   6.206   1.537 -0.8833  1.6846 -0.7027
   30MOL   H180 8938   0.913   6.253   1.467 -2.2927  1.9729  0.7443
   30MOL   H181 8939   0.769   6.183   1.524  0.4744  0.8813 -1.5906
   30MOL   C182 8940   0.890   6.242   1.684  0.2342  0.6656  0.6977
   30MOL   O183 8941   0.806   6.355   1.698 -0.3493 -0.1100  0.0798
   30MOL   C184 8942   0.831   6.474   1.631 -0.1820 -0.1804 -0.3500
   30MOL   O185 8943   0.933   6.495   1.566 -0.1140  0.4414 -0.2682
   30MOL   C186 8944   0.711   6.563   1.619 -0.4988  0.2726 -0.1271
   30MOL   C187 8945   0.732   6.713   1.631 -0.0185 -0.2928 -0.2978
   30MOL   C188 8946   0.849   6.132   1.794  0.1746 -0.1916 -0.0421
   30MOL   H189 8947   0.992   6.270   1.711  0.4386 -0.1564  0.7759
   30MOL   H190 8948   0.662   6.540   1.524  0.9853  2.6055 -1.4850
   30MOL   H191 8949   0.645   6.519   1.694  1.6224 -0.1224  1.5612
   30MOL   H192 8950   0.838   6.737   1.643  0.6044 -2.2201 -1.7243
   30MOL   H193 8951   0.701   6.764   1.539  0.4930 -2.1042 -1.4984
   30MOL   H194 8952   0.671   6.760   1.708  1.6588  1.0867  0.2426
   30MOL   H195 8953   0.762   6.082   1.751 -0.0394  1.9240 -2.2051
   30MOL   H196 8954   0.928   6.065   1.827 -0.1139  0.2173  1.4874
   30MOL   C197 8955   0.787   6.183   1.924 -0.1108  0.0437  0.1426
   30MOL   O198 8956   0.704   6.073   1.974 -0.6131 -0.6986 -0.5483
   30MOL   C199 8957   0.598   6.099   2.045  0.0378 -0.1554 -0.7240
   30MOL   O200 8958   0.566   6.205   2.092  0.0506 -0.6271 -0.2482
   30MOL   C201 8959   0.521   5.971   2.094  0.8681 -0.5960  0.0321
   30MOL   C202 8960   0.596   5.886   2.195 -0.0351  0.2140  0.5405
   30MOL   C203 8961   0.894   6.217   2.042 -0.6869  1.0761  0.6244
   30MOL   H204 8962   0.726   6.273   1.911 -3.2549 -1.7449  1.9198
   30MOL   H205 8963   0.430   5.999   2.146  0.9592 -2.3676  1.1898
   30MOL   H206 8964   0.506   5.924   1.997 -3.1992 -1.0722  0.8215
   30MOL   H207 8965   0.696   5.853   2.166 -0.0949 -0.4930  1.1274
   30MOL   H208 8966   0.617   5.953   2.278  0.3957  0.4844  0.2175
   30MOL   H209 8967   0.539   5.801   2.230  0.4467  0.2284  1.3684
   30MOL   H210 8968   0.853   6.188   2.139 -1.5452  1.6215  0.4335
   30MOL   H211 8969   0.979   6.158   2.011 -0.2770  1.1836  1.5312
   30MOL   C212 8970   0.924   6.360   2.055 -0.0773  0.6484  0.4094
   30MOL   O213 8971   0.810   6.425   2.109 -0.9439 -0.0480 -0.2291
   30MOL   C214 8972   0.739   6.519   2.036 -0.0769  0.1625  0.5420
   30MOL   O215 8973   0.768   6.543   1.919 -0.1670  0.3159  0.3076
   30MOL   C216 8974   0.627   6.584   2.119 -0.0402 -0.6340 -0.6558
   30MOL   C217 8975   0.672   6.652   2.246 -0.4971 -0.2320 -0.1557
   30MOL   C218 8976   1.044   6.394   2.145  0.6117 -0.3591  0.5863
   30MOL   H219 8977   0.954   6.411   1.964  1.8467 -0.2952  0.4993
   30MOL   H220 8978   0.560   6.648   2.060 -0.4238  0.2459  0.7255
   30MOL   H221 8979   0.568   6.495   2.138 -1.2714  0.5118  1.0249
   30MOL   H222 8980   0.694   6.754   2.213 -0.3451  0.0211  0.7140
   30MOL   H223 8981   0.594   6.682   2.316 -0.8078 -0.8584 -0.2294
   30MOL   H224 8982   0.769   6.618   2.283 -1.1356 -1.5270  0.3422
   30MOL   H225 8983   1.043   6.496   2.183 -3.3342 -0.6015  1.3364
   30MOL   H226 8984   1.051   6.332   2.235  0.2340 -0.9991  0.1753
   30MOL   C227 8985   1.179   6.375   2.064 -0.2494 -0.2476  0.7717
   30MOL   O228 8986   1.199   6.480   1.965  0.4857 -0.0318  0.3208
   30MOL   C229 8987   1.201   6.449   1.831  0.3620  0.2378 -1.0530
   30MOL   O230 8988   1.186   6.337   1.784  0.3110  0.3782  0.3484
   30MOL   C231 8989   1.226   6.573   1.750  0.1914  0.3635 -0.7248
   30MOL   C232 8990   1.341   6.662   1.805 -0.5866 -0.0955  0.0202
   30MOL   C233 8991   1.301   6.383   2.156 -0.7353  0.2295 -0.3299
   30MOL   H234 8992   1.177   6.274   2.022  1.4070 -0.4255  1.0637
   30MOL   H235 8993   1.253   6.543   1.649  0.8549  2.2404 -1.1279
   30MOL   H236 8994   1.134   6.630   1.742  0.1235  0.1991 -1.1635
   30MOL   H237 8995   1.429   6.600   1.792 -2.0372 -2.2356  0.2610
   30MOL   H238 8996   1.353   6.747   1.738  1.5106 -1.6041 -1.5664
   30MOL   H239 8997   1.330   6.703   1.906 -2.4360 -3.1829  1.1444
   30MOL   H240 8998   1.389   6.386   2.091 -0.0417 -0.4216  0.5867
   30MOL   H241 8999   1.302   6.483   2.200 -1.5190  0.3400 -0.5467
   30MOL   C242 9000   1.322   6.266   2.250 -0.3954  0.6898  0.4686
   30MOL   O243 9001   1.373   6.162   2.164 -0.3369 -0.3168  0.2099
   30MOL   C244 9002   1.316   6.039   2.150  0.2380 -0.5897 -0.2504
   30MOL   O245 9003   1.209   5.997   2.192  0.0825 -0.2632 -0.1175
   30MOL   C246 9004   1.406   5.953   2.066 -0.9516  0.0608  0.5899
   30MOL   C247 9005   1.417   6.011   1.924  0.6181 -0.1326 -0.5066
   30MOL   C248 9006   1.429   6.289   2.356  0.2275 -0.2724  0.4393
   30MOL   H249 9007   1.231   6.229   2.296 -0.0909 -0.8943 -0.1609
   30MOL   H250 9008   1.504   5.937   2.112  1.4905  2.4433 -3.4505
   30MOL   H251 9009   1.358   5.855   2.065  2.4479 -1.6727  0.7578
   30MOL   H252 9010   1.445   5.929   1.859 -1.0751 -0.3254 -1.0227
   30MOL   H253 9011   1.317   6.042   1.894  0.3849  0.1462  0.5218
   30MOL   H254 9012   1.481   6.098   1.909 -0.8113  0.7466 -1.6892
   30MOL   H255 9013   1.432   6.202   2.422 -3.2152 -0.1201  0.8737
   30MOL   H256 9014   1.524   6.292   2.303  0.0537  0.0849  0.1465
   30MOL   C257 9015   1.411   6.407   2.453 -0.1584  0.0855  0.5115
   30MOL   O258 9016   1.306   6.385   2.550 -0.5915 -0.0226 -0.6165
   30MOL   C259 9017   1.201   6.445   2.537 -0.7772  0.8168 -0.1832
   30MOL   O260 9018   1.175   6.532   2.451  0.5978  0.3280 -0.3810
   30MOL   C261 9019   1.111   6.423   2.653 -0.1522  0.5784  0.3910
   30MOL   C262 9020   1.121   6.547   2.747  0.6745  0.4660 -0.2008
   30MOL   C263 9021   1.549   6.433   2.521 -0.0694  0.5435 -0.0745
   30MOL   H264 9022   1.382   6.497   2.398 -1.6337 -0.2413  0.7277
   30MOL   H265 9023   1.010   6.418   2.613 -0.2908  0.6064  0.7296
   30MOL   H266 9024   1.150   6.337   2.707  0.0782 -1.2116 -2.5579
   30MOL   H267 9025   1.211   6.606   2.725  0.1108  1.2669 -0.4016
   30MOL   H268 9026   1.037   6.615   2.737  0.0484 -0.1974  0.5139
   30MOL   H269 9027   1.136   6.513   2.849  1.1363  2.0146  0.2708
   30MOL   H270 9028   1.520   6.491   2.608  0.2368  0.2721  0.2097
   30MOL   H271 9029   1.579   6.336   2.561 -0.2036  0.7477  0.5226
   30MOL   C272 9030   1.643   6.510   2.419  0.5113 -0.2718  0.0306
   30MOL   O273 9031   1.586   6.639   2.415  0.2212  0.4471  0.3848
   30MOL   C274 9032   1.532   6.685   2.295  0.2619 -0.0127  0.2271
   30MOL   O275 9033   1.526   6.628   2.184  0.1960  0.5758 -0.3290
   30MOL   C276 9034   1.468   6.822   2.312 -0.1381 -0.2530 -0.5020
   30MOL   C277 9035   1.571   6.933   2.334  0.6120 -0.4585 -0.3502
   30MOL   C278 9036   1.788   6.525   2.476  0.7771  0.1563  0.3820
   30MOL   H279 9037   1.637   6.464   2.320  0.7838  0.1401 -0.1783
   30MOL   H280 9038   1.405   6.842   2.225 -0.6277 -0.8062 -0.2728
   30MOL   H281 9039   1.390   6.823   2.387 -1.9946  0.3463 -2.3894
   30MOL   H282 9040   1.524   7.031   2.349  1.9196  0.0926  0.2946
   30MOL   H283 9041   1.628   6.908   2.424 -1.9544  0.3281  1.5494
   30MOL   H284 9042   1.643   6.935   2.252 -0.2335 -0.7310 -1.1072
   30MOL   H285 9043   1.792   6.595   2.559  0.0310 -0.5701  1.0317
   30MOL   H286 9044   1.812   6.429   2.520 -0.9414 -1.4005 -1.9142
   30MOL   C287 9045   1.898   6.557   2.373  0.1135 -0.4639 -0.3519
   30MOL   O288 9046   1.863   6.661   2.284 -0.2400 -0.2720 -0.1400
   30MOL   C289 9047   1.936   6.691   2.178  0.0988  0.5066  0.4310
   30MOL   O290 9048   2.046   6.652   2.150  0.3401  0.6311  0.0875
   30MOL   C291 9049   1.861   6.798   2.090  0.2518 -0.4903  0.9010
   30MOL   C292 9050   1.842   6.755   1.943 -0.9284 -0.1085  0.6212
   30MOL   C293 9051   2.033   6.589   2.445  0.9881  0.7439 -0.3747
   30MOL   H294 9052   1.904   6.468   2.312 -0.7725 -0.4685 -0.4289
   30MOL   H295 9053   1.768   6.814   2.144  0.3936  0.7636  0.7917
   30MOL   H296 9054   1.915   6.892   2.099 -1.2488  0.5389 -0.6750
   30MOL   H297 9055   1.750   6.698   1.933  0.5288 -2.3915 -0.0185
   30MOL   H298 9056   1.842   6.837   1.871  1.0350 -0.9995 -0.4140
   30MOL   H299 9057   1.925   6.698   1.902 -1.4653 -1.0994  0.8926
   30MOL   H300 9058   2.123   6.569   2.386  1.4501 -1.1533  0.9321
   30MOL   H301 9059   2.040   6.693   2.477 -1.4256  0.9553 -0.4742
   30MOL   H302 9060   2.038   6.522   2.531  0.8762  0.1990 -0.7862
   31MOL     C1 9061   5.364   5.902   6.468  0.3211 -0.7524  0.8107
   31MOL     O2 9062   5.312   5.963   6.356  0.1044  0.3848 -0.1253
   31MOL     C3 9063   5.253   6.091   6.356 -0.3462  0.3972  0.3223
   31MOL     O4 9064   5.223   6.149   6.462 -0.3892  0.1090 -0.1041
   31MOL     C5 9065   5.241   6.148   6.219  0.2132  0.5334  0.1583
   31MOL     C6 9066   5.372   6.156   6.140 -0.8033  0.5280 -0.6294
   31MOL     C7 9067   5.366   5.754   6.452 -0.4818 -0.0027  0.3253
   31MOL     H8 9068   5.297   5.922   6.552 -1.0423  2.3912 -0.9561
   31MOL     H9 9069   5.165   6.087   6.170 -0.7240  1.8756 -0.0887
   31MOL    H10 9070   5.198   6.249   6.224 -2.3043 -0.5286  0.9758
   31MOL    H11 9071   5.362   6.204   6.043 -1.3233  1.8694  0.0645
   31MOL    H12 9072   5.450   6.212   6.192  0.4576 -2.2597  0.5661
   31MOL    H13 9073   5.422   6.060   6.148 -1.2775  0.3438  0.3101
   31MOL    H14 9074   5.260   5.735   6.436 -0.5066  1.8572 -2.0213
   31MOL    H15 9075   5.415   5.723   6.360 -0.5577 -0.8907  0.5828
   31MOL    H16 9076   5.467   5.936   6.483  0.3608 -0.8418  0.7373
   31MOL    C17 9077   5.398   5.667   6.568  0.6462 -0.2933  0.1347
   31MOL    O18 9078   5.541   5.632   6.561  0.0852  0.7690  0.3578
   31MOL    C19 9079   5.567   5.497   6.559 -0.3271 -0.7914 -0.6686
   31MOL    O20 9080   5.486   5.406   6.555  0.1128 -0.0414  0.3331
   31MOL    C21 9081   5.724   5.475   6.548  0.5193 -0.2195 -0.1666
   31MOL    C22 9082   5.782   5.504   6.404 -0.3675 -0.2638  0.1901
   31MOL    C23 9083   5.366   5.718   6.704 -0.1240 -0.8255 -0.4376
   31MOL    H24 9084   5.328   5.584   6.557  1.6673 -1.4133  1.9974
   31MOL    H25 9085   5.782   5.542   6.612  0.1587  0.8009 -0.8900
   31MOL    H26 9086   5.748   5.370   6.563 -0.1192  0.0132  2.7794
   31MOL    H27 9087   5.890   5.491   6.405 -0.3811 -0.3455  1.4137
   31MOL    H28 9088   5.731   5.442   6.330 -0.2538 -0.5023  0.3117
   31MOL    H29 9089   5.776   5.610   6.382 -2.4269 -0.2842  0.4884
   31MOL    H30 9090   5.453   5.782   6.718 -1.2803  0.7091 -0.1413
   31MOL    H31 9091   5.280   5.785   6.707  0.7103  0.1772  1.5575
   31MOL    C32 9092   5.370   5.625   6.821 -0.0789  0.2631 -0.3663
   31MOL    O33 9093   5.437   5.673   6.930 -0.0439  0.2466 -0.0519
   31MOL    C34 9094   5.566   5.646   6.955 -0.2005 -0.1328 -0.6155
   31MOL    O35 9095   5.640   5.580   6.884 -0.3973  0.2124  0.0261
   31MOL    C36 9096   5.618   5.709   7.086  0.1898  0.2475 -0.2248
   31MOL    C37 9097   5.770   5.718   7.090 -0.1034 -0.2700  0.1164
   31MOL    C38 9098   5.230   5.578   6.868  0.0742  0.6262 -0.1666
   31MOL    H39 9099   5.425   5.540   6.781 -0.5371 -0.2413  0.0686
   31MOL    H40 9100   5.562   5.801   7.096  1.7258  0.8675  3.3538
   31MOL    H41 9101   5.588   5.647   7.170  0.2542 -1.4718 -1.4392
   31MOL    H42 9102   5.791   5.762   7.188 -0.6922 -1.2026  0.6809
   31MOL    H43 9103   5.807   5.616   7.103 -0.6778 -0.2476  2.1602
   31MOL    H44 9104   5.800   5.772   7.001  2.0053 -0.6440  0.5861
   31MOL    H45 9105   5.247   5.517   6.957  0.6321  1.2167  0.1305
   31MOL    H46 9106   5.180   5.668   6.904 -0.3920 -0.4731  2.0571
   31MOL    C47 9107   5.151   5.498   6.761  0.9023 -0.1985  0.5798
   31MOL    O48 9108   5.195   5.362   6.763 -0.3405  0.1242 -0.4343
   31MOL    C49 9109   5.163   5.275   6.863  0.1024  0.3508  1.0101
   31MOL    O50 9110   5.084   5.296   6.953  0.7915  0.5979  0.0156
   31MOL    C51 9111   5.238   5.142   6.851 -0.6935 -0.5685 -0.2595
   31MOL    C52 9112   5.396   5.161   6.845 -0.4003 -0.5415  0.1655
   31MOL    C53 9113   4.992   5.494   6.773 -0.3607 -0.7490  0.3382
   31MOL    H54 9114   5.171   5.538   6.661  2.2991  1.0205  1.3354
   31MOL    H55 9115   5.224   5.075   6.936 -1.9347 -0.2773 -0.2258
   31MOL    H56 9116   5.202   5.093   6.761  0.7338 -1.9745 -0.0941
   31MOL    H57 9117   5.447   5.065   6.853 -0.3654 -0.6257 -1.0690
   31MOL    H58 9118   5.420   5.208   6.750  1.9466 -1.0887  0.4530
   31MOL    H59 9119   5.428   5.205   6.940 -1.2632 -1.9842  1.1416
   31MOL    H60 9120   4.946   5.411   6.719 -0.3653 -2.1975  2.4969
   31MOL    H61 9121   4.963   5.472   6.876  0.1333 -1.1206  0.4040
   31MOL    C62 9122   4.930   5.626   6.734 -0.6637  0.7241  0.8111
   31MOL    O63 9123   4.963   5.651   6.596  0.1701  0.7081 -0.1231
   31MOL    C64 9124   5.006   5.773   6.544 -0.6250  0.5472 -0.0874
   31MOL    O65 9125   5.044   5.864   6.619  0.3618 -0.0374  0.0579
   31MOL    C66 9126   5.005   5.781   6.392 -0.1511 -0.0450  0.2214
   31MOL    C67 9127   4.862   5.789   6.341 -0.4913  0.1939 -1.4644
   31MOL    C68 9128   4.776   5.625   6.747 -0.2772  0.1807  0.1179
   31MOL    H69 9129   4.974   5.707   6.792 -0.2861  2.1353 -1.3948
   31MOL    H70 9130   5.062   5.863   6.348 -1.3969  1.7819  1.8841
   31MOL    H71 9131   5.052   5.687   6.365  2.5144  1.7618 -1.6248
   31MOL    H72 9132   4.802   5.853   6.406 -0.0293 -2.1742  1.3431
   31MOL    H73 9133   4.868   5.830   6.240  0.5052 -1.1133 -1.9459
   31MOL    H74 9134   4.821   5.690   6.323  0.8479 -0.6091 -0.2269
   31MOL    H75 9135   4.730   5.553   6.680  2.6065 -1.1419 -0.5242
   31MOL    H76 9136   4.754   5.596   6.849 -2.7353  1.8079  0.0833
   31MOL    C77 9137   4.716   5.765   6.723  0.5969 -0.3086 -0.3550
   31MOL    O78 9138   4.575   5.746   6.704 -0.5007  0.2367 -0.0234
   31MOL    C79 9139   4.525   5.731   6.573 -0.6283  0.0630  0.4008
   31MOL    O80 9140   4.593   5.702   6.475 -0.2363 -0.1354  0.4548
   31MOL    C81 9141   4.377   5.734   6.570 -0.1718 -0.3259  0.8092
   31MOL    C82 9142   4.311   5.629   6.487 -0.1900 -0.2795  0.0780
   31MOL    C83 9143   4.731   5.854   6.848 -0.0085 -0.4903 -0.5374
   31MOL    H84 9144   4.763   5.806   6.634  1.4490 -1.8959 -0.6476
   31MOL    H85 9145   4.354   5.716   6.675  0.1402 -0.9964  0.7616
   31MOL    H86 9146   4.345   5.830   6.528 -0.7067  0.8227  3.7498
   31MOL    H87 9147   4.341   5.637   6.383 -1.5681  0.0485 -0.3028
   31MOL    H88 9148   4.327   5.525   6.516 -0.8771 -0.1755  0.8648
   31MOL    H89 9149   4.202   5.633   6.489 -0.1751 -0.2776  1.6661
   31MOL    H90 9150   4.670   5.822   6.932  1.8221  0.3168  1.1539
   31MOL    H91 9151   4.833   5.843   6.885  0.0379 -0.6464 -0.7163
   31MOL    C92 9152   4.710   6.010   6.824  0.6158  0.3785 -0.2168
   31MOL    O93 9153   4.575   6.057   6.849  0.0730 -0.4930  0.0711
   31MOL    C94 9154   4.493   6.079   6.746 -0.0477 -0.4813 -0.4206
   31MOL    O95 9155   4.505   6.032   6.634 -0.4812 -0.6401 -0.1663
   31MOL    C96 9156   4.356   6.142   6.781  0.2066 -0.1713 -0.3479
   31MOL    C97 9157   4.248   6.029   6.810 -0.0125 -0.3571  0.6347
   31MOL    C98 9158   4.805   6.099   6.915  0.0397  0.1209  0.0343
   31MOL    H99 9159   4.750   6.025   6.724  0.3557 -0.4050 -0.4398
   31MOL   H100 9160   4.374   6.197   6.873 -0.5797 -2.9444  1.5289
   31MOL   H101 9161   4.312   6.206   6.703  0.6559 -0.8538 -1.1702
   31MOL   H102 9162   4.149   6.071   6.831  0.3295 -0.0766  1.7055
   31MOL   H103 9163   4.243   5.965   6.721  2.0320  0.6413 -0.2279
   31MOL   H104 9164   4.287   5.967   6.890  4.0399 -0.0865 -1.0253
   31MOL   H105 9165   4.761   6.106   7.014  0.3839 -1.4964  0.3166
   31MOL   H106 9166   4.904   6.054   6.922  0.0317 -0.0646 -0.8968
   31MOL   C107 9167   4.822   6.241   6.857 -0.7369 -0.0820 -1.0008
   31MOL   O108 9168   4.894   6.305   6.959 -0.0393 -0.3481 -0.2034
   31MOL   C109 9169   4.879   6.441   6.971  0.3860  0.4782 -0.0386
   31MOL   O110 9170   4.834   6.526   6.894 -0.3919  0.1534 -0.2089
   31MOL   C111 9171   4.930   6.481   7.105  0.1320 -0.1476 -0.3552
   31MOL   C112 9172   4.836   6.434   7.209  0.1833  0.0368  0.0898
   31MOL   C113 9173   4.897   6.249   6.729  0.1129 -0.1583 -0.3103
   31MOL   H114 9174   4.726   6.293   6.846 -0.1154  1.0447 -1.2335
   31MOL   H115 9175   5.031   6.439   7.104  0.4008  0.4828 -0.3065
   31MOL   H116 9176   4.932   6.589   7.121  1.2728 -0.2491  0.2711
   31MOL   H117 9177   4.853   6.327   7.218  0.1920 -0.1080 -1.5374
   31MOL   H118 9178   4.862   6.466   7.310 -1.7800 -0.9075  0.9166
   31MOL   H119 9179   4.731   6.461   7.197 -0.2961 -1.6920  0.3669
   31MOL   H120 9180   4.962   6.336   6.726 -0.9312  0.6174 -0.7139
   31MOL   H121 9181   4.954   6.157   6.714  0.4694 -0.0699  0.4527
   31MOL   C122 9182   4.804   6.265   6.603 -0.4298  0.1207 -0.5874
   31MOL   O123 9183   4.770   6.402   6.613  0.1117  0.1090 -0.9031
   31MOL   C124 9184   4.640   6.440   6.613 -0.3688  0.0838 -0.1460
   31MOL   O125 9185   4.543   6.370   6.596  0.0771 -0.1511  0.0865
   31MOL   C126 9186   4.631   6.595   6.628 -0.4301  0.6508 -0.1779
   31MOL   C127 9187   4.487   6.647   6.618  0.6717  0.5563  0.2096
   31MOL   C128 9188   4.888   6.247   6.471 -0.4020 -0.1264  0.5053
   31MOL   H129 9189   4.719   6.198   6.611 -0.4791  0.2375 -0.1448
   31MOL   H130 9190   4.684   6.632   6.715  3.2762 -0.9060 -1.6377
   31MOL   H131 9191   4.695   6.639   6.551  0.4543 -0.3622 -0.0406
   31MOL   H132 9192   4.412   6.585   6.666 -1.3456  1.9453 -1.0337
   31MOL   H133 9193   4.490   6.742   6.671  2.0358 -0.5861  2.2484
   31MOL   H134 9194   4.468   6.671   6.513 -0.2456 -3.0118 -0.4980
   31MOL   H135 9195   4.971   6.317   6.466 -0.3360  0.0328  3.1018
   31MOL   H136 9196   4.947   6.156   6.481 -0.1787  0.1429  1.6452
   31MOL   C137 9197   4.816   6.247   6.337  0.0481 -0.3235 -0.4958
   31MOL   O138 9198   4.898   6.287   6.232 -0.3721 -0.0303 -0.2306
   31MOL   C139 9199   4.898   6.414   6.212 -0.3878 -0.7505  0.0686
   31MOL   O140 9200   4.847   6.507   6.272 -0.1517  0.1596  0.2040
   31MOL   C141 9201   4.969   6.441   6.089 -0.3051 -0.4414  0.3734
   31MOL   C142 9202   4.892   6.411   5.966  0.4233 -0.9058 -0.0869
   31MOL   C143 9203   4.737   6.121   6.288  0.4259 -0.7076 -0.4601
   31MOL   H144 9204   4.745   6.326   6.360  2.3941  1.4484  1.0122
   31MOL   H145 9205   5.014   6.541   6.088 -1.3014  0.0061 -0.2677
   31MOL   H146 9206   5.049   6.367   6.085  0.4889  0.2876  2.1866
   31MOL   H147 9207   4.943   6.417   5.870  0.7038  0.3722  0.1346
   31MOL   H148 9208   4.848   6.312   5.960 -3.1641  0.7185 -2.1270
   31MOL   H149 9209   4.814   6.487   5.968  0.7536 -0.5539  2.9835
   31MOL   H150 9210   4.813   6.045   6.272  0.5070 -0.7690  0.2143
   31MOL   H151 9211   4.669   6.101   6.370  1.1650  1.7811  0.8141
   31MOL   C152 9212   4.643   6.168   6.169  0.3617  0.3648  1.0005
   31MOL   O153 9213   4.581   6.051   6.110  0.1042  0.1472 -0.5811
   31MOL   C154 9214   4.662   5.976   6.033 -0.5036 -0.0779 -0.3990
   31MOL   O155 9215   4.785   5.992   6.007  0.6259  0.4169 -0.0230
   31MOL   C156 9216   4.593   5.854   5.973  0.3039  0.6505 -0.9468
   31MOL   C157 9217   4.616   5.729   6.065  0.2961 -0.2309 -0.3346
   31MOL   C158 9218   4.535   6.277   6.207 -0.0059  0.7682 -0.2554
   31MOL   H159 9219   4.711   6.207   6.093  0.3884 -0.4687  0.5853
   31MOL   H160 9220   4.485   5.862   5.978  0.1347 -2.7134  2.9748
   31MOL   H161 9221   4.617   5.847   5.867  1.3429 -1.0178 -0.6190
   31MOL   H162 9222   4.636   5.757   6.168  2.9526 -2.8291 -0.0910
   31MOL   H163 9223   4.520   5.677   6.055 -0.5364  0.8792  1.5189
   31MOL   H164 9224   4.705   5.671   6.041  0.8838  0.3319  0.4666
   31MOL   H165 9225   4.438   6.229   6.219  0.7499 -0.1655  2.5020
   31MOL   H166 9226   4.567   6.309   6.306  1.6229  0.0121 -0.5184
   31MOL   C167 9227   4.519   6.395   6.107  0.1939  0.4705  0.4888
   31MOL   O168 9228   4.435   6.351   6.005 -0.2864  0.4193  0.4724
   31MOL   C169 9229   4.482   6.324   5.883  0.5498 -1.1390  0.0319
   31MOL   O170 9230   4.593   6.346   5.844 -0.5692 -0.1150 -0.2585
   31MOL   C171 9231   4.371   6.261   5.794 -0.2326 -0.2018 -0.1111
   31MOL   C172 9232   4.362   6.108   5.786 -0.6655  0.2723 -1.0477
   31MOL   C173 9233   4.449   6.511   6.169 -0.3165  0.0694  0.4150
   31MOL   H174 9234   4.620   6.421   6.076  0.6605 -2.2467 -0.3886
   31MOL   H175 9235   4.275   6.276   5.844  0.3206 -0.1762  0.9644
   31MOL   H176 9236   4.364   6.313   5.699  0.8508  0.1105 -0.0338
   31MOL   H177 9237   4.424   6.075   5.702 -1.8669  1.1150 -2.2747
   31MOL   H178 9238   4.410   6.058   5.870  0.5101 -1.0763 -2.4631
   31MOL   H179 9239   4.264   6.064   5.772 -1.0919  1.3130 -1.3859
   31MOL   H180 9240   4.345   6.493   6.195  0.2491 -2.5734  1.0442
   31MOL   H181 9241   4.505   6.529   6.261 -2.1352 -0.3475  1.6193
   31MOL   C182 9242   4.450   6.644   6.090 -0.1762  0.0219  0.9933
   31MOL   O183 9243   4.387   6.743   6.170 -0.2967 -0.2318 -0.1249
   31MOL   C184 9244   4.285   6.819   6.137  0.4427  0.6443 -0.0664
   31MOL   O185 9245   4.224   6.818   6.029 -0.0114 -0.0770 -0.8737
   31MOL   C186 9246   4.244   6.916   6.243  0.6481  0.2204 -0.4560
   31MOL   C187 9247   4.161   6.843   6.352  0.3081  0.2792  0.5835
   31MOL   C188 9248   4.587   6.711   6.044  0.2726  0.8456  0.2476
   31MOL   H189 9249   4.398   6.626   5.996 -1.3689 -1.3453  1.9051
   31MOL   H190 9250   4.328   6.974   6.282  0.3959 -0.0716  0.5098
   31MOL   H191 9251   4.175   6.979   6.186  0.9967  1.0341  0.0164
   31MOL   H192 9252   4.092   6.780   6.297 -1.2082  2.2068  0.2352
   31MOL   H193 9253   4.219   6.796   6.431 -1.0615  1.3284  2.2408
   31MOL   H194 9254   4.091   6.914   6.395 -0.6987 -0.0570 -0.4712
   31MOL   H195 9255   4.607   6.800   6.103  0.3474 -0.2083  1.8822
   31MOL   H196 9256   4.666   6.644   6.079 -0.2787 -0.3389 -0.7087
   31MOL   C197 9257   4.604   6.720   5.892 -0.3706 -0.4940 -0.0902
   31MOL   O198 9258   4.505   6.800   5.839 -0.5173 -0.3801 -0.2794
   31MOL   C199 9259   4.425   6.747   5.741 -0.4020  0.4087 -0.2928
   31MOL   O200 9260   4.426   6.627   5.706 -0.0252  0.6167 -0.3649
   31MOL   C201 9261   4.341   6.855   5.679 -0.0333  0.3584  0.2154
   31MOL   C202 9262   4.389   6.922   5.545 -0.1893  0.2669 -0.6116
   31MOL   C203 9263   4.742   6.773   5.856 -0.1566 -0.1616 -0.1924
   31MOL   H204 9264   4.594   6.614   5.866  2.0377 -0.4775 -1.2256
   31MOL   H205 9265   4.256   6.794   5.649 -0.8056  1.2711  0.5361
   31MOL   H206 9266   4.306   6.927   5.753 -2.0123  2.6300 -2.8272
   31MOL   H207 9267   4.400   6.845   5.468 -0.8176 -2.7953  2.2093
   31MOL   H208 9268   4.329   7.005   5.509 -1.8578  0.3299  2.1746
   31MOL   H209 9269   4.484   6.974   5.554  1.5193 -2.5672 -1.4803
   31MOL   H210 9270   4.742   6.877   5.889  0.7006  0.7251 -2.8782
   31MOL   H211 9271   4.816   6.719   5.916  0.0657 -1.9154 -1.9701
   31MOL   C212 9272   4.772   6.777   5.703 -0.0638  0.7614  0.3343
   31MOL   O213 9273   4.897   6.833   5.698  0.5696 -0.4148 -0.4232
   31MOL   C214 9274   4.922   6.968   5.664  0.3600 -0.0486 -0.1596
   31MOL   O215 9275   4.837   7.057   5.662  0.5400 -0.6419 -0.3095
   31MOL   C216 9276   5.072   6.999   5.634 -0.7060 -0.2307 -0.6086
   31MOL   C217 9277   5.128   6.938   5.502  0.1289  0.5173 -0.6967
   31MOL   C218 9278   4.793   6.638   5.640  0.3987  0.1841  0.1827
   31MOL   H219 9279   4.692   6.834   5.658 -1.0869  1.3811  2.8426
   31MOL   H220 9280   5.096   7.106   5.634  0.0404 -0.3895  0.0114
   31MOL   H221 9281   5.117   6.968   5.728 -2.9749  1.8170  1.2241
   31MOL   H222 9282   5.231   6.964   5.475  0.7090 -0.9107  0.0836
   31MOL   H223 9283   5.149   6.832   5.518  1.6262  0.7158 -1.1893
   31MOL   H224 9284   5.052   6.952   5.426  1.8358  0.5933 -2.4337
   31MOL   H225 9285   4.876   6.586   5.687  1.8123  3.6326  1.6361
   31MOL   H226 9286   4.703   6.582   5.667  0.1066  1.1783  1.3277
   31MOL   C227 9287   4.802   6.646   5.488  0.2996 -0.2900  0.1475
   31MOL   O228 9288   4.867   6.533   5.432 -0.0489  0.4055 -0.4308
   31MOL   C229 9289   4.988   6.534   5.377 -0.0616  0.0383 -0.1394
   31MOL   O230 9290   5.060   6.632   5.369 -0.5671 -0.0707 -0.2408
   31MOL   C231 9291   5.030   6.395   5.317 -0.2488 -0.8967  0.0609
   31MOL   C232 9292   5.038   6.285   5.417  0.0253  0.3911 -0.8957
   31MOL   C233 9293   4.668   6.656   5.415 -1.1228 -0.0119 -0.3058
   31MOL   H234 9294   4.848   6.738   5.454  0.3507 -0.9013 -1.5330
   31MOL   H235 9295   4.936   6.375   5.266 -0.4169  3.8485 -1.8003
   31MOL   H236 9296   5.106   6.376   5.241 -0.5481 -2.0469  0.0362
   31MOL   H237 9297   4.991   6.198   5.371  2.1557 -1.0000 -0.5219
   31MOL   H238 9298   5.139   6.262   5.451 -0.8819  0.2712  1.8296
   31MOL   H239 9299   4.977   6.311   5.504  0.9722  2.4544 -0.8297
   31MOL   H240 9300   4.635   6.561   5.374  1.3435 -1.3120  0.6422
   31MOL   H241 9301   4.587   6.706   5.468 -0.8112  4.4389 -3.6563
   31MOL   C242 9302   4.685   6.741   5.283  0.3211 -0.4661  0.2107
   31MOL   O243 9303   4.589   6.699   5.183  0.2196  0.4315  0.5913
   31MOL   C244 9304   4.615   6.595   5.101  1.0346 -0.0704 -0.6089
   31MOL   O245 9305   4.727   6.547   5.102  0.1984  0.2432 -0.1064
   31MOL   C246 9306   4.512   6.557   4.995 -0.5118  0.0524 -0.1776
   31MOL   C247 9307   4.492   6.408   4.967  0.1388 -0.0572  0.4907
   31MOL   C248 9308   4.664   6.892   5.303  0.1269  0.2274  0.2113
   31MOL   H249 9309   4.785   6.722   5.244  0.5976 -1.8412  1.5308
   31MOL   H250 9310   4.412   6.590   5.024  0.3466  2.2644  0.4185
   31MOL   H251 9311   4.539   6.608   4.902  0.1552 -0.5181 -0.2981
   31MOL   H252 9312   4.456   6.370   5.063 -0.2681  2.1892  1.2345
   31MOL   H253 9313   4.422   6.387   4.886  0.7274  0.7780 -0.2511
   31MOL   H254 9314   4.589   6.358   4.955  1.1472  2.4070 -1.9876
   31MOL   H255 9315   4.556   6.905   5.302  0.1828  0.6897 -0.2502
   31MOL   H256 9316   4.703   6.917   5.402  0.0054  0.0022  0.3143
   31MOL   C257 9317   4.734   6.983   5.202 -0.1032  0.1179  0.1750
   31MOL   O258 9318   4.874   6.947   5.189 -0.6910 -0.5403 -0.6160
   31MOL   C259 9319   4.971   7.035   5.170 -0.0619  0.2425 -0.8977
   31MOL   O260 9320   4.944   7.153   5.176  1.1549 -0.0908 -0.5334
   31MOL   C261 9321   5.116   6.989   5.171 -0.2735  0.7227  0.1338
   31MOL   C262 9322   5.218   7.102   5.187  0.1566 -0.7112 -0.1669
   31MOL   C263 9323   4.669   6.988   5.065  0.5807 -0.2666 -0.6901
   31MOL   H264 9324   4.723   7.085   5.239  0.8451  0.3317 -0.0978
   31MOL   H265 9325   5.135   6.908   5.241  1.3712  1.2836  0.3365
   31MOL   H266 9326   5.125   6.934   5.077 -0.8557 -0.1332  0.5701
   31MOL   H267 9327   5.307   7.066   5.239  1.2894  0.9756 -0.8829
   31MOL   H268 9328   5.246   7.159   5.098 -0.0706 -0.5429 -0.1326
   31MOL   H269 9329   5.183   7.176   5.260 -1.6282 -0.8292 -0.8963
   31MOL   H270 9330   4.722   7.060   5.003  0.1816  1.6109  1.1080
   31MOL   H271 9331   4.692   6.898   5.007  0.5623  0.4404 -1.8217
   31MOL   C272 9332   4.522   7.029   5.066  0.3321  0.5616  0.4951
   31MOL   O273 9333   4.527   7.164   5.101  0.8264  0.2882 -0.2912
   31MOL   C274 9334   4.481   7.213   5.228  0.1468 -0.1499 -0.0983
   31MOL   O275 9335   4.402   7.156   5.304 -0.1534  0.4106  0.1228
   31MOL   C276 9336   4.512   7.359   5.255 -0.5151 -0.0496 -0.0418
   31MOL   C277 9337   4.615   7.421   5.157  0.1851 -0.2678 -0.0178
   31MOL   C278 9338   4.467   7.014   4.917  0.1292  0.2942 -1.3019
   31MOL   H279 9339   4.473   6.965   5.140 -1.8569  2.5663  0.8625
   31MOL   H280 9340   4.415   7.408   5.247  0.6031  1.8331 -3.0622
   31MOL   H281 9341   4.550   7.347   5.356 -0.6937 -2.8778 -0.2685
   31MOL   H282 9342   4.708   7.365   5.161  1.6793  2.1550 -0.0421
   31MOL   H283 9343   4.569   7.409   5.059  0.3033 -0.0612 -0.0966
   31MOL   H284 9344   4.628   7.525   5.185  1.9654 -0.8835  1.5258
   31MOL   H285 9345   4.511   7.097   4.862 -0.0953  1.2989  0.0213
   31MOL   H286 9346   4.499   6.915   4.885  0.8464  0.5495 -1.3958
   31MOL   C287 9347   4.319   7.024   4.904 -1.1438 -0.0676  0.1992
   31MOL   O288 9348   4.287   7.040   4.759 -0.8502  0.2015  0.1241
   31MOL   C289 9349   4.192   7.124   4.714 -0.4738 -0.2755  0.3630
   31MOL   O290 9350   4.124   7.190   4.787  0.2710 -0.1841  0.6021
   31MOL   C291 9351   4.181   7.131   4.562 -0.2305  0.4303 -0.2590
   31MOL   C292 9352   4.107   7.004   4.505  0.1446 -0.4272 -0.8643
   31MOL   C293 9353   4.247   6.899   4.963 -0.3686  0.7712  0.1749
   31MOL   H294 9354   4.292   7.115   4.958  1.3468  0.5306  0.5213
   31MOL   H295 9355   4.125   7.220   4.533 -1.5535 -0.0210  0.8457
   31MOL   H296 9356   4.280   7.138   4.518 -0.2226  1.4897 -0.0918
   31MOL   H297 9357   4.110   6.995   4.396 -1.9302  0.4147 -1.0144
   31MOL   H298 9358   4.142   6.912   4.552 -0.0946 -0.2000 -0.2365
   31MOL   H299 9359   4.001   7.000   4.529  0.2436 -0.1224 -0.3707
   31MOL   H300 9360   4.273   6.888   5.068  1.3873 -1.5236 -0.4655
   31MOL   H301 9361   4.141   6.923   4.948 -0.2704  0.1510 -1.6552
   31MOL   H302 9362   4.265   6.809   4.905 -2.0961  1.6497 -1.8177
   32MOL     C1 9363   6.911   4.275   3.300  0.5162  0.4417 -0.0307
   32MOL     O2 9364   6.852   4.338   3.192 -0.4615  0.0602  0.2499
   32MOL     C3 9365   6.936   4.379   3.091 -0.1933 -0.6918  0.3785
   32MOL     O4 9366   7.052   4.362   3.083 -0.0801 -0.5871 -0.1333
   32MOL     C5 9367   6.859   4.471   2.987  0.0361 -0.5803 -0.3074
   32MOL     C6 9368   6.884   4.615   3.007  0.3920 -0.3395 -0.5506
   32MOL     C7 9369   6.927   4.365   3.417  0.1053  0.1819  0.9444
   32MOL     H8 9370   7.003   4.227   3.266  0.6796  1.8953 -1.7431
   32MOL     H9 9371   6.894   4.443   2.888  1.1081 -1.2734  0.2453
   32MOL    H10 9372   6.752   4.451   2.991  0.3297 -2.1735  0.0437
   32MOL    H11 9373   6.990   4.641   3.005  0.4616 -0.6892 -1.5713
   32MOL    H12 9374   6.835   4.676   2.931  1.6430  1.7477  0.2672
   32MOL    H13 9375   6.856   4.653   3.105  0.6875 -0.2874 -0.4872
   32MOL    H14 9376   6.977   4.456   3.383  0.0847  0.1590  0.8531
   32MOL    H15 9377   6.833   4.396   3.462 -1.1063 -0.9186 -0.7702
   32MOL    H16 9378   6.851   4.187   3.327 -1.8732  0.9298 -3.4025
   32MOL    C17 9379   7.015   4.293   3.525  0.7762 -0.2813  0.0560
   32MOL    O18 9380   7.148   4.304   3.481 -0.3309 -0.0488 -0.9368
   32MOL    C19 9381   7.243   4.202   3.480 -0.6150 -0.2337 -0.0425
   32MOL    O20 9382   7.220   4.086   3.520 -0.0893 -0.0958  0.2580
   32MOL    C21 9383   7.377   4.245   3.422  0.1771  0.0542  0.4371
   32MOL    C22 9384   7.428   4.390   3.458 -0.7648 -0.2132 -0.4957
   32MOL    C23 9385   7.014   4.351   3.667 -0.2273  0.0259 -0.4856
   32MOL    H24 9386   6.982   4.190   3.537  1.3682 -0.4024  0.6656
   32MOL    H25 9387   7.451   4.174   3.458 -0.4202 -0.0191  1.5419
   32MOL    H26 9388   7.372   4.231   3.314  1.3316  3.0618 -0.0751
   32MOL    H27 9389   7.354   4.470   3.447  0.7309  1.3211  0.3559
   32MOL    H28 9390   7.456   4.377   3.563  1.0833 -3.2964 -1.2996
   32MOL    H29 9391   7.513   4.413   3.394  0.5269 -0.7305  1.0164
   32MOL    H30 9392   7.083   4.303   3.736  0.5239  0.0322 -1.2241
   32MOL    H31 9393   7.056   4.451   3.654  2.6883 -0.5854  3.5240
   32MOL    C32 9394   6.872   4.367   3.730  0.7386  0.9955  0.2185
   32MOL    O33 9395   6.842   4.246   3.801 -0.0304 -0.3837 -0.0768
   32MOL    C34 9396   6.723   4.190   3.783 -0.4571  0.2798  0.4884
   32MOL    O35 9397   6.640   4.227   3.695  0.1154  0.4129 -0.0917
   32MOL    C36 9398   6.696   4.083   3.891 -0.4549  0.0337 -1.0348
   32MOL    C37 9399   6.812   3.987   3.902 -0.3676  0.3590  0.3295
   32MOL    C38 9400   6.864   4.477   3.842 -0.0810 -0.2414  0.4517
   32MOL    H39 9401   6.795   4.392   3.658 -1.8110  0.5483  2.7229
   32MOL    H40 9402   6.677   4.130   3.987  0.2458  0.6779 -1.2055
   32MOL    H41 9403   6.606   4.024   3.873 -0.3237 -0.2546 -0.7464
   32MOL    H42 9404   6.850   3.935   3.814 -0.1410  1.0761  0.0013
   32MOL    H43 9405   6.904   4.023   3.950  0.1764  0.8495 -1.0455
   32MOL    H44 9406   6.771   3.904   3.958  0.5009 -1.1171 -1.1808
   32MOL    H45 9407   6.774   4.464   3.902 -0.1831 -1.6511  0.0225
   32MOL    H46 9408   6.943   4.461   3.915  1.5679  0.6146 -1.1006
   32MOL    C47 9409   6.870   4.623   3.801 -0.2974  0.0460  0.1743
   32MOL    O48 9410   6.752   4.650   3.721 -0.0812 -1.2241  0.2623
   32MOL    C49 9411   6.764   4.720   3.603 -0.2886 -0.4052  0.0419
   32MOL    O50 9412   6.865   4.773   3.561  0.3830  0.0006 -0.0862
   32MOL    C51 9413   6.627   4.722   3.532  0.2253 -0.0071 -0.2233
   32MOL    C52 9414   6.606   4.608   3.426 -0.3560  0.1193  0.5800
   32MOL    C53 9415   6.877   4.714   3.918 -0.1150 -0.0968 -0.1294
   32MOL    H54 9416   6.960   4.639   3.742 -0.1430  0.3244  0.4873
   32MOL    H55 9417   6.552   4.710   3.610 -1.0762 -1.6426 -1.6922
   32MOL    H56 9418   6.605   4.819   3.487  3.2198  0.2564 -1.2566
   32MOL    H57 9419   6.598   4.513   3.478 -2.5246  0.2987  0.6160
   32MOL    H58 9420   6.510   4.614   3.375 -0.7962 -0.1022  1.3779
   32MOL    H59 9421   6.687   4.597   3.355 -0.0697 -0.0578  0.9320
   32MOL    H60 9422   6.867   4.814   3.875 -1.0554  0.3256  1.0344
   32MOL    H61 9423   6.787   4.681   3.969 -0.4727 -0.3121 -0.9007
   32MOL    C62 9424   7.005   4.710   4.002  0.1147 -0.4032  0.1034
   32MOL    O63 9425   7.113   4.758   3.922  0.3886 -0.5352  0.3960
   32MOL    C64 9426   7.217   4.668   3.907 -0.7646 -0.6122  0.4011
   32MOL    O65 9427   7.231   4.563   3.972  0.2209 -0.0870 -0.0655
   32MOL    C66 9428   7.319   4.715   3.798  0.4420 -0.0381 -0.4794
   32MOL    C67 9429   7.245   4.721   3.662 -0.0884 -0.5115 -0.2195
   32MOL    C68 9430   7.015   4.811   4.119  0.2186 -0.1338  0.0339
   32MOL    H69 9431   7.018   4.609   4.043 -2.0284 -1.0583 -0.7034
   32MOL    H70 9432   7.359   4.813   3.827  0.5900  0.0125 -0.8581
   32MOL    H71 9433   7.404   4.646   3.795 -0.6875 -1.5159  0.5171
   32MOL    H72 9434   7.200   4.628   3.627 -0.5048 -1.6300  3.1124
   32MOL    H73 9435   7.156   4.784   3.662 -0.2155 -0.6772  0.4972
   32MOL    H74 9436   7.323   4.749   3.591  0.8773 -1.1396  0.5771
   32MOL    H75 9437   7.117   4.815   4.158 -0.0833  0.9040  0.7391
   32MOL    H76 9438   6.982   4.908   4.083 -1.5571  0.1317  2.2297
   32MOL    C77 9439   6.926   4.764   4.232  0.0875  0.1138  0.0594
   32MOL    O78 9440   6.979   4.649   4.298 -0.5288  0.8788 -0.1995
   32MOL    C79 9441   6.917   4.530   4.283  0.4874 -0.5120  0.1231
   32MOL    O80 9442   6.807   4.509   4.238 -0.5363  0.2875 -0.6029
   32MOL    C81 9443   7.006   4.415   4.330 -0.2493 -0.1139 -0.2742
   32MOL    C82 9444   7.051   4.332   4.215  0.2901  0.0375  0.0094
   32MOL    C83 9445   6.900   4.874   4.329  0.2349 -0.1089 -0.3819
   32MOL    H84 9446   6.826   4.742   4.194 -0.5718  2.2912  0.4931
   32MOL    H85 9447   7.083   4.461   4.392 -0.3855 -1.3408  0.8383
   32MOL    H86 9448   6.939   4.355   4.391 -0.4732 -0.4276 -0.8320
   32MOL    H87 9449   7.087   4.237   4.254  0.1082 -0.2150 -0.4256
   32MOL    H88 9450   6.986   4.302   4.133 -0.9179  0.7565  0.7052
   32MOL    H89 9451   7.137   4.375   4.162 -0.1405  1.4827  0.4682
   32MOL    H90 9452   6.989   4.903   4.384  1.4969 -0.8502 -1.9994
   32MOL    H91 9453   6.881   4.966   4.273 -1.7654 -1.0662 -1.3579
   32MOL    C92 9454   6.778   4.840   4.419  0.3168  0.9724  0.5734
   32MOL    O93 9455   6.797   4.914   4.541 -0.0702  0.2825 -0.3207
   32MOL    C94 9456   6.849   4.850   4.657  0.1167 -0.6956 -0.3653
   32MOL    O95 9457   6.848   4.732   4.678 -0.1333  0.2616  0.0164
   32MOL    C96 9458   6.888   4.948   4.771 -0.1497 -0.2235  0.7729
   32MOL    C97 9459   7.045   4.966   4.776 -0.4377 -0.6481  0.0191
   32MOL    C98 9460   6.650   4.897   4.342 -0.0969  0.2285 -0.3246
   32MOL    H99 9461   6.768   4.733   4.431  1.6994  0.1968 -4.0177
   32MOL   H100 9462   6.840   5.045   4.757 -1.3337 -0.9379 -0.1320
   32MOL   H101 9463   6.858   4.908   4.868 -0.8916  4.3073  2.5807
   32MOL   H102 9464   7.070   5.027   4.862 -1.1045 -1.5734  0.8833
   32MOL   H103 9465   7.109   4.879   4.785 -1.2834 -1.4132 -1.0921
   32MOL   H104 9466   7.075   5.031   4.693 -2.2454  1.6503  1.1076
   32MOL   H105 9467   6.639   5.005   4.346 -0.6780  0.0960  2.6416
   32MOL   H106 9468   6.661   4.869   4.237 -0.8145 -1.1347 -0.0440
   32MOL   C107 9469   6.528   4.839   4.407 -0.1415  0.5483 -0.4233
   32MOL   O108 9470   6.517   4.886   4.543 -0.3221 -0.3241 -0.1870
   32MOL   C109 9471   6.489   4.800   4.642  0.5615  0.0001  0.4878
   32MOL   O110 9472   6.497   4.678   4.627  0.0274 -0.0691 -0.1077
   32MOL   C111 9473   6.459   4.878   4.769 -0.0974 -1.2480  0.0795
   32MOL   C112 9474   6.327   4.950   4.752  0.0468  1.0599 -0.7379
   32MOL   C113 9475   6.396   4.864   4.331  0.6459 -0.1091  0.0803
   32MOL   H114 9476   6.538   4.731   4.406  1.9425  0.7219 -1.4584
   32MOL   H115 9477   6.469   4.808   4.852  1.0586 -1.6327 -0.3624
   32MOL   H116 9478   6.533   4.958   4.775 -1.4969 -0.1026  2.4173
   32MOL   H117 9479   6.352   5.055   4.734  0.2168  1.1489  0.0265
   32MOL   H118 9480   6.263   4.924   4.667 -1.5038 -0.9627  1.0065
   32MOL   H119 9481   6.267   4.941   4.842  2.9940 -4.0906  0.9059
   32MOL   H120 9482   6.304   4.830   4.379 -0.9823  1.8777 -1.5151
   32MOL   H121 9483   6.386   4.971   4.315 -0.9672 -0.4253 -1.1297
   32MOL   C122 9484   6.391   4.802   4.189 -0.4468  0.0176 -0.1793
   32MOL   O123 9485   6.438   4.889   4.084 -0.4487 -0.2661  0.3018
   32MOL   C124 9486   6.377   4.893   3.966  0.1438  0.7077  0.4796
   32MOL   O125 9487   6.262   4.852   3.939  0.1651 -0.4471 -0.6095
   32MOL   C126 9488   6.458   4.966   3.863 -0.1722  0.1639 -0.1050
   32MOL   C127 9489   6.596   4.913   3.862 -0.7726 -1.0158 -0.4802
   32MOL   C128 9490   6.449   4.664   4.176  0.7771  0.3333  0.2659
   32MOL   H129 9491   6.283   4.798   4.176 -1.0675  0.5223  3.9042
   32MOL   H130 9492   6.400   4.945   3.773 -0.3809 -1.5243  0.3983
   32MOL   H131 9493   6.440   5.073   3.875 -1.8212 -0.3376  2.1313
   32MOL   H132 9494   6.642   4.945   3.955 -0.6332  1.5735 -1.3987
   32MOL   H133 9495   6.585   4.805   3.854  2.8339 -1.5360  0.7895
   32MOL   H134 9496   6.659   4.946   3.779 -0.4007 -1.8921 -0.5558
   32MOL   H135 9497   6.451   4.630   4.072  0.2536  0.4064  0.2275
   32MOL   H136 9498   6.553   4.666   4.206  0.7328  1.4745  0.3602
   32MOL   C137 9499   6.364   4.550   4.254 -0.1309 -0.6270 -0.0885
   32MOL   O138 9500   6.259   4.511   4.167 -0.6184 -1.0604 -0.0719
   32MOL   C139 9501   6.137   4.504   4.209 -0.5232 -0.2374  0.0711
   32MOL   O140 9502   6.094   4.532   4.322 -0.5519  0.0832  0.0341
   32MOL   C141 9503   6.040   4.485   4.088 -0.4509  0.3569  0.0150
   32MOL   C142 9504   5.953   4.615   4.072  0.1510  0.0779  0.1314
   32MOL   C143 9505   6.454   4.428   4.294 -0.4321 -0.0167 -0.2820
   32MOL   H144 9506   6.326   4.585   4.351 -3.5195  0.9473 -1.8953
   32MOL   H145 9507   6.094   4.463   3.996  0.2056 -1.4693  0.8226
   32MOL   H146 9508   5.965   4.407   4.089 -1.9199  1.7212 -1.4548
   32MOL   H147 9509   6.005   4.707   4.045  0.6995  0.7697  3.3458
   32MOL   H148 9510   5.871   4.610   3.999 -0.0576  0.2383  0.3540
   32MOL   H149 9511   5.901   4.634   4.166  0.9715 -1.6802  0.9574
   32MOL   H150 9512   6.499   4.389   4.202 -0.3279 -1.2934  0.3088
   32MOL   H151 9513   6.544   4.464   4.345 -0.4145 -0.8318  0.2680
   32MOL   C152 9514   6.382   4.320   4.373  0.2987 -0.0049  0.1110
   32MOL   O153 9515   6.469   4.205   4.381  0.4330  0.5650 -0.1519
   32MOL   C154 9516   6.461   4.120   4.281 -0.5789 -0.8802 -0.4588
   32MOL   O155 9517   6.380   4.124   4.192 -0.1197  0.4686 -0.1005
   32MOL   C156 9518   6.573   4.015   4.285 -0.3908 -0.3840 -0.1765
   32MOL   C157 9519   6.711   4.072   4.309  0.0459 -0.0652  0.4903
   32MOL   C158 9520   6.339   4.368   4.518 -0.1434 -0.1114 -0.0566
   32MOL   H159 9521   6.283   4.303   4.329  0.0355 -0.0551  0.7162
   32MOL   H160 9522   6.558   3.945   4.366  1.1704  1.0312  1.3755
   32MOL   H161 9523   6.568   3.956   4.193 -0.8649  3.0324 -2.4708
   32MOL   H162 9524   6.711   4.140   4.394 -0.9678  0.6127 -0.0471
   32MOL   H163 9525   6.781   3.990   4.326  2.2221  1.6645  0.1975
   32MOL   H164 9526   6.740   4.135   4.224 -0.2508 -1.9381 -1.0272
   32MOL   H165 9527   6.419   4.414   4.576  0.9847 -0.1468 -1.5428
   32MOL   H166 9528   6.273   4.452   4.499 -0.9740 -0.4868  1.1298
   32MOL   C167 9529   6.264   4.269   4.605  0.4173 -0.1386 -0.3168
   32MOL   O168 9530   6.179   4.198   4.519  0.0173  0.3082  0.2699
   32MOL   C169 9531   6.062   4.152   4.554 -1.1464  0.0521  0.3906
   32MOL   O170 9532   5.998   4.171   4.655 -0.3660  0.9766  0.4175
   32MOL   C171 9533   6.003   4.077   4.436 -0.8404 -0.0882 -0.7350
   32MOL   C172 9534   5.973   4.168   4.320 -0.1230 -0.1074  1.0520
   32MOL   C173 9535   6.357   4.179   4.692 -0.7571  0.3308  0.2134
   32MOL   H174 9536   6.198   4.328   4.669 -2.4565 -3.0714 -0.5039
   32MOL   H175 9537   6.073   3.998   4.407 -0.3532  0.9238 -2.3728
   32MOL   H176 9538   5.914   4.032   4.480  0.8082 -2.0254  0.7175
   32MOL   H177 9539   6.061   4.201   4.264  1.1758 -0.6622  2.7023
   32MOL   H178 9540   5.906   4.121   4.249  0.5342 -0.0365  0.3811
   32MOL   H179 9541   5.931   4.266   4.341 -1.1307 -0.2172 -0.4450
   32MOL   H180 9542   6.349   4.073   4.668  2.1955  0.8204 -3.3315
   32MOL   H181 9543   6.460   4.206   4.667 -0.4110  0.4852  1.7466
   32MOL   C182 9544   6.340   4.202   4.843  0.9433 -0.2274 -0.0040
   32MOL   O183 9545   6.356   4.342   4.860  0.0154 -0.5713 -0.5079
   32MOL   C184 9546   6.426   4.386   4.969 -0.2382  0.0022 -0.0610
   32MOL   O185 9547   6.470   4.313   5.057  0.1361 -0.3014  0.3881
   32MOL   C186 9548   6.439   4.542   4.979  0.0270  0.4451  0.0776
   32MOL   C187 9549   6.346   4.596   5.081  0.0014 -0.5682  0.0542
   32MOL   C188 9550   6.201   4.162   4.909  0.1171 -0.2647  0.3707
   32MOL   H189 9551   6.411   4.140   4.898  2.2416  1.9348  0.8158
   32MOL   H190 9552   6.540   4.581   4.991  0.5357 -1.0041  0.6761
   32MOL   H191 9553   6.405   4.582   4.884  0.4537 -1.2972 -0.8400
   32MOL   H192 9554   6.245   4.563   5.058 -0.5936  1.8616 -1.0343
   32MOL   H193 9555   6.366   4.564   5.183  2.0918  0.6876  0.0746
   32MOL   H194 9556   6.348   4.705   5.093  1.9786 -0.7337  1.5112
   32MOL   H195 9557   6.207   4.187   5.015  1.7834 -4.1387  1.3063
   32MOL   H196 9558   6.132   4.233   4.864  1.0169  1.1383  1.1749
   32MOL   C197 9559   6.149   4.010   4.899  0.3770 -0.0011 -0.4515
   32MOL   O198 9560   6.217   3.934   4.994  0.1875  0.2279  0.0533
   32MOL   C199 9561   6.319   3.851   4.956 -0.2603 -0.4679 -0.5918
   32MOL   O200 9562   6.379   3.859   4.852 -0.8448 -0.0511 -0.5082
   32MOL   C201 9563   6.361   3.749   5.059  0.1925  0.2616  0.1982
   32MOL   C202 9564   6.245   3.658   5.103 -0.3530  0.5559 -0.0353
   32MOL   C203 9565   6.000   4.000   4.933  0.4228 -0.2572 -0.6478
   32MOL   H204 9566   6.175   3.972   4.801  0.8539 -1.7869  0.3603
   32MOL   H205 9567   6.439   3.681   5.024  0.1125 -0.6238  1.7135
   32MOL   H206 9568   6.400   3.811   5.140  1.9042 -0.8019  0.2246
   32MOL   H207 9569   6.287   3.582   5.170  0.3641 -0.0326 -1.1528
   32MOL   H208 9570   6.160   3.706   5.152  0.5159  2.6625 -0.5279
   32MOL   H209 9571   6.195   3.603   5.023  0.8394 -1.9739  0.8811
   32MOL   H210 9572   5.988   4.024   5.038  1.1972 -1.8172 -0.1831
   32MOL   H211 9573   5.948   4.082   4.883 -0.3471  0.9040  2.0111
   32MOL   C212 9574   5.927   3.866   4.906  0.1914  0.1673  0.3450
   32MOL   O213 9575   5.806   3.865   4.968  0.3522  0.1522 -0.1416
   32MOL   C214 9576   5.794   3.800   5.084  0.3329 -0.1399 -0.0665
   32MOL   O215 9577   5.885   3.760   5.155 -0.6439  0.2167  0.4923
   32MOL   C216 9578   5.647   3.791   5.129 -0.2145  0.3591 -0.1741
   32MOL   C217 9579   5.633   3.737   5.277 -0.1244  0.4785  0.2894
   32MOL   C218 9580   5.907   3.851   4.749  0.0966  0.0497  0.1534
   32MOL   H219 9581   5.994   3.789   4.945  0.2227 -0.1018 -0.2248
   32MOL   H220 9582   5.608   3.892   5.129  0.3582  0.5948  1.2075
   32MOL   H221 9583   5.589   3.728   5.061 -2.4922  0.7123  1.4270
   32MOL   H222 9584   5.688   3.796   5.350 -0.9218  0.4457  0.9144
   32MOL   H223 9585   5.530   3.737   5.313  0.1273 -2.6342  1.1054
   32MOL   H224 9586   5.679   3.639   5.285 -1.1120  0.0841  1.2456
   32MOL   H225 9587   5.847   3.935   4.713  0.0519 -0.4701 -0.9938
   32MOL   H226 9588   6.000   3.864   4.694  0.1183 -0.2236  0.1271
   32MOL   C227 9589   5.835   3.721   4.701 -0.0284  0.2334 -0.3059
   32MOL   O228 9590   5.694   3.743   4.708 -0.2098  0.4756  0.0055
   32MOL   C229 9591   5.610   3.653   4.754 -0.1790  0.7551  0.1640
   32MOL   O230 9592   5.634   3.543   4.798 -0.1247 -0.0397 -0.1213
   32MOL   C231 9593   5.467   3.692   4.723  0.3825 -0.1251 -0.3103
   32MOL   C232 9594   5.373   3.581   4.675  0.1869  0.2125  0.3832
   32MOL   C233 9595   5.875   3.677   4.557 -0.5674  0.1548  0.2050
   32MOL   H234 9596   5.870   3.652   4.777  1.4725 -0.0284 -1.2208
   32MOL   H235 9597   5.420   3.731   4.813  0.6725 -1.4303  0.4183
   32MOL   H236 9598   5.458   3.769   4.647 -2.1155  0.8230  0.8895
   32MOL   H237 9599   5.344   3.518   4.759 -1.3123 -3.3168 -2.6891
   32MOL   H238 9600   5.282   3.621   4.632  0.5718 -0.6770 -1.2896
   32MOL   H239 9601   5.417   3.510   4.605 -4.1155 -0.6485 -1.5727
   32MOL   H240 9602   5.810   3.597   4.522 -0.9179  1.0691 -1.2497
   32MOL   H241 9603   5.860   3.751   4.479 -0.0617 -1.6745 -1.7030
   32MOL   C242 9604   6.026   3.637   4.543  0.3968 -0.0699  0.6010
   32MOL   O243 9605   6.047   3.521   4.626  0.4171  0.0495  0.6841
   32MOL   C244 9606   6.152   3.500   4.700  0.5425  0.3270 -0.3705
   32MOL   O245 9607   6.246   3.575   4.718  0.0448  0.7261 -0.0406
   32MOL   C246 9608   6.152   3.364   4.766 -0.0077  0.9923  0.1941
   32MOL   C247 9609   6.026   3.334   4.853 -0.0788 -0.2448 -0.6628
   32MOL   C248 9610   6.068   3.589   4.398 -0.0979 -0.5133  0.9640
   32MOL   H249 9611   6.089   3.719   4.578 -1.1489  1.3434  0.1255
   32MOL   H250 9612   6.158   3.294   4.683 -0.6317  1.3544 -0.1567
   32MOL   H251 9613   6.243   3.330   4.815 -1.0665 -1.1915  0.7672
   32MOL   H252 9614   5.933   3.372   4.811 -1.0508  0.5983  2.1845
   32MOL   H253 9615   6.018   3.229   4.881 -0.3426  0.5877  2.5642
   32MOL   H254 9616   6.031   3.378   4.952  0.2822 -1.1163 -0.2926
   32MOL   H255 9617   6.093   3.482   4.394  2.4269  0.1040 -2.0020
   32MOL   H256 9618   5.984   3.607   4.330  1.7820  0.1190 -1.2623
   32MOL   C257 9619   6.192   3.673   4.331 -0.7371 -0.5098 -0.0178
   32MOL   O258 9620   6.308   3.664   4.414  0.1429 -0.2760  0.4185
   32MOL   C259 9621   6.357   3.766   4.485  0.0293 -0.3794  0.9746
   32MOL   O260 9622   6.299   3.875   4.508 -0.1103 -0.3999  0.5675
   32MOL   C261 9623   6.495   3.735   4.552 -0.2659  0.0952 -0.1988
   32MOL   C262 9624   6.594   3.663   4.457 -0.0273  0.0005 -0.3062
   32MOL   C263 9625   6.222   3.621   4.196  0.0314 -0.0879  0.4327
   32MOL   H264 9626   6.159   3.776   4.318  0.3346 -0.4335 -2.2180
   32MOL   H265 9627   6.544   3.825   4.589 -1.3297  0.6837 -0.1940
   32MOL   H266 9628   6.483   3.673   4.641 -0.5055  0.7406  0.2242
   32MOL   H267 9629   6.577   3.556   4.444  0.5118 -0.0730 -0.3971
   32MOL   H268 9630   6.595   3.718   4.363  0.2014  0.4334 -0.0480
   32MOL   H269 9631   6.696   3.673   4.492  0.0449 -0.2240 -0.4450
   32MOL   H270 9632   6.313   3.662   4.154 -0.8749 -0.8975 -2.4067
   32MOL   H271 9633   6.237   3.514   4.193  0.3234 -0.0203 -0.9440
   32MOL   C272 9634   6.116   3.639   4.089  1.1446 -0.3138 -0.1984
   32MOL   O273 9635   6.131   3.774   4.038 -0.4105 -0.0762  0.0313
   32MOL   C274 9636   6.045   3.865   4.088 -0.0421  0.1433  0.5051
   32MOL   O275 9637   5.960   3.850   4.177  0.7417 -0.1523 -0.1255
   32MOL   C276 9638   6.064   3.999   4.023  0.4242 -0.6276 -0.2858
   32MOL   C277 9639   5.933   4.059   3.952  0.3180  0.5544  0.1796
   32MOL   C278 9640   6.135   3.535   3.973  0.0214 -0.6590  0.5126
   32MOL   H279 9641   6.020   3.620   4.137  0.9763  1.9367  0.4094
   32MOL   H280 9642   6.111   4.059   4.101  0.0909 -0.3264 -0.3151
   32MOL   H281 9643   6.139   3.988   3.945  0.4916 -0.1883 -0.2829
   32MOL   H282 9644   5.949   4.063   3.844  1.3702 -0.6266  0.2840
   32MOL   H283 9645   5.844   3.997   3.951 -0.4598  1.6509 -2.0080
   32MOL   H284 9646   5.912   4.160   3.986 -0.2879 -0.5324  3.1713
   32MOL   H285 9647   6.091   3.571   3.880 -3.7963  1.5077  2.9934
   32MOL   H286 9648   6.241   3.521   3.950  0.1004  0.5664  0.0842
   32MOL   C287 9649   6.069   3.403   4.012 -0.1447  0.0639  0.2762
   32MOL   O288 9650   5.927   3.418   4.010 -0.2922  0.1092  0.0667
   32MOL   C289 9651   5.855   3.382   4.121  0.4909 -0.3036  0.5597
   32MOL   O290 9652   5.906   3.331   4.221  0.2863 -0.1113 -0.2806
   32MOL   C291 9653   5.716   3.439   4.115  0.8139  0.2981 -0.5516
   32MOL   C292 9654   5.680   3.493   4.253 -0.2762 -0.0899  0.6984
   32MOL   C293 9655   6.097   3.280   3.921  0.0993 -0.2630  0.1262
   32MOL   H294 9656   6.105   3.371   4.110 -2.1211  2.5956  1.9021
   32MOL   H295 9657   5.707   3.518   4.040  1.9900 -0.8983 -1.9836
   32MOL   H296 9658   5.651   3.354   4.095 -0.9715  1.8097 -1.3684
   32MOL   H297 9659   5.710   3.419   4.327  3.2715 -0.8409 -1.3567
   32MOL   H298 9660   5.743   3.576   4.284  3.1556 -2.3538  0.0517
   32MOL   H299 9661   5.577   3.524   4.266 -0.2365  1.0087 -1.3666
   32MOL   H300 9662   6.201   3.252   3.898  0.0242  0.0136 -0.5681
   32MOL   H301 9663   6.051   3.187   3.955 -1.0644  0.4098  0.3838
   32MOL   H302 9664   6.044   3.280   3.826 -2.5270 -1.0597  1.5621
   33MOL     C1 9665   5.468   0.726   5.803  0.1498 -0.5122 -0.4708
   33MOL     O2 9666   5.439   0.585   5.807 -0.2590 -0.2069  0.1466
   33MOL     C3 9667   5.538   0.497   5.812 -0.9249  0.5260 -0.5282
   33MOL     O4 9668   5.659   0.530   5.822  0.3439  0.0366 -0.5310
   33MOL     C5 9669   5.496   0.345   5.820  0.1988 -0.3327  0.0659
   33MOL     C6 9670   5.462   0.280   5.687 -0.1604 -0.0437  0.4159
   33MOL     C7 9671   5.407   0.791   5.929  0.4182 -0.3396 -0.4275
   33MOL     H8 9672   5.434   0.765   5.707  0.4719  0.2149 -0.2949
   33MOL     H9 9673   5.585   0.311   5.873  0.3606  0.1385  0.0920
   33MOL    H10 9674   5.412   0.324   5.887 -1.0775 -0.0214 -1.4205
   33MOL    H11 9675   5.553   0.255   5.633 -0.9606 -1.3107 -0.3838
   33MOL    H12 9676   5.415   0.182   5.699  0.5387 -0.6206 -1.3693
   33MOL    H13 9677   5.397   0.342   5.624  1.7040 -0.1255 -1.6512
   33MOL    H14 9678   5.298   0.781   5.923  0.2926 -0.1315  1.2420
   33MOL    H15 9679   5.441   0.747   6.023 -0.6320 -0.2662 -0.0054
   33MOL    H16 9680   5.576   0.736   5.815  0.4010 -1.2571 -1.9772
   33MOL    C17 9681   5.435   0.949   5.930 -0.6259  0.2210  0.0657
   33MOL    O18 9682   5.351   1.007   5.829 -0.1901 -0.2609 -0.8859
   33MOL    C19 9683   5.400   1.041   5.706 -0.3235 -0.0912 -0.8730
   33MOL    O20 9684   5.516   1.024   5.669  0.6222 -0.5170  0.5530
   33MOL    C21 9685   5.288   1.095   5.616  0.2609  0.1022 -0.1092
   33MOL    C22 9686   5.174   0.995   5.588 -0.2179  0.6964 -0.3491
   33MOL    C23 9687   5.411   1.017   6.070  0.0206  0.5600  0.2116
   33MOL    H24 9688   5.539   0.973   5.913 -0.6030  1.0655  1.2949
   33MOL    H25 9689   5.242   1.181   5.665  0.0983  0.0587 -0.1829
   33MOL    H26 9690   5.325   1.138   5.522 -0.3098  0.9759  0.0538
   33MOL    H27 9691   5.228   0.911   5.545 -0.9899  1.1705 -2.2904
   33MOL    H28 9692   5.100   0.968   5.664  1.2861  0.6563  1.1276
   33MOL    H29 9693   5.111   1.042   5.512 -0.6708  0.1154 -0.3371
   33MOL    H30 9694   5.305   1.037   6.086 -0.0905  0.2318 -0.0865
   33MOL    H31 9695   5.437   0.948   6.151 -1.6748  1.3508  1.4623
   33MOL    C32 9696   5.494   1.132   6.113  0.4058  0.1212  0.8846
   33MOL    O33 9697   5.473   1.239   6.019 -0.0156 -0.5346  0.1556
   33MOL    C34 9698   5.580   1.305   5.969  0.2583 -0.1428  0.3460
   33MOL    O35 9699   5.699   1.279   5.990 -0.0212  0.2889  0.4812
   33MOL    C36 9700   5.553   1.418   5.874  0.1609  0.3561 -0.5056
   33MOL    C37 9701   5.529   1.365   5.727  0.0011 -0.1838  0.1124
   33MOL    C38 9702   5.468   1.193   6.252 -0.2949 -0.1727 -0.2889
   33MOL    H39 9703   5.601   1.108   6.110  0.8447  2.0381  0.2809
   33MOL    H40 9704   5.470   1.483   5.899  1.1978  1.7841 -0.6732
   33MOL    H41 9705   5.647   1.473   5.869  1.1606 -1.2044  0.6129
   33MOL    H42 9706   5.554   1.429   5.643 -3.7798 -0.5554 -1.4011
   33MOL    H43 9707   5.584   1.276   5.698 -0.0709  0.2520 -1.3604
   33MOL    H44 9708   5.424   1.343   5.707  0.4803  0.2352 -2.9938
   33MOL    H45 9709   5.520   1.287   6.270 -0.6091 -0.2488  1.0527
   33MOL    H46 9710   5.361   1.202   6.267 -0.2255 -2.7374  2.3322
   33MOL    C47 9711   5.513   1.100   6.369  0.1502 -0.5800  0.7172
   33MOL    O48 9712   5.657   1.097   6.376 -0.2483 -0.6420  0.3116
   33MOL    C49 9713   5.723   1.197   6.423  0.5237  0.0417 -0.6694
   33MOL    O50 9714   5.677   1.303   6.466  0.2462 -0.4618 -0.0446
   33MOL    C51 9715   5.870   1.168   6.453 -0.3580  0.2295 -0.1654
   33MOL    C52 9716   5.889   1.032   6.519  0.6128  0.6410  0.7644
   33MOL    C53 9717   5.436   1.144   6.497 -0.3006 -0.6133  0.3661
   33MOL    H54 9718   5.481   0.997   6.351  1.3882 -0.7083 -0.8501
   33MOL    H55 9719   5.932   1.169   6.363 -1.7767 -0.4370 -1.1620
   33MOL    H56 9720   5.915   1.245   6.515 -0.5953 -0.7813  1.2763
   33MOL    H57 9721   5.869   0.954   6.445  2.6716  2.6930 -2.0875
   33MOL    H58 9722   5.994   1.015   6.540  0.4661 -1.0979  0.1339
   33MOL    H59 9723   5.840   1.018   6.615 -0.0580 -0.7952  0.2224
   33MOL    H60 9724   5.466   1.246   6.520  0.6202 -0.4367 -1.5407
   33MOL    H61 9725   5.327   1.147   6.493 -0.2643  0.3277  0.1314
   33MOL    C62 9726   5.477   1.060   6.625  1.2515 -0.2653  0.2635
   33MOL    O63 9727   5.422   1.137   6.733 -0.6902 -0.2439  0.2000
   33MOL    C64 9728   5.495   1.170   6.836  0.0763  0.3094 -0.4074
   33MOL    O65 9729   5.612   1.131   6.853 -0.4160  0.4649  0.1224
   33MOL    C66 9730   5.430   1.273   6.929 -0.1121 -0.0067 -0.5208
   33MOL    C67 9731   5.391   1.219   7.066 -0.4714  0.7405  0.2755
   33MOL    C68 9732   5.428   0.917   6.634 -0.0689  0.8342 -0.1951
   33MOL    H69 9733   5.585   1.076   6.628  0.7439  3.5696  1.3807
   33MOL    H70 9734   5.506   1.349   6.948 -0.7228  0.7706 -1.1062
   33MOL    H71 9735   5.341   1.313   6.881  0.5770 -0.1438 -1.9546
   33MOL    H72 9736   5.396   1.299   7.140  0.2527 -0.6585  1.7645
   33MOL    H73 9737   5.286   1.190   7.064 -0.4565  0.5536  1.5581
   33MOL    H74 9738   5.456   1.140   7.103 -0.7206  0.7789  0.8027
   33MOL    H75 9739   5.322   0.928   6.612  0.3765  1.8666 -1.8492
   33MOL    H76 9740   5.480   0.870   6.550 -0.0116 -3.3100  1.9804
   33MOL    C77 9741   5.449   0.830   6.766  0.0032 -0.4073 -0.1220
   33MOL    O78 9742   5.351   0.865   6.862 -0.0675  0.0751  0.2000
   33MOL    C79 9743   5.366   0.865   7.001 -0.4999 -1.1509  0.4339
   33MOL    O80 9744   5.471   0.869   7.063 -0.3142  0.3257  0.6108
   33MOL    C81 9745   5.239   0.867   7.085 -0.0874 -0.2278 -0.2590
   33MOL    C82 9746   5.174   0.731   7.088 -0.2216 -0.4862  0.3743
   33MOL    C83 9747   5.438   0.676   6.753 -0.3767  0.3371  0.2038
   33MOL    H84 9748   5.543   0.859   6.811 -0.2652 -0.5807  0.5606
   33MOL    H85 9749   5.259   0.911   7.183 -3.2021 -0.5002  0.5534
   33MOL    H86 9750   5.173   0.944   7.046  0.9730 -1.2044 -4.1897
   33MOL    H87 9751   5.089   0.723   7.156 -1.0593  0.2813 -0.5652
   33MOL    H88 9752   5.129   0.713   6.991 -0.0687 -0.7436  0.3507
   33MOL    H89 9753   5.249   0.652   7.098 -0.0679 -0.4933 -0.7895
   33MOL    H90 9754   5.455   0.634   6.853  3.2861 -1.5017 -1.0932
   33MOL    H91 9755   5.341   0.635   6.724  0.4135 -1.0047 -0.6456
   33MOL    C92 9756   5.555   0.621   6.665 -0.0097  0.6677 -0.0211
   33MOL    O93 9757   5.681   0.628   6.731 -0.0032  0.1112 -0.5431
   33MOL    C94 9758   5.790   0.657   6.658 -0.8787 -0.8458 -0.5275
   33MOL    O95 9759   5.798   0.666   6.535 -0.0045 -0.2545  0.8403
   33MOL    C96 9760   5.923   0.667   6.747 -0.0310 -0.6623 -0.4313
   33MOL    C97 9761   6.032   0.749   6.678  0.1385  0.9475 -0.0897
   33MOL    C98 9762   5.535   0.470   6.646 -0.3954  0.4436 -1.0488
   33MOL    H99 9763   5.560   0.658   6.563  1.4526  0.4097 -0.0646
   33MOL   H100 9764   5.891   0.716   6.839  0.4248  0.6334 -0.9515
   33MOL   H101 9765   5.963   0.569   6.770  0.2120 -0.5894 -0.5484
   33MOL   H102 9766   6.128   0.725   6.724  0.3153 -0.0274 -0.9624
   33MOL   H103 9767   6.056   0.734   6.573 -1.1596 -2.3052  0.0310
   33MOL   H104 9768   6.024   0.856   6.700 -1.2521  0.3244  2.6962
   33MOL   H105 9769   5.633   0.423   6.633 -0.4833 -0.4554  1.2631
   33MOL   H106 9770   5.518   0.433   6.747 -0.4615  1.2569 -0.7621
   33MOL   C107 9771   5.423   0.422   6.554 -0.2475  0.0281 -0.2969
   33MOL   O108 9772   5.455   0.442   6.422 -0.2825 -0.8006  0.3037
   33MOL   C109 9773   5.376   0.519   6.343 -0.1887  0.1885 -0.3514
   33MOL   O110 9774   5.272   0.578   6.377 -0.1439 -0.0587  0.2240
   33MOL   C111 9775   5.429   0.528   6.201  0.4804 -0.4302 -0.0077
   33MOL   C112 9776   5.567   0.580   6.189  0.1936 -0.3891 -0.1895
   33MOL   C113 9777   5.378   0.283   6.578 -0.0201 -0.0270 -0.4182
   33MOL   H114 9778   5.335   0.480   6.578 -0.4935 -1.2247  1.9561
   33MOL   H115 9779   5.433   0.431   6.151 -0.1018 -0.7182  0.5041
   33MOL   H116 9780   5.363   0.589   6.139 -0.6644 -1.3921  0.2595
   33MOL   H117 9781   5.593   0.584   6.083  0.1373  0.3243 -0.1784
   33MOL   H118 9782   5.560   0.685   6.218  1.4658 -0.4452  0.4024
   33MOL   H119 9783   5.643   0.529   6.249  0.6263  1.6607  1.0614
   33MOL   H120 9784   5.325   0.246   6.491 -1.0881 -1.2064  0.7218
   33MOL   H121 9785   5.464   0.226   6.615  1.3582  1.1205 -1.7666
   33MOL   C122 9786   5.273   0.273   6.693  0.2100  0.3470 -0.9534
   33MOL   O123 9787   5.142   0.280   6.627 -0.2492 -0.0189  0.0343
   33MOL   C124 9788   5.060   0.387   6.639 -0.1147 -0.0688  0.9156
   33MOL   O125 9789   5.089   0.479   6.713 -0.1595 -0.0571 -0.2661
   33MOL   C126 9790   4.942   0.391   6.539 -0.3777 -0.0552  0.1960
   33MOL   C127 9791   4.986   0.360   6.388 -0.0938 -0.2978  0.5152
   33MOL   C128 9792   5.285   0.138   6.766  0.9758  0.2371  0.6023
   33MOL   H129 9793   5.283   0.354   6.765 -3.5530  0.1741 -0.1534
   33MOL   H130 9794   4.866   0.320   6.569 -0.9698  0.5523  0.1338
   33MOL   H131 9795   4.915   0.496   6.532  2.3508  0.6546 -0.5486
   33MOL   H132 9796   4.904   0.408   6.334 -0.5991 -1.5491  0.1564
   33MOL   H133 9797   5.075   0.413   6.355 -1.2883  1.0660 -0.5894
   33MOL   H134 9798   4.978   0.262   6.340  0.5435  0.6364 -1.5637
   33MOL   H135 9799   5.185   0.101   6.791  0.3108  0.7839 -1.1329
   33MOL   H136 9800   5.318   0.068   6.689 -0.0125 -0.4298  0.7746
   33MOL   C137 9801   5.374   0.139   6.898 -0.1755  0.1691 -0.2411
   33MOL   O138 9802   5.288   0.153   7.014 -0.5378  0.1478  0.0998
   33MOL   C139 9803   5.252   0.282   7.053 -0.4115 -0.0841  0.1438
   33MOL   O140 9804   5.278   0.384   6.998 -0.9170 -0.4203 -0.5348
   33MOL   C141 9805   5.168   0.285   7.175 -0.0051 -0.0496 -0.5366
   33MOL   C142 9806   5.231   0.228   7.300  0.2222 -0.3974 -0.4894
   33MOL   C143 9807   5.445   0.010   6.918  0.5971 -0.5265  0.1577
   33MOL   H144 9808   5.448   0.218   6.893  0.3784 -0.2552  0.9672
   33MOL   H145 9809   5.129   0.386   7.190 -1.6055 -0.8989  1.0845
   33MOL   H146 9810   5.087   0.217   7.150 -0.8191  0.6741  0.1329
   33MOL   H147 9811   5.316   0.288   7.332  0.2180 -1.2619  1.2509
   33MOL   H148 9812   5.165   0.229   7.387  0.7236 -0.3576 -0.1012
   33MOL   H149 9813   5.260   0.123   7.286 -0.0996 -0.7690  1.4625
   33MOL   H150 9814   5.363   7.896   6.958  0.9478 -0.4261  1.0496
   33MOL   H151 9815   5.489   7.911   6.829 -1.7702  2.0631 -2.4024
   33MOL   C152 9816   5.548   0.010   7.031  0.3195  0.1745 -1.0219
   33MOL   O153 9817   5.559   7.823   7.064  0.2966  0.6694 -0.1623
   33MOL   C154 9818   5.502   7.766   7.171 -0.4866  0.0209  0.3304
   33MOL   O155 9819   5.441   7.821   7.260  0.3863 -0.0808 -0.2085
   33MOL   C156 9820   5.533   7.611   7.176  0.1646  0.4578  0.7574
   33MOL   C157 9821   5.542   7.545   7.318 -0.4539  0.5971 -0.6141
   33MOL   C158 9822   5.688   0.066   6.986 -1.4157  0.2068  0.3143
   33MOL   H159 9823   5.521   0.071   7.118  0.1918 -0.9816 -0.2501
   33MOL   H160 9824   5.469   7.556   7.107 -0.8046 -0.0081  2.0152
   33MOL   H161 9825   5.635   7.614   7.136 -0.5427 -0.3199 -1.1342
   33MOL   H162 9826   5.443   7.540   7.362  0.0461 -1.0174  0.3792
   33MOL   H163 9827   5.583   7.444   7.320 -0.5888  0.4550 -3.4584
   33MOL   H164 9828   5.615   7.599   7.380  1.8443 -2.1080 -0.8504
   33MOL   H165 9829   5.750   0.056   7.075 -0.4223  1.0292 -0.2774
   33MOL   H166 9830   5.735   7.943   6.916  1.1183 -0.6667  2.7893
   33MOL   C167 9831   5.701   0.217   6.948  0.1385 -0.3920  0.3171
   33MOL   O168 9832   5.660   0.279   7.068 -0.1119  0.5475  0.1082
   33MOL   C169 9833   5.603   0.403   7.061  0.5184  0.2577  0.2010
   33MOL   O170 9834   5.616   0.473   6.962 -0.0271 -0.3158  0.3758
   33MOL   C171 9835   5.545   0.445   7.199  0.5477  0.2484 -0.7087
   33MOL   C172 9836   5.599   0.577   7.248 -0.4191 -0.6071 -0.3558
   33MOL   C173 9837   5.844   0.266   6.915  0.5605 -0.0602  0.3124
   33MOL   H174 9838   5.637   0.233   6.861  0.2343  0.8871  0.4717
   33MOL   H175 9839   5.437   0.448   7.190  0.3824  1.3135  1.4136
   33MOL   H176 9840   5.562   0.370   7.276 -1.3597 -0.4940 -0.9864
   33MOL   H177 9841   5.704   0.556   7.268 -0.0169  1.0321 -0.6888
   33MOL   H178 9842   5.594   0.664   7.182 -0.5830 -0.7500 -0.5294
   33MOL   H179 9843   5.560   0.616   7.342 -0.2606  0.7617 -0.8480
   33MOL   H180 9844   5.838   0.371   6.886 -1.4119  0.1959  1.5790
   33MOL   H181 9845   5.900   0.257   7.008 -0.1227 -2.0993  0.5289
   33MOL   C182 9846   5.914   0.191   6.802 -0.3861  1.1097  0.0836
   33MOL   O183 9847   5.835   0.205   6.678  0.3198  0.3779 -0.3063
   33MOL   C184 9848   5.783   0.098   6.624 -1.0685  1.1870 -0.0994
   33MOL   O185 9849   5.770   7.930   6.668  0.4034 -0.1488  0.4701
   33MOL   C186 9850   5.737   0.125   6.484 -0.7298 -0.1878 -0.1219
   33MOL   C187 9851   5.846   0.155   6.383 -0.6959  0.1876  0.9076
   33MOL   C188 9852   6.062   0.230   6.769  0.1001 -0.1604 -0.0057
   33MOL   H189 9853   5.914   0.086   6.831  0.5971  1.2646  0.6379
   33MOL   H190 9854   5.668   0.045   6.456 -0.8264 -0.8784  2.0234
   33MOL   H191 9855   5.667   0.208   6.493  1.2377  1.4553  0.5513
   33MOL   H192 9856   5.902   0.244   6.414 -0.3162  0.0196  0.7027
   33MOL   H193 9857   5.918   0.074   6.375  0.8020  1.7704 -2.3169
   33MOL   H194 9858   5.805   0.177   6.285  3.3135 -1.7906 -1.3123
   33MOL   H195 9859   6.100   0.158   6.696 -1.7985  0.2249 -1.4205
   33MOL   H196 9860   6.068   0.336   6.742 -0.6053 -0.1202 -0.0122
   33MOL   C197 9861   6.153   0.198   6.890 -0.6802  0.0985  0.2967
   33MOL   O198 9862   6.136   0.062   6.936  0.3086 -0.1848 -0.0489
   33MOL   C199 9863   6.112   0.028   7.067 -0.7000 -0.2375  0.2161
   33MOL   O200 9864   6.107   0.107   7.158  0.2711  0.5513 -0.3208
   33MOL   C201 9865   6.075   7.827   7.084  0.4004  0.4218 -0.2948
   33MOL   C202 9866   5.987   7.800   7.205 -0.1495 -0.6436  0.2394
   33MOL   C203 9867   6.296   0.233   6.853  0.6953  0.3633  0.1086
   33MOL   H204 9868   6.117   0.267   6.966 -0.0813  2.2849 -1.3445
   33MOL   H205 9869   6.021   7.796   6.995 -0.6803  2.8618 -0.5238
   33MOL   H206 9870   6.154   7.753   7.068  0.3816  0.5318 -0.8917
   33MOL   H207 9871   5.911   7.879   7.211 -0.1062 -0.6879  1.4664
   33MOL   H208 9872   5.932   7.707   7.189  1.7027 -1.6744 -0.2183
   33MOL   H209 9873   6.047   7.801   7.296 -1.1937 -0.4143  0.9482
   33MOL   H210 9874   6.367   0.198   6.928 -0.1712  0.7490  1.1215
   33MOL   H211 9875   6.312   0.185   6.757 -0.6430 -1.1455  0.6236
   33MOL   C212 9876   6.334   0.383   6.843  0.5441  0.6338 -0.1180
   33MOL   O213 9877   6.341   0.445   6.970 -0.1428 -0.5748  0.7281
   33MOL   C214 9878   6.241   0.528   7.019 -0.2634 -1.4253 -0.3037
   33MOL   O215 9879   6.131   0.545   6.966 -0.2777  0.2261  0.4214
   33MOL   C216 9880   6.271   0.600   7.154  0.4218 -0.1776  0.1788
   33MOL   C217 9881   6.305   0.753   7.139  0.8987 -0.3275  0.5722
   33MOL   C218 9882   6.472   0.394   6.771 -0.3129  0.0735 -0.1834
   33MOL   H219 9883   6.255   0.425   6.780 -0.5313 -0.4479  0.4825
   33MOL   H220 9884   6.173   0.593   7.201  0.5915 -0.5915  0.4741
   33MOL   H221 9885   6.336   0.537   7.214  0.5986  0.4069  0.6129
   33MOL   H222 9886   6.262   0.800   7.227 -1.7631 -0.2594 -0.7269
   33MOL   H223 9887   6.413   0.757   7.150  0.9615 -0.7855  0.1172
   33MOL   H224 9888   6.272   0.804   7.049 -1.1835  1.3139  2.1997
   33MOL   H225 9889   6.562   0.348   6.811  0.2714  2.3510  1.2277
   33MOL   H226 9890   6.457   0.345   6.675 -0.5324 -2.0539  0.9026
   33MOL   C227 9891   6.508   0.542   6.745  0.1943 -0.4917  0.1534
   33MOL   O228 9892   6.627   0.523   6.687  0.0615  0.4517 -0.0310
   33MOL   C229 9893   6.733   0.590   6.732  0.8757 -0.4787  0.6361
   33MOL   O230 9894   6.731   0.671   6.826 -0.2055  0.1193  0.0789
   33MOL   C231 9895   6.850   0.563   6.641  0.0102  0.1254 -0.7930
   33MOL   C232 9896   6.819   0.586   6.490  0.2806 -1.0687 -0.1263
   33MOL   C233 9897   6.414   0.607   6.639  0.3348  0.3200  0.2643
   33MOL   H234 9898   6.508   0.600   6.837  1.4221 -1.0187  0.4992
   33MOL   H235 9899   6.925   0.627   6.688 -0.1015 -1.8768  2.2400
   33MOL   H236 9900   6.879   0.460   6.662  1.3038  0.9583  1.7169
   33MOL   H237 9901   6.778   0.687   6.482 -0.2921 -1.1991  1.0274
   33MOL   H238 9902   6.906   0.569   6.427  0.2099  0.8910 -0.8004
   33MOL   H239 9903   6.740   0.523   6.451 -0.9857 -0.8024  1.9333
   33MOL   H240 9904   6.424   0.557   6.543 -2.2881 -0.7657  0.5122
   33MOL   H241 9905   6.308   0.592   6.662 -0.1889  3.3134 -0.0058
   33MOL   C242 9906   6.436   0.750   6.604  0.8377 -0.1947  0.2018
   33MOL   O243 9907   6.354   0.792   6.492  0.6635 -0.1070 -0.2988
   33MOL   C244 9908   6.398   0.773   6.367  0.5087  0.5830  0.3060
   33MOL   O245 9909   6.517   0.733   6.338 -0.4649  0.2643  0.0959
   33MOL   C246 9910   6.293   0.807   6.252 -0.7458 -0.2172 -0.1061
   33MOL   C247 9911   6.316   0.952   6.210  0.4317  0.6470 -0.2002
   33MOL   C248 9912   6.404   0.846   6.720 -1.1929  0.2085 -0.0655
   33MOL   H249 9913   6.542   0.757   6.579  0.5793  0.8461 -0.6316
   33MOL   H250 9914   6.293   0.731   6.173 -0.9160  2.5596 -2.8665
   33MOL   H251 9915   6.193   0.799   6.295  0.1872 -2.1191  1.8375
   33MOL   H252 9916   6.252   0.994   6.132  1.5809 -0.1939 -1.6126
   33MOL   H253 9917   6.318   1.015   6.299  0.3969  2.0100 -1.1460
   33MOL   H254 9918   6.416   0.946   6.167  0.7361 -1.1035  0.7250
   33MOL   H255 9919   6.309   0.899   6.709 -0.4517  1.0925 -2.4395
   33MOL   H256 9920   6.388   0.791   6.813 -1.0719  2.5868  1.4125
   33MOL   C257 9921   6.521   0.933   6.747  0.2078  0.5172  0.0708
   33MOL   O258 9922   6.535   1.039   6.647 -0.0623 -0.0003 -0.0742
   33MOL   C259 9923   6.646   1.046   6.569  0.1700  0.2726  0.3728
   33MOL   O260 9924   6.752   0.981   6.576  0.2140 -0.7060  0.0254
   33MOL   C261 9925   6.635   1.151   6.466 -0.1954 -0.4549  0.9921
   33MOL   C262 9926   6.690   1.286   6.510  0.0648 -0.5004  0.5540
   33MOL   C263 9927   6.518   1.002   6.885 -0.4240 -0.2039 -0.2342
   33MOL   H264 9928   6.606   0.866   6.732 -2.1830 -2.2455 -1.7098
   33MOL   H265 9929   6.696   1.115   6.384  2.6141  0.4849  2.5963
   33MOL   H266 9930   6.529   1.155   6.440  0.1856  0.8445 -0.4541
   33MOL   H267 9931   6.717   1.292   6.615  0.0879  1.8225  0.4378
   33MOL   H268 9932   6.767   1.318   6.439 -0.5291 -0.7153 -0.1965
   33MOL   H269 9933   6.612   1.359   6.491  1.3224  0.4729 -1.0415
   33MOL   H270 9934   6.437   1.072   6.902  0.4019  0.8362 -0.5232
   33MOL   H271 9935   6.518   0.921   6.958  3.7544 -1.1696 -1.1501
   33MOL   C272 9936   6.634   1.087   6.932  0.6390  0.8112  0.2457
   33MOL   O273 9937   6.600   1.145   7.059 -0.0885  0.0557  0.2241
   33MOL   C274 9938   6.546   1.268   7.055 -0.5563  1.0229  0.1770
   33MOL   O275 9939   6.501   1.327   6.964  0.2633  0.3849  0.1278
   33MOL   C276 9940   6.557   1.329   7.193 -0.0602 -0.4261  0.6550
   33MOL   C277 9941   6.702   1.352   7.239 -0.7502  0.9417  0.4086
   33MOL   C278 9942   6.763   0.997   6.946  0.1941  0.2736 -0.8466
   33MOL   H279 9943   6.650   1.172   6.866 -1.6444 -1.0943 -2.8408
   33MOL   H280 9944   6.506   1.426   7.199  3.3507  1.3491  3.1231
   33MOL   H281 9945   6.501   1.268   7.264 -0.6203  0.9424  1.4192
   33MOL   H282 9946   6.766   1.386   7.157  1.4288 -0.3784  1.5144
   33MOL   H283 9947   6.716   1.421   7.323  2.2436 -0.2082  0.9463
   33MOL   H284 9948   6.743   1.256   7.270  0.7613  0.5811 -2.5279
   33MOL   H285 9949   6.748   0.924   7.025 -0.5257  1.5430  0.2024
   33MOL   H286 9950   6.782   0.935   6.858  1.9909 -0.5852  0.1119
   33MOL   C287 9951   6.893   1.075   6.973  1.1012  0.3432 -0.1751
   33MOL   O288 9952   7.014   1.001   6.981  0.3694 -0.3184  0.6812
   33MOL   C289 9953   7.042   0.930   7.094 -0.3136  0.2080 -0.1052
   33MOL   O290 9954   6.960   0.912   7.187 -0.8365  0.4873 -0.5519
   33MOL   C291 9955   7.168   0.850   7.085  0.1271 -0.4540 -1.2682
   33MOL   C292 9956   7.294   0.930   7.127  0.5763  0.6294  0.3159
   33MOL   C293 9957   6.923   1.184   6.873 -0.4328  0.7047  0.0511
   33MOL   H294 9958   6.882   1.125   7.069  1.0788  0.3942 -0.2048
   33MOL   H295 9959   7.156   0.760   7.144 -0.0273  1.1693  1.2754
   33MOL   H296 9960   7.183   0.831   6.979  2.1029 -1.0057 -0.9155
   33MOL   H297 9961   7.384   0.869   7.130  0.3877  0.1428 -2.3788
   33MOL   H298 9962   7.325   1.002   7.052  0.9503 -0.4444 -0.5755
   33MOL   H299 9963   7.295   0.988   7.219  0.1396  0.5352  0.3811
   33MOL   H300 9964   6.866   1.272   6.904 -0.9795 -0.0702  1.2668
   33MOL   H301 9965   7.025   1.221   6.861  0.2739 -1.2877 -0.2531
   33MOL   H302 9966   6.900   1.153   6.772  0.0245  2.6296 -0.6810
   34MOL     C1 9967   2.053   3.418   0.702 -0.6739 -0.0216 -0.5045
   34MOL     O2 9968   2.155   3.313   0.721  0.5513  0.4476  0.0246
   34MOL     C3 9969   2.121   3.195   0.759 -0.7907 -0.1457 -0.7451
   34MOL     O4 9970   2.014   3.170   0.821 -0.8153 -0.6542  0.3124
   34MOL     C5 9971   2.220   3.085   0.722 -0.1676 -0.3497  0.1000
   34MOL     C6 9972   2.169   2.991   0.618  0.5071  0.6903  0.1204
   34MOL     C7 9973   2.107   3.561   0.679  0.1977 -0.5915 -0.1725
   34MOL     H8 9974   2.009   3.421   0.802 -0.8207 -0.8476 -0.5404
   34MOL     H9 9975   2.318   3.123   0.694 -1.1961  0.2583 -2.8526
   34MOL    H10 9976   2.244   3.025   0.809  1.2487 -1.6532 -1.1553
   34MOL    H11 9977   2.090   2.931   0.663  1.9143 -2.7673 -1.7876
   34MOL    H12 9978   2.143   3.038   0.523 -2.5988  1.3431  1.2398
   34MOL    H13 9979   2.253   2.925   0.598 -0.4327 -0.6560  0.5327
   34MOL    H14 9980   2.026   3.631   0.700 -0.1687 -0.9038 -0.5256
   34MOL    H15 9981   2.185   3.589   0.750 -0.3495  0.5065 -0.0001
   34MOL    H16 9982   1.988   3.378   0.624 -0.9154  0.2583 -0.4490
   34MOL    C17 9983   2.156   3.572   0.535  0.0014 -0.0810  0.3902
   34MOL    O18 9984   2.046   3.587   0.448  0.1155  0.5452 -0.8909
   34MOL    C19 9985   2.045   3.574   0.314 -0.2157  0.1814 -0.0195
   34MOL    O20 9986   2.141   3.582   0.241 -0.4959  0.0088  0.0346
   34MOL    C21 9987   1.915   3.527   0.253  0.1752  0.9844 -0.3611
   34MOL    C22 9988   1.813   3.646   0.239  0.4441  0.1216  0.2522
   34MOL    C23 9989   2.240   3.701   0.509 -0.6197  0.1340 -0.3760
   34MOL    H24 9990   2.219   3.487   0.509 -0.2697 -0.1208 -0.1361
   34MOL    H25 9991   1.945   3.475   0.163  1.7125  0.1508  0.6143
   34MOL    H26 9992   1.865   3.460   0.323  0.4015  0.8339 -0.3461
   34MOL    H27 9993   1.753   3.635   0.149 -0.0942 -2.5289  0.8996
   34MOL    H28 9994   1.758   3.660   0.332 -2.1208 -0.3162 -1.1607
   34MOL    H29 9995   1.877   3.729   0.210  0.2503 -0.0702 -0.7350
   34MOL    H30 9996   2.265   3.721   0.405 -2.9145  3.1262 -0.4466
   34MOL    H31 9997   2.171   3.785   0.520 -0.7807  0.3229 -2.6383
   34MOL    C32 9998   2.377   3.712   0.596 -0.2473 -0.1059  0.5107
   34MOL    O33 9999   2.476   3.631   0.530  0.2304 -0.1485  0.1897
   34MOL    C3410000   2.558   3.556   0.606  0.5168  0.5051  1.0073
   34MOL    O3510001   2.585   3.576   0.724 -0.4303 -0.3621  0.2535
   34MOL    C3610002   2.606   3.435   0.527 -0.1949  0.0316 -0.1534
   34MOL    C3710003   2.535   3.303   0.572 -0.4661  0.4540  0.4902
   34MOL    C3810004   2.443   3.856   0.599  0.2502 -0.3635 -0.1708
   34MOL    H3910005   2.367   3.665   0.694  1.3369  0.2037  0.8340
   34MOL    H4010006   2.585   3.457   0.422 -2.4643 -1.0748  0.0239
   34MOL    H4110007   2.712   3.412   0.534 -0.4310 -0.9290  0.4018
   34MOL    H4210008   2.427   3.313   0.570 -0.3747  1.3779 -0.1071
   34MOL    H4310009   2.564   3.217   0.512 -0.7382  0.3785  0.4682
   34MOL    H4410010   2.554   3.278   0.677 -3.6167 -0.5918  0.8553
   34MOL    H4510011   2.542   3.852   0.645  0.0800  0.2049  0.2395
   34MOL    H4610012   2.438   3.887   0.494 -0.9675 -3.4149 -1.0738
   34MOL    C4710013   2.355   3.952   0.674 -0.5842  0.6716 -0.1166
   34MOL    O4810014   2.344   3.904   0.803 -0.2954 -0.6131  0.0336
   34MOL    C4910015   2.232   3.868   0.864 -0.2570  1.5362  0.2176
   34MOL    O5010016   2.121   3.898   0.825 -0.3030  0.2723  0.0866
   34MOL    C5110017   2.256   3.808   1.003 -0.7910 -0.0104  0.4162
   34MOL    C5210018   2.327   3.670   1.007  0.0931 -0.4118  0.7577
   34MOL    C5310019   2.420   4.089   0.677  0.6232 -0.3352 -0.1239
   34MOL    H5410020   2.255   3.963   0.632 -2.1672 -3.1403  2.3536
   34MOL    H5510021   2.313   3.883   1.058 -2.0810  2.3390 -1.3684
   34MOL    H5610022   2.162   3.792   1.056 -0.8495 -0.9265  0.0375
   34MOL    H5710023   2.261   3.595   0.963  1.3877 -1.3674  0.4239
   34MOL    H5810024   2.422   3.667   0.953 -1.0699 -2.9655 -1.2659
   34MOL    H5910025   2.355   3.641   1.108  1.0420  3.3268  1.6677
   34MOL    H6010026   2.491   4.083   0.759 -0.9560  0.9058  1.3697
   34MOL    H6110027   2.476   4.092   0.583  2.4863 -1.5804  0.9171
   34MOL    C6210028   2.329   4.210   0.705  0.6515 -0.6984 -0.2753
   34MOL    O6310029   2.408   4.328   0.732  0.0067 -0.1449  0.0132
   34MOL    C6410030   2.369   4.416   0.829 -0.2082 -0.3876  0.5589
   34MOL    O6510031   2.262   4.423   0.881 -0.8002  0.3271  0.1754
   34MOL    C6610032   2.491   4.500   0.873  0.7896 -0.1707  0.2781
   34MOL    C6710033   2.456   4.638   0.919 -0.0062  0.2990  0.2806
   34MOL    C6810034   2.221   4.228   0.594 -0.5082 -0.0921 -0.7040
   34MOL    H6910035   2.282   4.198   0.803 -1.4324  1.3867 -0.9520
   34MOL    H7010036   2.546   4.451   0.953  2.1559  0.9989  0.0659
   34MOL    H7110037   2.564   4.521   0.796  0.0821 -2.3099 -1.0198
   34MOL    H7210038   2.459   4.710   0.838  2.7523  0.9434  0.8982
   34MOL    H7310039   2.357   4.647   0.962  0.0017 -0.0022  0.3681
   34MOL    H7410040   2.525   4.669   0.998 -1.9375  2.2387  1.2396
   34MOL    H7510041   2.259   4.265   0.499  2.6144  2.7086  1.5179
   34MOL    H7610042   2.183   4.130   0.565  1.1605 -0.6948 -0.9279
   34MOL    C7710043   2.097   4.316   0.620 -0.7773  0.2166 -0.2591
   34MOL    O7810044   2.027   4.321   0.493  0.3625  0.0819  0.3491
   34MOL    C7910045   2.019   4.440   0.420  0.2722 -1.0009  0.1440
   34MOL    O8010046   2.074   4.547   0.446 -0.2819 -0.3437 -0.2949
   34MOL    C8110047   1.929   4.432   0.300  0.0088  0.3848 -0.3473
   34MOL    C8210048   1.790   4.378   0.329 -0.7244  0.9481  0.3951
   34MOL    C8310049   2.001   4.253   0.723  0.1874  0.2613 -0.1494
   34MOL    H8410050   2.135   4.415   0.646  0.9780 -0.7148  0.7912
   34MOL    H8510051   1.922   4.526   0.246 -1.1220  0.6337  0.2384
   34MOL    H8610052   1.964   4.362   0.224  0.2119 -0.0275  0.1250
   34MOL    H8710053   1.781   4.281   0.377  2.0494  0.4600 -0.0001
   34MOL    H8810054   1.741   4.442   0.402 -1.0523 -0.5294  1.4983
   34MOL    H8910055   1.733   4.386   0.237  2.4060 -0.2785 -1.7404
   34MOL    H9010056   1.968   4.159   0.679  0.6664  0.3464 -0.6995
   34MOL    H9110057   2.061   4.228   0.810  1.4738  2.5013 -0.3381
   34MOL    C9210058   1.884   4.346   0.749  0.0053 -0.1848 -0.0488
   34MOL    O9310059   1.779   4.282   0.815 -0.3093 -0.3138 -0.0137
   34MOL    C9410060   1.656   4.277   0.762 -0.0608 -0.7312 -0.1851
   34MOL    O9510061   1.626   4.339   0.659 -0.3844 -0.2124  0.1043
   34MOL    C9610062   1.560   4.201   0.858 -0.1287 -0.2781 -0.4484
   34MOL    C9710063   1.602   4.054   0.880  0.0534  0.3754  0.0352
   34MOL    C9810064   1.920   4.478   0.821  0.0989  0.2936 -0.1547
   34MOL    H9910065   1.846   4.375   0.651 -0.4034 -0.4052  0.0388
   34MOL   H10010066   1.558   4.244   0.958  0.3046  0.2352 -0.6592
   34MOL   H10110067   1.458   4.212   0.819 -1.0256  0.9683  2.1652
   34MOL   H10210068   1.710   4.050   0.895 -0.4493 -2.2028  3.5046
   34MOL   H10310069   1.554   4.001   0.962 -2.5532 -0.4571 -1.9360
   34MOL   H10410070   1.576   4.001   0.788  0.0343  1.0629 -0.3638
   34MOL   H10510071   1.933   4.462   0.928  2.8360 -1.2945 -0.6790
   34MOL   H10610072   2.018   4.514   0.790  0.2182  0.2625  0.1848
   34MOL   C10710073   1.807   4.585   0.808  0.7018  0.2905 -0.0560
   34MOL   O10810074   1.828   4.686   0.912 -0.1927  0.2210  0.0188
   34MOL   C10910075   1.743   4.705   1.007 -0.3073 -0.1685  0.0645
   34MOL   O11010076   1.640   4.639   1.018  0.1956  0.1338  0.0326
   34MOL   C11110077   1.779   4.830   1.086 -0.4762 -0.0834 -0.4946
   34MOL   C11210078   1.694   4.869   1.207 -0.4834  0.0695 -0.5829
   34MOL   C11310079   1.801   4.661   0.675 -0.2909  1.2754 -0.2305
   34MOL   H11410080   1.712   4.534   0.823  0.1748  1.3979  0.3660
   34MOL   H11510081   1.880   4.812   1.123 -0.4847  0.1874 -0.3364
   34MOL   H11610082   1.786   4.918   1.023 -0.8168 -0.3734 -0.9412
   34MOL   H11710083   1.601   4.911   1.170 -0.1708 -1.3380 -3.0746
   34MOL   H11810084   1.660   4.794   1.278  3.4075  0.5861  1.9314
   34MOL   H11910085   1.737   4.951   1.264  0.3534 -0.6156 -0.2186
   34MOL   H12010086   1.878   4.738   0.677  0.6763  0.3051  0.5355
   34MOL   H12110087   1.818   4.595   0.591  2.9201  1.3610  0.2938
   34MOL   C12210088   1.655   4.724   0.663  0.2530  0.1284 -0.3631
   34MOL   O12310089   1.662   4.828   0.570 -0.4409  0.1094 -0.6518
   34MOL   C12410090   1.673   4.964   0.606  0.7240  0.5448 -0.1390
   34MOL   O12510091   1.698   5.007   0.722  0.0610  0.3070  0.1141
   34MOL   C12610092   1.663   5.057   0.490  0.0694 -0.0262  0.0321
   34MOL   C12710093   1.794   5.071   0.406 -0.7780  0.0869 -0.9907
   34MOL   C12810094   1.527   4.634   0.626 -0.1096 -0.2325  0.0209
   34MOL   H12910095   1.642   4.761   0.765  2.2264 -1.4110  0.4865
   34MOL   H13010096   1.581   5.019   0.428 -1.4400  1.1710  1.2413
   34MOL   H13110097   1.623   5.153   0.522 -1.1480 -0.2381 -0.8001
   34MOL   H13210098   1.883   5.073   0.468 -1.5709  1.4299  0.1260
   34MOL   H13310099   1.810   4.982   0.345  0.1945 -1.3013  1.2391
   34MOL   H13410100   1.796   5.168   0.355 -0.1963  0.3748 -0.4208
   34MOL   H13510101   1.540   4.595   0.525  1.9026  0.5078 -0.0208
   34MOL   H13610102   1.533   4.564   0.709  0.0572 -1.2688 -0.8556
   34MOL   C13710103   1.388   4.701   0.635  0.5798 -0.6303  0.2282
   34MOL   O13810104   1.286   4.599   0.604 -0.0519 -0.2133 -0.3581
   34MOL   C13910105   1.172   4.640   0.536  0.3404  0.4282 -0.7573
   34MOL   O14010106   1.157   4.752   0.485 -0.1771  0.1296 -0.6019
   34MOL   C14110107   1.060   4.534   0.535 -0.1351 -0.0303 -0.0094
   34MOL   C14210108   0.976   4.530   0.403 -0.4830 -0.4880 -0.4991
   34MOL   C14310109   1.359   4.756   0.777  0.2384  0.0487  0.6255
   34MOL   H14410110   1.390   4.779   0.559 -1.2660 -0.2386  0.5610
   34MOL   H14510111   1.110   4.438   0.533  0.0198  0.0605 -1.5076
   34MOL   H14610112   1.001   4.543   0.626 -0.5458 -1.2754 -0.1510
   34MOL   H14710113   0.918   4.622   0.392 -2.9342 -2.1758 -2.3611
   34MOL   H14810114   1.046   4.525   0.320 -0.8779  0.7208 -0.9134
   34MOL   H14910115   0.916   4.439   0.410  0.6969 -1.3011 -0.7509
   34MOL   H15010116   1.302   4.684   0.836  0.4951  0.4819  1.4020
   34MOL   H15110117   1.449   4.792   0.826  1.7123  1.6994 -3.1077
   34MOL   C15210118   1.264   4.886   0.780 -0.6915  0.5748 -0.7433
   34MOL   O15310119   1.232   4.899   0.924  0.4474  0.1829  0.1597
   34MOL   C15410120   1.111   4.859   0.969  0.0239 -0.0679  0.0868
   34MOL   O15510121   1.024   4.802   0.901 -0.0488  0.2164  0.1415
   34MOL   C15610122   1.093   4.882   1.117 -0.1602  0.1164  0.2734
   34MOL   C15710123   1.215   4.822   1.196  0.2181 -1.1211  0.2290
   34MOL   C15810124   1.330   5.014   0.725  0.7682  0.6859  0.3955
   34MOL   H15910125   1.178   4.856   0.720 -2.1900  0.7222  1.2662
   34MOL   H16010126   1.065   4.986   1.134 -0.2065  0.0091  0.8585
   34MOL   H16110127   1.018   4.819   1.165 -0.9614  0.0930 -0.9815
   34MOL   H16210128   1.225   4.714   1.183  0.4555 -1.2025  1.0244
   34MOL   H16310129   1.307   4.866   1.157  0.4156 -1.1216  0.6906
   34MOL   H16410130   1.190   4.829   1.302  1.6223 -3.9998  0.7801
   34MOL   H16510131   1.412   5.041   0.790  0.4300 -1.7147  1.8639
   34MOL   H16610132   1.380   4.993   0.630  0.7513  1.4618  0.2104
   34MOL   C16710133   1.228   5.121   0.702 -0.0054 -0.3698 -0.0338
   34MOL   O16810134   1.187   5.153   0.829  0.1785 -0.1692  0.1659
   34MOL   C16910135   1.070   5.211   0.841  0.2281 -0.0468  1.1053
   34MOL   O17010136   0.974   5.225   0.761  0.0139 -0.2190 -1.0258
   34MOL   C17110137   1.054   5.265   0.980 -0.3871  0.0018 -0.2146
   34MOL   C17210138   0.913   5.281   1.035 -0.2673 -0.8026 -0.0677
   34MOL   C17310139   1.298   5.244   0.629  0.5295  0.0087 -0.2369
   34MOL   H17410140   1.151   5.081   0.637  0.9692  0.1895 -1.5621
   34MOL   H17510141   1.119   5.202   1.041 -0.3770 -2.5623 -2.7688
   34MOL   H17610142   1.101   5.363   0.973 -2.6597  1.1974  0.6734
   34MOL   H17710143   0.865   5.376   1.013  0.8802 -0.6175 -1.7816
   34MOL   H17810144   0.843   5.200   1.014 -0.2530 -0.6201 -0.8193
   34MOL   H17910145   0.925   5.281   1.144 -0.7080  0.5238 -0.0102
   34MOL   H18010146   1.355   5.314   0.690  0.1073  0.3829 -0.2679
   34MOL   H18110147   1.377   5.220   0.557  0.6371 -0.1386 -0.0680
   34MOL   C18210148   1.199   5.330   0.544  0.4935  0.3719 -0.5315
   34MOL   O18310149   1.263   5.451   0.500 -0.1798 -0.0074  0.4579
   34MOL   C18410150   1.201   5.570   0.495  0.3340 -0.3553 -0.6181
   34MOL   O18510151   1.080   5.596   0.523 -0.1159 -0.2407  0.5686
   34MOL   C18610152   1.294   5.680   0.442  0.6920  0.0193  0.4397
   34MOL   C18710153   1.381   5.742   0.555 -0.2499  0.0512  0.3946
   34MOL   C18810154   1.153   5.266   0.412  0.4152  0.9449 -0.0431
   34MOL   H18910155   1.107   5.346   0.600  0.2212 -1.4809 -0.4031
   34MOL   H19010156   1.350   5.631   0.363 -2.2105 -0.9027 -1.1054
   34MOL   H19110157   1.240   5.756   0.385 -0.6697 -0.9411  0.4473
   34MOL   H19210158   1.425   5.836   0.523  0.3115 -0.3541 -0.0497
   34MOL   H19310159   1.335   5.765   0.651 -0.6723  0.2023  0.1568
   34MOL   H19410160   1.474   5.687   0.571 -0.1620 -0.3277 -1.2805
   34MOL   H19510161   1.229   5.296   0.340 -0.1483  2.6679  0.0616
   34MOL   H19610162   1.159   5.157   0.423 -0.5994  0.8837 -0.0439
   34MOL   C19710163   1.020   5.314   0.369  0.5796 -0.3864 -0.7013
   34MOL   O19810164   1.002   5.321   0.231  0.4826  0.2047  0.0411
   34MOL   C19910165   1.063   5.412   0.152  0.0375  0.1409  0.0429
   34MOL   O20010166   1.129   5.508   0.187 -0.1134 -0.1851  0.5434
   34MOL   C20110167   1.042   5.382   0.004  0.6890 -0.5051 -0.8132
   34MOL   C20210168   0.901   5.349   7.901  0.2594 -0.4015  0.2662
   34MOL   C20310169   0.906   5.231   0.423 -0.6376 -0.0903  0.0883
   34MOL   H20410170   1.005   5.416   0.404 -0.4069 -0.7306 -0.0898
   34MOL   H20510171   1.091   5.461   7.891 -1.5387  2.1212  0.7734
   34MOL   H20610172   1.091   5.289   7.920  1.2855 -0.2366 -0.6710
   34MOL   H20710173   0.834   5.425   7.940 -0.2735 -0.1909 -1.0305
   34MOL   H20810174   0.897   5.365   7.793 -0.2881  0.2492  0.3856
   34MOL   H20910175   0.859   5.250   7.920 -1.0195  0.2984  1.1122
   34MOL   H21010176   0.890   5.141   0.364  1.0610  0.8054 -1.7843
   34MOL   H21110177   0.944   5.188   0.516  3.0378  0.4170 -1.0865
   34MOL   C21210178   0.772   5.293   0.431 -0.1561 -0.5705 -0.3601
   34MOL   O21310179   0.679   5.184   0.458  0.4402  0.3663  0.0686
   34MOL   C21410180   0.620   5.131   0.359  0.1444 -0.3137  0.3914
   34MOL   O21510181   0.609   5.180   0.244 -0.1189 -0.4803 -0.0716
   34MOL   C21610182   0.534   5.011   0.378 -0.3066  0.8415 -0.2542
   34MOL   C21710183   0.418   5.009   0.495 -0.3183 -0.0162  0.1385
   34MOL   C21810184   0.763   5.398   0.544  0.2245  0.1114  0.0448
   34MOL   H21910185   0.748   5.336   0.334 -2.6556  0.8756  0.8273
   34MOL   H22010186   0.485   4.986   0.284 -0.8771 -2.7206  0.9095
   34MOL   H22110187   0.600   4.927   0.401 -0.7784  1.0860  2.1701
   34MOL   H22210188   0.456   4.978   0.592  1.1569  0.7887 -0.1738
   34MOL   H22310189   0.367   5.105   0.501  2.3552  1.3745  1.3515
   34MOL   H22410190   0.344   4.932   0.474 -0.2870 -0.1441  0.4963
   34MOL   H22510191   0.769   5.347   0.641 -0.9071 -3.4364 -1.6642
   34MOL   H22610192   0.840   5.474   0.529  0.0412 -0.1224 -2.2441
   34MOL   C22710193   0.630   5.482   0.536 -0.2212 -0.3121  0.2185
   34MOL   O22810194   0.529   5.427   0.616  0.3852 -0.4656  0.0627
   34MOL   C22910195   0.402   5.443   0.583  0.1270  0.3955 -0.3604
   34MOL   O23010196   0.362   5.487   0.475  0.8191 -0.7552 -0.2225
   34MOL   C23110197   0.314   5.410   0.701  0.1271 -0.7238  0.1310
   34MOL   C23210198   0.222   5.288   0.685 -0.3805  0.4250 -0.4138
   34MOL   C23310199   0.655   5.628   0.570  0.0564  0.0473  0.1717
   34MOL   H23410200   0.595   5.467   0.433  1.3670 -1.7485 -0.1316
   34MOL   H23510201   0.374   5.385   0.789  2.1781 -1.9250 -1.5435
   34MOL   H23610202   0.250   5.494   0.729 -0.6233 -1.1889 -0.1764
   34MOL   H23710203   0.156   5.300   0.600 -2.0442 -1.3562  0.5880
   34MOL   H23810204   0.284   5.200   0.665  0.0653 -0.0717  2.8238
   34MOL   H23910205   0.156   5.273   0.770  0.3789 -1.0970 -0.0714
   34MOL   H24010206   0.560   5.676   0.596  0.5161  1.5109 -0.8191
   34MOL   H24110207   0.721   5.638   0.656  0.2532  0.9380 -0.0759
   34MOL   C24210208   0.716   5.707   0.446 -0.0206  0.0865 -0.4522
   34MOL   O24310209   0.610   5.713   0.346 -0.0821  0.8313  0.0730
   34MOL   C24410210   0.632   5.656   0.225 -0.0853  0.1247 -0.2836
   34MOL   O24510211   0.730   5.593   0.192 -1.0782 -0.7499  0.4622
   34MOL   C24610212   0.518   5.680   0.122 -0.1896  0.1045 -0.4270
   34MOL   C24710213   0.405   5.572   0.143  0.1556 -0.1074  0.6851
   34MOL   C24810214   0.748   5.855   0.473 -0.1352 -0.3124 -0.0303
   34MOL   H24910215   0.807   5.654   0.419 -0.7637 -0.4849 -1.8783
   34MOL   H25010216   0.471   5.778   0.137 -0.1035 -0.0207  0.7343
   34MOL   H25110217   0.556   5.676   0.020  2.9650 -0.8590  0.7076
   34MOL   H25210218   0.332   5.571   0.062  2.2270 -2.4752 -1.2352
   34MOL   H25310219   0.436   5.468   0.151  0.9116  0.1835  1.6501
   34MOL   H25410220   0.353   5.598   0.236  1.2892  0.2661  1.2232
   34MOL   H25510221   0.665   5.917   0.506  0.6513 -0.0238  1.4462
   34MOL   H25610222   0.807   5.856   0.565 -1.4191 -2.0943  0.8334
   34MOL   C25710223   0.828   5.928   0.356  0.2128 -0.2184 -0.5683
   34MOL   O25810224   0.854   6.064   0.397 -0.5062 -0.0936 -0.7179
   34MOL   C25910225   0.824   6.169   0.320 -1.4472 -0.4966 -0.4908
   34MOL   O26010226   0.796   6.162   0.202 -0.3207  0.3499  0.9651
   34MOL   C26110227   0.810   6.306   0.389 -0.2280 -0.1252  0.4465
   34MOL   C26210228   0.780   6.425   0.304 -0.4581 -0.0082  0.4538
   34MOL   C26310229   0.955   5.854   0.297 -0.3622  0.1820 -1.4913
   34MOL   H26410230   0.747   5.938   0.284 -0.6215 -0.4589  0.3141
   34MOL   H26510231   0.727   6.295   0.460 -0.9288  0.5544 -0.2514
   34MOL   H26610232   0.894   6.329   0.453 -0.3603 -0.2488  0.6674
   34MOL   H26710233   0.778   6.520   0.358 -0.4033  1.7234 -2.5208
   34MOL   H26810234   0.845   6.429   0.217 -0.0120 -2.1768  0.6729
   34MOL   H26910235   0.683   6.420   0.255  0.4391  0.4729 -1.4173
   34MOL   H27010236   1.031   5.862   0.374 -0.2897  0.3809 -1.5832
   34MOL   H27110237   0.934   5.748   0.280 -0.9336 -0.1448  1.0866
   34MOL   C27210238   1.014   5.909   0.167  0.5229  0.0400 -0.8931
   34MOL   O27310239   1.141   5.854   0.151 -0.2296 -0.1441 -0.2440
   34MOL   C27410240   1.255   5.926   0.130 -0.2614 -0.1394  0.0494
   34MOL   O27510241   1.257   6.049   0.119  0.0419 -0.6509  0.7523
   34MOL   C27610242   1.382   5.841   0.118  0.6933 -0.6661 -0.1360
   34MOL   C27710243   1.379   5.735   0.019 -0.4759  0.1741  0.2867
   34MOL   C27810244   0.939   5.868   0.034 -0.3903  0.0331 -0.0448
   34MOL   H27910245   1.015   6.015   0.188 -1.0664  0.2808 -1.8972
   34MOL   H28010246   1.462   5.907   0.085  1.7940 -1.9914 -0.1488
   34MOL   H28110247   1.403   5.797   0.215 -0.0311 -2.7164 -0.8999
   34MOL   H28210248   1.331   5.762   7.870 -0.1162  1.7932  0.5653
   34MOL   H28310249   1.484   5.714   7.943 -0.0082  2.3173  0.3680
   34MOL   H28410250   1.330   5.645   0.057  1.0734 -1.2730 -1.0301
   34MOL   H28510251   0.958   5.764   0.008  2.1474  0.7811 -1.3278
   34MOL   H28610252   0.832   5.874   0.056 -0.4256 -0.0115 -0.2056
   34MOL   C28710253   0.980   5.949   7.856 -0.8387  0.6316 -0.0729
   34MOL   O28810254   0.905   5.901   7.747 -0.0480  0.1156 -0.8590
   34MOL   C28910255   0.968   5.890   7.627  0.3377 -0.8166  0.7798
   34MOL   O29010256   1.091   5.911   7.612  0.0363  0.0895 -0.4671
   34MOL   C29110257   0.866   5.850   7.519 -0.3870 -0.5842  0.0106
   34MOL   C29210258   0.834   5.702   7.526 -0.4197  0.1185  0.9216
   34MOL   C29310259   0.960   6.100   7.876  0.1755 -0.6782 -0.5074
   34MOL   H29410260   1.086   5.934   7.835 -1.1483 -0.2102 -1.0726
   34MOL   H29510261   0.773   5.906   7.525 -0.4085 -0.7405  1.2024
   34MOL   H29610262   0.913   5.868   7.422 -1.8475  0.1148 -0.5768
   34MOL   H29710263   0.803   5.679   7.628  1.8251  0.1805  1.6352
   34MOL   H29810264   0.746   5.672   7.469  0.3893 -0.5595  0.0176
   34MOL   H29910265   0.908   5.625   7.508 -0.3063  0.3033  0.5946
   34MOL   H30010266   1.020   6.152   0.006  1.1711  3.2391 -3.8222
   34MOL   H30110267   0.980   6.154   7.784 -0.7070 -1.8619 -1.4190
   34MOL   H30210268   0.855   6.112   7.902 -0.0210 -0.5592 -1.3388
   35MOL     C110269   3.283   7.609   3.042  1.0633 -0.0525 -0.1575
   35MOL     O210270   3.388   7.569   3.130 -0.5095 -0.0981  0.2126
   35MOL     C310271   3.493   7.516   3.071  0.0214 -0.0616  0.2644
   35MOL     O410272   3.504   7.485   2.951 -0.3598  0.0935  0.2442
   35MOL     C510273   3.615   7.507   3.168  0.1192 -0.1641  0.0016
   35MOL     C610274   3.707   7.628   3.195 -0.1091  0.1371  0.2491
   35MOL     C710275   3.207   7.492   2.976  0.8391 -0.2898  0.2320
   35MOL     H810276   3.315   7.662   2.952 -0.1221  0.6228 -0.1905
   35MOL     H910277   3.575   7.474   3.264 -2.8940 -0.2172 -1.2185
   35MOL    H1010278   3.682   7.430   3.131 -0.3930 -0.4691 -0.3000
   35MOL    H1110279   3.689   7.671   3.294 -0.9831 -0.2715  0.2721
   35MOL    H1210280   3.813   7.603   3.192  0.6501  3.1675 -0.3719
   35MOL    H1310281   3.685   7.716   3.134  0.7025 -0.0225 -0.2727
   35MOL    H1410282   3.146   7.515   2.890  2.3836 -0.4122 -0.9228
   35MOL    H1510283   3.273   7.413   2.938  2.5161  1.6976 -1.0886
   35MOL    H1610284   3.213   7.671   3.097  0.3418 -0.9724 -0.0310
   35MOL    C1710285   3.115   7.423   3.091  1.3473  0.6378 -0.5461
   35MOL    O1810286   3.006   7.511   3.110 -0.3898 -0.1580  0.2250
   35MOL    C1910287   2.992   7.575   3.231  0.7166 -1.0964 -0.1106
   35MOL    O2010288   3.068   7.572   3.326 -0.7186 -0.3925 -0.3618
   35MOL    C2110289   2.857   7.652   3.241 -0.6975  0.2318  0.0159
   35MOL    C2210290   2.734   7.563   3.227 -0.1165  0.4756 -0.1387
   35MOL    C2310291   3.075   7.287   3.045  1.0108  0.3624  0.6409
   35MOL    H2410292   3.182   7.415   3.177  2.2188  2.9327 -0.9601
   35MOL    H2510293   2.852   7.697   3.341 -0.4362 -0.8841  0.5329
   35MOL    H2610294   2.857   7.724   3.159 -0.3481 -1.7864 -1.7753
   35MOL    H2710295   2.657   7.635   3.250  0.1138 -0.3282  3.4322
   35MOL    H2810296   2.746   7.519   3.128 -0.9825  1.5295 -0.7245
   35MOL    H2910297   2.742   7.489   3.306  0.7679 -1.6947 -2.1885
   35MOL    H3010298   3.026   7.294   2.948  0.0316 -0.1050  1.0895
   35MOL    H3110299   3.169   7.233   3.034  0.6286 -0.2090  0.1272
   35MOL    C3210300   2.969   7.229   3.135 -0.9828 -0.5177 -0.2135
   35MOL    O3310301   2.940   7.103   3.079 -0.4981 -0.3689  0.7366
   35MOL    C3410302   2.816   7.054   3.065  0.2569  0.0874 -0.2399
   35MOL    O3510303   2.721   7.107   3.123  0.4298  0.9080  0.0381
   35MOL    C3610304   2.801   6.917   3.006  0.0516 -0.9436 -0.8266
   35MOL    C3710305   2.898   6.882   2.898 -0.1559 -0.3334  0.0827
   35MOL    C3810306   3.015   7.206   3.288  0.1861 -0.3225 -0.3996
   35MOL    H3910307   2.884   7.297   3.130 -1.1664 -0.6795  0.6185
   35MOL    H4010308   2.806   6.845   3.087  0.1125  0.6166  0.5744
   35MOL    H4110309   2.700   6.919   2.965 -1.4963  3.5645  2.7651
   35MOL    H4210310   2.867   6.912   2.798  0.6582 -0.5265 -0.2357
   35MOL    H4310311   2.989   6.942   2.908 -0.5705  0.5711 -1.4898
   35MOL    H4410312   2.944   6.783   2.906  0.0961 -0.3117 -0.9865
   35MOL    H4510313   3.078   7.292   3.313  0.6698 -0.8552  0.2538
   35MOL    H4610314   2.933   7.207   3.360  1.0699 -0.5766  0.6311
   35MOL    C4710315   3.093   7.079   3.317 -0.5318  0.0471 -0.4831
   35MOL    O4810316   3.221   7.106   3.259  0.8175 -0.0775 -0.2695
   35MOL    C4910317   3.293   7.007   3.188  0.6805  0.2040 -0.0621
   35MOL    O5010318   3.256   6.890   3.175  0.5493  1.2283 -0.0116
   35MOL    C5110319   3.424   7.045   3.131 -0.0989  0.3519 -0.7496
   35MOL    C5210320   3.490   7.162   3.210  0.0339 -0.0300 -0.3316
   35MOL    C5310321   3.092   7.033   3.464 -0.6331  0.9232  0.0478
   35MOL    H5410322   3.049   6.998   3.258  0.0232 -1.0291  0.5602
   35MOL    H5510323   3.494   6.961   3.124  0.3015  0.5602  0.6936
   35MOL    H5610324   3.408   7.079   3.029  2.6052 -0.5769 -1.5396
   35MOL    H5710325   3.434   7.253   3.231 -0.6007 -0.9809  2.2863
   35MOL    H5810326   3.536   7.127   3.303  1.5730  1.6167 -0.4420
   35MOL    H5910327   3.568   7.203   3.146  0.0498 -0.4402 -0.5769
   35MOL    H6010328   3.146   7.109   3.521  1.0430 -1.3592  1.5681
   35MOL    H6110329   2.986   7.033   3.487 -0.6978  2.9241 -0.1481
   35MOL    C6210330   3.163   6.889   3.483 -0.0771 -0.0184  0.1837
   35MOL    O6310331   3.178   6.856   3.615  0.5474 -0.1061 -0.3454
   35MOL    C6410332   3.283   6.897   3.676 -0.2990 -0.2553 -0.3616
   35MOL    O6510333   3.380   6.949   3.624 -0.6170  0.6136  0.2016
   35MOL    C6610334   3.265   6.894   3.829  0.5909 -0.5419 -0.3139
   35MOL    C6710335   3.253   7.028   3.884  0.2467  0.2275  0.4210
   35MOL    C6810336   3.081   6.775   3.422  0.1068 -1.0550 -0.5729
   35MOL    H6910337   3.257   6.884   3.428  1.2275  0.2174  2.3213
   35MOL    H7010338   3.175   6.834   3.840  1.4763 -2.0604 -1.1401
   35MOL    H7110339   3.348   6.840   3.875  1.2283  0.0868 -0.7287
   35MOL    H7210340   3.158   7.070   3.854  0.2982  0.9415  1.2362
   35MOL    H7310341   3.267   7.009   3.991 -0.4920  0.8785  0.6343
   35MOL    H7410342   3.336   7.089   3.847  0.7611 -0.3624  0.5806
   35MOL    H7510343   2.981   6.790   3.463  0.7576  1.6025  0.0815
   35MOL    H7610344   3.086   6.778   3.313  2.3374 -0.6377 -0.4704
   35MOL    C7710345   3.128   6.627   3.443  0.1417 -0.1737 -0.0909
   35MOL    O7810346   3.028   6.536   3.406 -0.1658 -0.3204  0.4812
   35MOL    C7910347   2.917   6.517   3.483 -0.2940  0.1246 -0.4566
   35MOL    O8010348   2.902   6.565   3.598 -0.0045  0.1525  0.2148
   35MOL    C8110349   2.798   6.450   3.411  0.1738  0.5034  0.3504
   35MOL    C8210350   2.839   6.313   3.353 -0.6151  0.6591 -0.4352
   35MOL    C8310351   3.258   6.585   3.374 -0.6054  0.4536 -0.0285
   35MOL    H8410352   3.145   6.615   3.550  2.1562 -0.9014 -0.4680
   35MOL    H8510353   2.719   6.424   3.482  0.1223 -1.5775 -0.4348
   35MOL    H8610354   2.750   6.508   3.331  2.3801  1.6499 -0.1673
   35MOL    H8710355   2.762   6.264   3.294  0.6406  0.8833 -2.3016
   35MOL    H8810356   2.915   6.329   3.277 -0.0811  1.3492  0.2334
   35MOL    H8910357   2.869   6.252   3.439  0.4577  0.6206 -0.8216
   35MOL    H9010358   3.244   6.485   3.333  2.2691 -0.0366  0.0512
   35MOL    H9110359   3.264   6.637   3.278 -0.2496 -1.5495 -1.1190
   35MOL    C9210360   3.387   6.604   3.456 -0.1391  0.7378 -0.4833
   35MOL    O9310361   3.384   6.495   3.554  0.4426  0.3370  0.4839
   35MOL    C9410362   3.406   6.505   3.685  0.4825  0.2797 -0.3314
   35MOL    O9510363   3.405   6.608   3.744  0.3853  0.7448 -0.2424
   35MOL    C9610364   3.446   6.369   3.742  0.4081  0.0176  0.2805
   35MOL    C9710365   3.586   6.335   3.696 -0.1794 -0.0321  0.1012
   35MOL    C9810366   3.507   6.593   3.365 -0.1413  0.0214 -0.0091
   35MOL    H9910367   3.382   6.698   3.512 -1.8168  0.9370 -0.9467
   35MOL   H10010368   3.441   6.374   3.851 -0.7597  1.1100  0.1933
   35MOL   H10110369   3.379   6.285   3.722 -0.8367  1.0834 -0.0586
   35MOL   H10210370   3.580   6.267   3.611 -0.5943 -1.1936  1.0470
   35MOL   H10310371   3.638   6.425   3.663 -0.3907 -0.2197 -0.7565
   35MOL   H10410372   3.639   6.294   3.781  0.7104  2.2912  0.7029
   35MOL   H10510373   3.534   6.490   3.341  1.7890  0.3431  0.6842
   35MOL   H10610374   3.488   6.643   3.271 -3.3918 -0.4632  0.3448
   35MOL   C10710375   3.626   6.667   3.426 -0.2282 -0.2915 -0.8253
   35MOL   O10810376   3.753   6.636   3.366 -0.2825 -0.1548  0.0937
   35MOL   C10910377   3.807   6.514   3.364 -0.6734  0.6590 -0.2054
   35MOL   O11010378   3.765   6.408   3.418  0.4658 -0.1986  0.3221
   35MOL   C11110379   3.956   6.515   3.308  0.3468  0.3699 -0.0707
   35MOL   C11210380   3.967   6.587   3.176 -0.3760 -0.3721 -0.7392
   35MOL   C11310381   3.617   6.818   3.427  0.1514 -0.2303  0.4441
   35MOL   H11410382   3.629   6.635   3.530 -0.7814  1.3783 -0.2725
   35MOL   H11510383   4.027   6.539   3.387  1.8253 -0.3528 -1.1499
   35MOL   H11610384   3.993   6.413   3.301  2.8088  1.1588  0.9204
   35MOL   H11710385   3.869   6.619   3.140  0.6387  1.0052 -2.3446
   35MOL   H11810386   4.036   6.671   3.179  0.8928 -1.4616  2.4056
   35MOL   H11910387   4.017   6.534   3.094  0.1076  2.3159 -2.2235
   35MOL   H12010388   3.644   6.839   3.324 -2.1087 -2.4854 -0.6835
   35MOL   H12110389   3.512   6.849   3.428  0.3531  0.4441  1.8419
   35MOL   C12210390   3.707   6.883   3.538 -0.6037  0.0124  0.8376
   35MOL   O12310391   3.695   7.029   3.530  0.3527 -0.0150  0.6127
   35MOL   C12410392   3.803   7.105   3.547 -0.0391 -0.4048 -0.3547
   35MOL   O12510393   3.915   7.065   3.574 -0.3827 -0.2251 -0.1272
   35MOL   C12610394   3.772   7.254   3.544  0.0423  0.0795  0.1107
   35MOL   C12710395   3.853   7.339   3.455 -0.0023  0.4104 -0.0779
   35MOL   C12810396   3.678   6.841   3.687  0.1388 -0.0174 -0.4934
   35MOL   H12910397   3.806   6.843   3.512 -1.0422 -0.3792 -0.2690
   35MOL   H13010398   3.667   7.270   3.519 -0.5802 -0.8685  1.9910
   35MOL   H13110399   3.777   7.278   3.650  3.4379  1.7302 -0.3798
   35MOL   H13210400   3.782   7.415   3.424 -0.4599 -0.2938 -0.7767
   35MOL   H13310401   3.926   7.385   3.521 -0.8553  2.4189 -0.5104
   35MOL   H13410402   3.883   7.281   3.367  0.7934  1.1979 -0.3327
   35MOL   H13510403   3.686   6.941   3.729  0.4473  0.6248 -2.0553
   35MOL   H13610404   3.572   6.821   3.703 -0.0493 -0.2746 -1.9203
   35MOL   C13710405   3.769   6.750   3.766 -0.0667  0.6346  0.5515
   35MOL   O13810406   3.909   6.786   3.765  0.5470  0.2603  0.3999
   35MOL   C13910407   4.005   6.703   3.727  0.4916  0.5125  0.7189
   35MOL   O14010408   3.985   6.584   3.692  0.3128 -0.7703  0.2426
   35MOL   C14110409   4.149   6.756   3.726  0.0041 -0.0217  0.7687
   35MOL   C14210410   4.196   6.798   3.870 -0.1905 -0.9275  0.2843
   35MOL   C14310411   3.721   6.745   3.918 -0.1964  0.1080  0.7314
   35MOL   H14410412   3.759   6.644   3.747 -0.7609  0.6359  0.9056
   35MOL   H14510413   4.210   6.673   3.688  0.8899  0.3803  1.2955
   35MOL   H14610414   4.156   6.841   3.658 -1.4534 -1.5012 -1.2933
   35MOL   H14710415   4.233   6.707   3.918  0.7787 -1.9313 -2.3069
   35MOL   H14810416   4.278   6.870   3.872 -0.6251 -0.4447  1.1900
   35MOL   H14910417   4.115   6.834   3.934  0.0890  0.2381 -0.0160
   35MOL   H15010418   3.726   6.845   3.962  1.0944 -0.2961  1.5307
   35MOL   H15110419   3.619   6.709   3.922 -0.6430  1.4003  1.3094
   35MOL   C15210420   3.812   6.651   4.013  0.3915  0.0224 -0.1355
   35MOL   O15310421   3.766   6.658   4.144 -0.2245 -1.0648 -0.0265
   35MOL   C15410422   3.813   6.741   4.236 -0.1676  0.6056  0.2379
   35MOL   O15510423   3.903   6.819   4.218 -0.0355 -0.2152  0.2659
   35MOL   C15610424   3.748   6.713   4.371 -0.7842 -0.1000  0.1749
   35MOL   C15710425   3.857   6.705   4.482 -0.4708  0.2770 -0.2637
   35MOL   C15810426   3.813   6.498   3.978 -0.0985  0.5136  0.6809
   35MOL   H15910427   3.913   6.692   4.009  0.5378 -0.3242  0.0434
   35MOL   H16010428   3.677   6.793   4.390  1.5619  2.4454 -1.4264
   35MOL   H16110429   3.694   6.619   4.361 -0.8928  0.2310 -2.8523
   35MOL   H16210430   3.835   6.608   4.525 -0.6200 -0.7306 -2.5100
   35MOL   H16310431   3.962   6.723   4.461 -0.9634 -0.2371 -3.4040
   35MOL   H16410432   3.824   6.781   4.553  1.9620  0.3891  0.7658
   35MOL   H16510433   3.726   6.453   4.026 -1.5105  0.7774 -1.5700
   35MOL   H16610434   3.809   6.477   3.871 -0.7242 -0.1591  0.8275
   35MOL   C16710435   3.949   6.420   4.018  0.4322  0.0578 -0.5594
   35MOL   O16810436   3.967   6.425   4.160  0.6118 -0.0243 -0.0697
   35MOL   C16910437   4.077   6.470   4.221  0.0805  0.0667 -0.2338
   35MOL   O17010438   4.170   6.521   4.162  0.0225 -0.1168 -0.0438
   35MOL   C17110439   4.071   6.460   4.370 -0.5274  0.2420  0.4469
   35MOL   C17210440   4.189   6.509   4.456  0.7210  0.4579 -0.0468
   35MOL   C17310441   3.954   6.271   3.973 -0.5922  0.1196 -1.0233
   35MOL   H17410442   4.019   6.486   3.967 -1.4492  0.8014 -2.2957
   35MOL   H17510443   3.987   6.528   4.387 -0.7489  0.5617 -1.7107
   35MOL   H17610444   4.046   6.360   4.404  1.8943 -0.1353  1.1629
   35MOL   H17710445   4.262   6.580   4.416  0.9017 -0.0843 -0.6765
   35MOL   H17810446   4.145   6.558   4.543  1.9458 -1.8962  1.9738
   35MOL   H17910447   4.242   6.422   4.494 -1.9004 -0.6534  1.1212
   35MOL   H18010448   3.898   6.206   4.041 -0.0328  1.4358  0.7493
   35MOL   H18110449   3.903   6.250   3.879 -0.5677 -1.2024 -0.7552
   35MOL   C18210450   4.102   6.234   3.949 -0.4794 -0.2254 -0.1544
   35MOL   O18310451   4.101   6.094   3.908  0.6998 -0.0248  0.3598
   35MOL   C18410452   4.181   6.007   3.970  0.5688  0.2244 -0.3193
   35MOL   O18510453   4.267   6.026   4.058 -0.3732  0.1223  0.4895
   35MOL   C18610454   4.161   5.863   3.921  0.6355 -0.1664  0.0417
   35MOL   C18710455   4.251   5.840   3.803  0.1991  1.1335  0.4390
   35MOL   C18810456   4.167   6.301   3.826  0.6614  0.0532 -0.2318
   35MOL   H18910457   4.163   6.251   4.037  1.2548 -2.1164 -0.9677
   35MOL   H19010458   4.180   5.787   3.996  0.5903  2.1404  2.4463
   35MOL   H19110459   4.059   5.844   3.888  0.3181 -0.6918  1.3039
   35MOL   H19210460   4.242   5.909   3.719 -1.4397  0.7699  0.3046
   35MOL   H19310461   4.356   5.850   3.832  0.6101  1.0184 -0.9983
   35MOL   H19410462   4.250   5.737   3.767  1.9124  0.9275  0.9119
   35MOL   H19510463   4.128   6.261   3.732  1.6055  2.7443 -1.8389
   35MOL   H19610464   4.138   6.406   3.820 -0.0907 -0.2758 -3.1361
   35MOL   C19710465   4.320   6.304   3.814 -0.0761 -0.7165 -0.2840
   35MOL   O19810466   4.338   6.364   3.686 -0.3986 -0.1407  0.2429
   35MOL   C19910467   4.414   6.308   3.594  0.3595  0.0429  0.3256
   35MOL   O20010468   4.466   6.193   3.605  0.3848 -0.2094 -0.0725
   35MOL   C20110469   4.446   6.398   3.476 -0.1655 -0.1288  0.4282
   35MOL   C20210470   4.314   6.428   3.402 -0.2261 -0.5639  0.3417
   35MOL   C20310471   4.383   6.397   3.920  0.0173  0.5303 -0.8808
   35MOL   H20410472   4.364   6.205   3.817  3.3753  0.7044 -1.5066
   35MOL   H20510473   4.494   6.492   3.503  1.3691 -0.9381  0.6030
   35MOL   H20610474   4.517   6.347   3.410  1.3697  0.8919  1.2665
   35MOL   H20710475   4.253   6.485   3.472 -0.0806  0.4629 -0.3513
   35MOL   H20810476   4.325   6.487   3.311 -0.8023  0.8185  1.1513
   35MOL   H20910477   4.261   6.341   3.366  2.2557 -0.8596 -2.8490
   35MOL   H21010478   4.329   6.489   3.898 -1.1913  0.7178  2.6050
   35MOL   H21110479   4.363   6.371   4.024  2.8888  0.5020 -0.2865
   35MOL   C21210480   4.535   6.407   3.906 -1.0777 -0.0572 -0.0913
   35MOL   O21310481   4.577   6.516   3.990 -0.3264 -0.1040 -0.3620
   35MOL   C21410482   4.561   6.642   3.941  0.3542  0.0701  0.7755
   35MOL   O21510483   4.509   6.682   3.829 -1.1011  0.2200  0.3017
   35MOL   C21610484   4.619   6.742   4.035 -1.1645 -0.0885 -0.6960
   35MOL   C21710485   4.526   6.860   4.046  0.4093 -0.2107 -0.2456
   35MOL   C21810486   4.609   6.286   3.964  0.2055  0.5596  0.1676
   35MOL   H21910487   4.563   6.427   3.803  0.4667  0.4035  0.4095
   35MOL   H22010488   4.622   6.697   4.134  0.1746 -1.4444 -1.3289
   35MOL   H22110489   4.719   6.779   4.011 -1.3805  1.0976  0.2115
   35MOL   H22210490   4.494   6.913   3.956 -1.8948 -0.8666  0.1501
   35MOL   H22310491   4.434   6.841   4.103  0.4733 -1.1272 -0.4379
   35MOL   H22410492   4.589   6.928   4.103  0.3216 -1.0608  0.8690
   35MOL   H22510493   4.641   6.303   4.067 -2.4911  1.0050  0.9708
   35MOL   H22610494   4.530   6.212   3.970  0.4545  0.1302 -1.4444
   35MOL   C22710495   4.718   6.225   3.872 -0.2366 -0.0405 -0.1916
   35MOL   O22810496   4.814   6.330   3.861 -0.0938 -0.2122 -0.2322
   35MOL   C22910497   4.827   6.399   3.739 -0.1592  0.0105 -0.2919
   35MOL   O23010498   4.748   6.383   3.644  0.1455  0.6447  0.1810
   35MOL   C23110499   4.936   6.507   3.732 -0.1043 -0.1318  0.0000
   35MOL   C23210500   4.937   6.609   3.848 -0.3708 -0.0759 -0.1598
   35MOL   C23310501   4.778   6.094   3.922  1.0223  0.0326  0.0189
   35MOL   H23410502   4.680   6.213   3.770 -1.5810  1.4912  0.1026
   35MOL   H23510503   5.022   6.441   3.739  0.2178  0.2897  0.0696
   35MOL   H23610504   4.936   6.559   3.636 -0.6433  1.8631  1.0517
   35MOL   H23710505   5.037   6.652   3.848  0.3308 -1.6697 -0.2081
   35MOL   H23810506   4.866   6.691   3.832 -1.0413 -0.6321 -0.0669
   35MOL   H23910507   4.903   6.563   3.941 -1.9110 -2.4545 -1.8684
   35MOL   H24010508   4.847   6.121   4.003  0.4900 -1.0956  0.8582
   35MOL   H24110509   4.707   6.028   3.972  2.4245 -1.1090  0.5625
   35MOL   C24210510   4.851   6.029   3.809 -0.5642  0.4783  0.1941
   35MOL   O24310511   4.967   5.964   3.865 -0.1956 -0.1184  0.0424
   35MOL   C24410512   5.088   6.027   3.860  0.1900 -0.9289  0.6315
   35MOL   O24510513   5.103   6.145   3.829  0.1106  0.0630  0.7035
   35MOL   C24610514   5.198   5.934   3.909 -0.3879 -0.2683 -0.6180
   35MOL   C24710515   5.332   6.001   3.902  0.2071 -0.7230 -0.1435
   35MOL   C24810516   4.772   5.940   3.712  0.6431 -0.2181  1.0691
   35MOL   H24910517   4.889   6.102   3.738  2.8887 -0.1470  1.3308
   35MOL   H25010518   5.172   5.912   4.012  0.0538 -0.4466 -0.5433
   35MOL   H25110519   5.201   5.849   3.840 -1.1208 -1.7721  1.1696
   35MOL   H25210520   5.340   6.053   3.997 -1.6933  2.1454 -1.4797
   35MOL   H25310521   5.415   5.931   3.895 -0.4326 -1.9080  3.1032
   35MOL   H25410522   5.342   6.084   3.832 -3.6817  1.2726  1.4801
   35MOL   H25510523   4.749   5.852   3.771  0.5177  0.0178  1.3703
   35MOL   H25610524   4.675   5.989   3.704 -0.9696 -3.3981  0.2641
   35MOL   C25710525   4.843   5.907   3.576  0.0368 -0.0843  0.0977
   35MOL   O25810526   4.781   5.788   3.528  0.0481 -0.8879 -0.4388
   35MOL   C25910527   4.831   5.672   3.575 -1.3141 -0.0971 -0.7093
   35MOL   O26010528   4.929   5.661   3.654  0.1808 -0.3025 -0.5271
   35MOL   C26110529   4.774   5.548   3.509 -0.6350  0.5180 -0.2143
   35MOL   C26210530   4.794   5.524   3.354  0.0004 -0.5160 -0.6079
   35MOL   C26310531   4.820   6.025   3.470  0.4593  0.1369 -0.7102
   35MOL   H26410532   4.952   5.896   3.579  0.0436  0.2623  1.1388
   35MOL   H26510533   4.810   5.462   3.565 -1.0046  0.4697 -0.0516
   35MOL   H26610534   4.666   5.545   3.523 -0.6610 -1.7202 -0.6570
   35MOL   H26710535   4.892   5.558   3.322 -0.8633  1.6556 -1.0212
   35MOL   H26810536   4.800   5.418   3.330  1.4066 -0.9049  1.3086
   35MOL   H26910537   4.728   5.580   3.288  2.8772 -0.2189 -3.3279
   35MOL   H27010538   4.714   6.040   3.448  0.8064  1.8952 -1.2768
   35MOL   H27110539   4.852   6.121   3.508  1.1840 -0.1601 -0.5737
   35MOL   C27210540   4.896   6.026   3.336 -0.1684 -0.8008  0.6021
   35MOL   O27310541   5.035   6.051   3.354  0.3031 -0.5852  0.1111
   35MOL   C27410542   5.086   6.171   3.373 -0.6220 -0.2040 -0.5558
   35MOL   O27510543   5.018   6.271   3.394 -0.0704  0.4040 -0.8501
   35MOL   C27610544   5.238   6.169   3.398  0.4411  0.2763  0.0474
   35MOL   C27710545   5.274   6.162   3.548  0.1225  0.1073 -0.1486
   35MOL   C27810546   4.884   5.893   3.248 -0.3337 -0.6389 -0.0756
   35MOL   H27910547   4.857   6.103   3.269  0.3787 -2.8818 -2.2328
   35MOL   H28010548   5.284   6.089   3.340 -3.8128 -0.3319 -2.7248
   35MOL   H28110549   5.285   6.255   3.350  2.2635  0.3778  1.9577
   35MOL   H28210550   5.185   6.174   3.611  0.5387  1.9225  0.1027
   35MOL   H28310551   5.318   6.067   3.579 -0.1567 -0.7685 -2.3370
   35MOL   H28410552   5.342   6.243   3.571 -1.2738  0.8542  1.5080
   35MOL   H28510553   4.940   5.906   3.155  1.2739  0.1057  0.9740
   35MOL   H28610554   4.919   5.805   3.302 -0.0494 -0.2384  0.3882
   35MOL   C28710555   4.736   5.866   3.207 -0.2994 -0.3855  0.1052
   35MOL   O28810556   4.669   5.985   3.162  0.4256  0.0892  0.3638
   35MOL   C28910557   4.532   6.013   3.174 -0.3010 -0.0689  0.1010
   35MOL   O29010558   4.448   5.930   3.211  0.0985  0.2035  0.2987
   35MOL   C29110559   4.499   6.157   3.144  0.5275 -0.3483 -0.3054
   35MOL   C29210560   4.611   6.254   3.186 -0.1144 -0.8946  0.0416
   35MOL   C29310561   4.727   5.761   3.090  0.0022  1.1245 -0.2744
   35MOL   H29410562   4.687   5.824   3.294  1.5604  0.7441  1.7313
   35MOL   H29510563   4.468   6.165   3.040  1.4012 -1.6020 -0.6696
   35MOL   H29610564   4.405   6.186   3.193  0.7832  1.3298 -0.7665
   35MOL   H29710565   4.561   6.350   3.199  1.4805  0.7989 -5.3039
   35MOL   H29810566   4.646   6.222   3.285 -0.1794 -0.6701  0.1395
   35MOL   H29910567   4.695   6.264   3.118  0.1443 -1.5199  0.2652
   35MOL   H30010568   4.769   5.662   3.111 -1.2988  0.7837  0.7692
   35MOL   H30110569   4.622   5.753   3.063  0.1727  0.9451 -0.9007
   35MOL   H30210570   4.768   5.806   2.999 -0.1250 -1.5062 -1.6886
   36MOL     C110571   0.451   5.737   3.008  0.0143 -0.6700  0.1511
   36MOL     O210572   0.528   5.619   3.017  0.6801  0.3567  0.1082
   36MOL     C310573   0.571   5.578   3.131 -0.1017 -0.1121 -0.0366
   36MOL     O410574   0.560   5.638   3.238 -0.1614 -0.0118  0.3218
   36MOL     C510575   0.645   5.448   3.124 -0.5312  0.0499  0.1227
   36MOL     C610576   0.778   5.460   3.049  0.2131 -0.8667 -0.1168
   36MOL     C710577   0.460   5.816   2.872  0.5271  0.1637  0.6154
   36MOL     H810578   0.479   5.804   3.089 -0.3046 -0.3174 -0.0306
   36MOL     H910579   0.663   5.401   3.221 -1.6153  0.5826  0.5938
   36MOL    H1010580   0.579   5.375   3.077 -0.2858 -1.0090  1.3718
   36MOL    H1110581   0.842   5.532   3.101  0.1575 -2.6008  2.4728
   36MOL    H1210582   0.820   5.360   3.054 -1.8153 -1.8427 -1.8832
   36MOL    H1310583   0.756   5.487   2.946 -0.4459  0.6295  0.3989
   36MOL    H1410584   0.561   5.793   2.838  0.3870 -2.2160  1.6714
   36MOL    H1510585   0.403   5.753   2.804 -0.5728 -0.4571  2.0708
   36MOL    H1610586   0.349   5.700   3.014  0.3753 -1.7527 -0.2709
   36MOL    C1710587   0.399   5.957   2.879  0.6609  0.4876  0.2490
   36MOL    O1810588   0.503   6.048   2.914  0.1033 -0.0651  0.0903
   36MOL    C1910589   0.473   6.171   2.969 -0.6103  0.2244  0.1071
   36MOL    O2010590   0.359   6.215   3.003  0.4150 -0.7278  0.4541
   36MOL    C2110591   0.608   6.229   3.006  0.2059  0.2392 -0.4531
   36MOL    C2210592   0.697   6.260   2.886 -0.6234 -0.3231 -0.2712
   36MOL    C2310593   0.348   5.989   2.733 -0.0325 -0.5543  0.2106
   36MOL    H2410594   0.322   5.957   2.956  0.4369  0.3865  0.0279
   36MOL    H2510595   0.579   6.321   3.056  2.6761 -0.0412  1.6424
   36MOL    H2610596   0.651   6.158   3.077 -2.7659 -2.1072 -0.9194
   36MOL    H2710597   0.795   6.295   2.919 -0.6901 -0.3231 -0.0779
   36MOL    H2810598   0.706   6.177   2.816  0.5365 -0.3144 -0.1455
   36MOL    H2910599   0.647   6.343   2.835  1.3067 -1.1946 -3.7640
   36MOL    H3010600   0.269   5.916   2.713 -1.5576  1.0561  0.2458
   36MOL    H3110601   0.289   6.081   2.732  0.2949 -0.3499 -0.4870
   36MOL    C3210602   0.446   5.997   2.611 -0.8786  0.3586  0.0430
   36MOL    O3310603   0.463   5.863   2.575 -0.7121  0.3289  0.3422
   36MOL    C3410604   0.584   5.814   2.542 -0.5587  0.3567 -0.0753
   36MOL    O3510605   0.690   5.868   2.560  0.1296  0.4785 -0.2345
   36MOL    C3610606   0.580   5.676   2.486 -0.3895 -0.4154 -0.3665
   36MOL    C3710607   0.710   5.614   2.440 -0.0364 -0.4502  0.5359
   36MOL    C3810608   0.376   6.048   2.481 -0.1961  0.5793  0.1519
   36MOL    H3910609   0.547   6.035   2.630 -0.2699 -1.6627  0.9879
   36MOL    H4010610   0.549   5.606   2.564 -0.7453 -0.5712 -0.6470
   36MOL    H4110611   0.501   5.679   2.411  0.6520  0.4852 -1.4350
   36MOL    H4210612   0.760   5.564   2.522 -0.9973 -0.5921  1.0393
   36MOL    H4310613   0.698   5.543   2.359  1.1169 -2.2302  1.9132
   36MOL    H4410614   0.790   5.685   2.417 -2.4390  2.7754  1.6830
   36MOL    H4510615   0.410   5.992   2.394 -0.4015 -0.3899  0.6863
   36MOL    H4610616   0.273   6.013   2.487  0.1829 -0.4228  1.0542
   36MOL    C4710617   0.384   6.197   2.463  0.4119  0.3674  0.0397
   36MOL    O4810618   0.520   6.238   2.432 -0.2513 -0.0632 -0.2445
   36MOL    C4910619   0.584   6.340   2.497 -0.9251 -0.7667 -0.3437
   36MOL    O5010620   0.527   6.414   2.578 -0.0522  0.1161  0.5737
   36MOL    C5110621   0.730   6.354   2.465  0.2733  0.7927  0.0706
   36MOL    C5210622   0.811   6.226   2.496 -0.1467 -0.0908  0.3662
   36MOL    C5310623   0.283   6.247   2.356  0.4363  0.5097  0.4944
   36MOL    H5410624   0.373   6.244   2.561  1.4955  0.3459  0.1751
   36MOL    H5510625   0.730   6.378   2.359 -3.5498 -1.1953 -0.4479
   36MOL    H5610626   0.775   6.445   2.507  0.4676 -0.3831  2.4907
   36MOL    H5710627   0.917   6.234   2.471  0.2909 -1.0976  1.8410
   36MOL    H5810628   0.825   6.200   2.601 -2.3929 -2.0088  0.2141
   36MOL    H5910629   0.781   6.133   2.448  1.4207 -0.5742  0.2899
   36MOL    H6010630   0.293   6.351   2.325  0.6221  0.5871  0.8063
   36MOL    H6110631   0.301   6.186   2.268  0.4920 -1.8262  2.0957
   36MOL    C6210632   0.134   6.226   2.395 -0.3432 -0.3906  0.8379
   36MOL    O6310633   0.100   6.301   2.509  0.2597 -0.1151  0.2273
   36MOL    C6410634   0.049   6.240   2.612  0.3375  0.3962 -0.2583
   36MOL    O6510635   0.025   6.120   2.625  0.5213  0.4907  0.4033
   36MOL    C6610636   0.012   6.343   2.720 -0.1738 -0.5932  0.2620
   36MOL    C6710637   0.127   6.431   2.772  0.3584  0.2910 -0.0129
   36MOL    C6810638   0.029   6.263   2.284 -0.2585 -0.2257  0.2225
   36MOL    H6910639   0.118   6.119   2.410 -0.1292 -0.7730 -1.5445
   36MOL    H7010640   7.897   6.418   2.668 -1.9593 -1.4865  1.0095
   36MOL    H7110641   7.903   6.295   2.801 -0.0966  0.1444  0.7567
   36MOL    H7210642   0.184   6.378   2.849 -1.4215  0.9775  1.8275
   36MOL    H7310643   0.192   6.471   2.694  0.2479  1.0904  0.3045
   36MOL    H7410644   0.079   6.513   2.825 -0.9397 -1.3003  1.3003
   36MOL    H7510645   7.872   6.247   2.320 -0.3821  2.7314  1.3398
   36MOL    H7610646   0.054   6.367   2.266  0.7721 -0.0708  2.3270
   36MOL    C7710647   0.048   6.178   2.159  0.4510 -0.0965 -0.0612
   36MOL    O7810648   7.940   6.051   2.204 -0.0789  0.0774 -0.7294
   36MOL    C7910649   0.076   5.941   2.208 -0.4176 -0.2083  0.4414
   36MOL    O8010650   0.191   5.929   2.162  0.3361 -0.4766  0.5142
   36MOL    C8110651   0.019   5.821   2.285 -0.5272 -0.0154  1.2189
   36MOL    C8210652   0.128   5.725   2.334 -0.2061 -0.0927 -0.4137
   36MOL    C8310653   7.904   6.220   2.044  0.6822  0.0583  0.1805
   36MOL    H8410654   0.152   6.170   2.129  0.7421 -0.1823  0.9736
   36MOL    H8510655   7.915   5.853   2.377 -1.0486 -0.8637  1.2429
   36MOL    H8610656   7.891   5.772   2.220  0.8967 -0.9238  0.2739
   36MOL    H8710657   0.083   5.630   2.361  0.5999 -0.9335 -1.9875
   36MOL    H8810658   0.205   5.695   2.264  0.5419 -0.9314  0.7425
   36MOL    H8910659   0.178   5.768   2.421 -1.2683 -0.1480  0.2436
   36MOL    H9010660   7.905   6.142   1.968 -1.8678  0.0427  0.1254
   36MOL    H9110661   7.800   6.224   2.075  0.6719 -1.5396  0.3843
   36MOL    C9210662   0.009   6.352   1.984 -0.0313 -0.5612  0.0309
   36MOL    O9310663   0.131   6.326   1.920 -0.3868 -0.2476 -0.3613
   36MOL    C9410664   0.253   6.352   1.976 -0.4750 -0.2463 -0.2126
   36MOL    O9510665   0.259   6.394   2.093  0.4314 -0.0689  0.1777
   36MOL    C9610666   0.363   6.340   1.876  0.6902 -0.5631 -0.4743
   36MOL    C9710667   0.335   6.411   1.743 -0.5076  0.1393 -0.1878
   36MOL    C9810668   7.846   6.394   1.879  0.1814 -0.0949  1.0773
   36MOL    H9910669   0.016   6.428   2.062  0.4884 -1.4324  0.8407
   36MOL   H10010670   0.442   6.401   1.919  1.0670 -1.6039  0.3335
   36MOL   H10110671   0.391   6.236   1.860 -1.2099 -1.2552  0.5131
   36MOL   H10210672   0.279   6.347   1.675 -0.1327 -0.7103  0.2945
   36MOL   H10310673   0.280   6.504   1.754 -1.2414 -0.1936 -1.0311
   36MOL   H10410674   0.426   6.443   1.691  0.1381  0.8357  1.3375
   36MOL   H10510675   7.872   6.343   1.786  2.6781  0.4108  1.4652
   36MOL   H10610676   7.748   6.361   1.913 -0.5437 -0.4174 -1.1920
   36MOL   C10710677   7.854   6.547   1.839  0.1926  0.0303 -0.0877
   36MOL   O10810678   7.784   6.571   1.718 -0.1147  0.3428  0.3716
   36MOL   C10910679   7.833   6.659   1.624  0.5574 -0.0594 -0.1026
   36MOL   O11010680   7.938   6.719   1.621  0.1449  0.6743 -0.6257
   36MOL   C11110681   7.727   6.661   1.511 -0.6299 -0.1244 -0.0899
   36MOL   C11210682   7.750   6.768   1.404 -0.0806 -1.4908 -0.2862
   36MOL   C11310683   7.803   6.651   1.946  0.3093  0.3594  0.2505
   36MOL   H11410684   0.015   6.556   1.814  0.4385 -2.2559 -0.0677
   36MOL   H11510685   7.727   6.560   1.472  0.0256 -0.0951 -0.1750
   36MOL   H11610686   7.632   6.671   1.564 -0.1879  2.3109  0.3216
   36MOL   H11710687   7.728   6.866   1.446  0.9738 -1.1128 -0.6042
   36MOL   H11810688   7.857   6.765   1.384  0.1242 -0.2018  0.5063
   36MOL   H11910689   7.699   6.748   1.311  0.3917  1.3988 -1.2211
   36MOL   H12010690   7.860   6.644   2.039 -1.3997 -3.9544  1.0835
   36MOL   H12110691   7.825   6.750   1.906  2.0317 -0.6326 -1.3290
   36MOL   C12210692   7.658   6.648   2.005 -0.4345  0.1572  0.2361
   36MOL   O12310693   7.638   6.530   2.080  0.2450  0.4290 -0.1048
   36MOL   C12410694   7.512   6.486   2.096 -0.4113  0.5536 -0.6893
   36MOL   O12510695   7.408   6.529   2.043 -0.0534 -0.0082  0.2127
   36MOL   C12610696   7.503   6.360   2.185 -0.3970 -0.8133 -0.2488
   36MOL   C12710697   7.519   6.391   2.330  0.2785  0.6935 -0.3315
   36MOL   C12810698   7.639   6.773   2.100 -0.1076 -0.3653  0.4158
   36MOL   H12910699   7.587   6.656   1.922 -0.2672 -0.4251  0.0341
   36MOL   H13010700   7.409   6.307   2.169 -2.0521  2.3479 -1.3875
   36MOL   H13110701   7.580   6.292   2.148  1.4101  2.3015 -2.5355
   36MOL   H13210702   7.461   6.478   2.360 -0.8441  0.0950 -0.7221
   36MOL   H13310703   7.480   6.309   2.390 -0.3951  0.0876 -1.5608
   36MOL   H13410704   7.623   6.398   2.360  0.7491 -1.0831 -1.4480
   36MOL   H13510705   7.536   6.774   2.135 -0.9009  1.5645 -1.8224
   36MOL   H13610706   7.717   6.762   2.175  1.2310  0.5027 -0.8076
   36MOL   C13710707   7.654   6.916   2.037  0.2888  0.2441  0.0960
   36MOL   O13810708   7.546   6.945   1.946 -0.2505  0.0764  0.8755
   36MOL   C13910709   7.566   6.931   1.809 -0.0370 -0.0773  0.2784
   36MOL   O14010710   7.666   6.890   1.754  0.0497  0.0517 -0.1473
   36MOL   C14110711   7.454   6.995   1.731  0.1713 -0.0277  0.1291
   36MOL   C14210712   7.314   6.982   1.791 -0.1950 -0.1174  0.1201
   36MOL   C14310713   7.638   7.020   2.150 -0.7442  0.1373  0.8447
   36MOL   H14410714   7.755   6.933   1.998  1.2006 -2.9604  0.8934
   36MOL   H14510715   7.483   7.097   1.707 -0.2668 -0.3092 -1.7136
   36MOL   H14610716   7.447   6.938   1.638  2.2001 -1.8071  1.0214
   36MOL   H14710717   7.295   7.039   1.883 -0.1220 -0.1169  0.1351
   36MOL   H14810718   7.244   7.022   1.718  0.3000 -1.3186 -1.0378
   36MOL   H14910719   7.280   6.879   1.792  0.0683 -0.2574 -2.2870
   36MOL   H15010720   7.531   7.021   2.171 -0.8244  0.1501  0.4511
   36MOL   H15110721   7.684   6.980   2.240 -0.6382 -2.5886 -0.3893
   36MOL   C15210722   7.675   7.163   2.119 -0.0093 -0.0688 -1.0543
   36MOL   O15310723   7.561   7.246   2.098 -1.0470 -0.2725 -0.1060
   36MOL   C15410724   7.519   7.287   1.980 -0.0537 -0.6425 -0.4527
   36MOL   O15510725   7.566   7.260   1.876 -0.7146 -0.2183 -0.1360
   36MOL   C15610726   7.391   7.368   1.991 -0.5884 -0.7116  0.0599
   36MOL   C15710727   7.273   7.287   2.047  0.5043  0.6668 -0.1929
   36MOL   C15810728   7.755   7.226   2.237  0.2218  0.1749 -0.0222
   36MOL   H15910729   7.740   7.169   2.032  2.8561  0.7497  1.0588
   36MOL   H16010730   7.408   7.457   2.052  0.8672 -0.6298 -0.4547
   36MOL   H16110731   7.358   7.397   1.891 -0.3209  1.8817  0.6812
   36MOL   H16210732   7.189   7.344   2.086 -0.1292 -0.0358 -0.5035
   36MOL   H16310733   7.235   7.216   1.973  0.1187  0.9843 -0.3058
   36MOL   H16410734   7.299   7.235   2.139  1.5763 -1.3372 -1.5904
   36MOL   H16510735   7.682   7.268   2.307  0.8965 -0.6683  1.2080
   36MOL   H16610736   7.813   7.156   2.296 -0.6352  0.6420  1.4312
   36MOL   C16710737   7.852   7.337   2.197  0.0745 -0.6840  0.2221
   36MOL   O16810738   0.013   7.300   2.114  0.0722  0.6055 -0.7466
   36MOL   C16910739   0.126   7.247   2.167  0.5722  0.6411  0.7256
   36MOL   O17010740   0.153   7.251   2.286 -0.1968 -0.1197  0.0105
   36MOL   C17110741   0.219   7.172   2.071 -0.1973 -0.9986  0.3901
   36MOL   C17210742   0.353   7.119   2.131  0.9376 -0.4555  0.5147
   36MOL   C17310743   7.794   7.467   2.138 -0.0630 -0.6454 -0.0830
   36MOL   H17410744   7.889   7.366   2.295 -3.0069 -2.0019  1.8475
   36MOL   H17510745   0.161   7.097   2.017 -1.4305  0.2552 -0.0376
   36MOL   H17610746   0.255   7.240   1.993 -0.1024  1.9337  2.8921
   36MOL   H17710747   0.341   7.029   2.192 -1.4538  1.1090  2.4326
   36MOL   H17810748   0.415   7.077   2.052 -0.8705 -0.0627 -1.1594
   36MOL   H17910749   0.417   7.185   2.190  0.6560 -1.3233  1.8203
   36MOL   H18010750   7.873   7.530   2.095  1.6516 -0.8346  2.6529
   36MOL   H18110751   7.738   7.447   2.046  1.4368 -1.8508 -0.7584
   36MOL   C18210752   7.694   7.537   2.226 -0.0180  0.6071  0.2034
   36MOL   O18310753   7.766   7.585   2.331  0.2621 -0.1446  0.5861
   36MOL   C18410754   7.739   7.536   2.459 -0.3060 -0.3695  0.2186
   36MOL   O18510755   7.663   7.444   2.489  0.1214  0.4197  0.3091
   36MOL   C18610756   7.835   7.603   2.558  0.1145  0.1419 -0.2117
   36MOL   C18710757   0.035   7.548   2.555 -0.4807 -0.0651 -0.2253
   36MOL   C18810758   7.638   7.666   2.158 -0.1090 -0.4113  0.1110
   36MOL   H18910759   7.609   7.470   2.243  0.7383  0.0608  1.8895
   36MOL   H19010760   7.839   7.710   2.540 -3.0128  0.1341 -1.3295
   36MOL   H19110761   7.786   7.589   2.655  0.4082  3.5435  0.4774
   36MOL   H19210762   0.031   7.451   2.605 -2.0603  0.6567  1.1001
   36MOL   H19310763   0.070   7.545   2.452 -0.7756 -0.8063 -0.3046
   36MOL   H19410764   0.104   7.611   2.611 -1.2621  0.2363  0.4016
   36MOL   H19510765   7.713   7.740   2.130 -0.6530 -0.3916 -1.3577
   36MOL   H19610766   7.615   7.642   2.054 -1.8015  1.5986 -0.0277
   36MOL   C19710767   7.505   7.724   2.213  0.2820  0.2953  0.0379
   36MOL   O19810768   7.502   7.763   2.349  0.3972  0.4686 -0.2949
   36MOL   C19910769   7.396   7.747   2.429  0.4618  0.9467  0.1859
   36MOL   O20010770   7.285   7.704   2.394 -0.1163  0.0117 -0.2194
   36MOL   C20110771   7.423   7.798   2.568  0.3452  0.9358  0.8416
   36MOL   C20210772   7.506   7.930   2.581 -0.2632 -0.0727  0.1333
   36MOL   C20310773   7.443   7.830   2.130  0.4516 -0.0655  0.5695
   36MOL   H20410774   7.439   7.637   2.209  1.7192 -0.8072 -0.1133
   36MOL   H20510775   7.323   7.813   2.611  0.2242  2.2861  0.1431
   36MOL   H20610776   7.469   7.712   2.615 -1.1237  0.2122  0.9930
   36MOL   H20710777   7.614   7.930   2.563 -0.4687  0.2802 -1.1722
   36MOL   H20810778   7.460   0.059   2.516 -1.0380 -0.0800  0.6779
   36MOL   H20910779   7.507   0.021   2.684  0.3692  1.0349 -0.2474
   36MOL   H21010780   7.357   7.873   2.180  0.6660 -2.1090  2.7997
   36MOL   H21110781   7.516   7.910   2.120 -1.0941  1.3842  0.7915
   36MOL   C21210782   7.385   7.784   1.997 -0.0276  0.3977 -0.2335
   36MOL   O21310783   7.256   7.726   2.029  0.3658 -0.4269 -0.2919
   36MOL   C21410784   7.189   7.640   1.945 -0.3877 -0.7258  0.4354
   36MOL   O21510785   7.220   7.602   1.836  0.0888 -0.0926 -0.3040
   36MOL   C21610786   7.060   7.589   2.004  0.1375 -0.3591 -0.6268
   36MOL   C21710787   6.967   7.705   2.046 -0.4989 -0.6042  0.4547
   36MOL   C21810788   7.360   7.899   1.901  0.0872 -0.6800 -0.1466
   36MOL   H21910789   7.435   7.703   1.944  0.5645  1.2370 -0.9936
   36MOL   H22010790   7.007   7.529   1.930  0.6543  0.0848 -1.3605
   36MOL   H22110791   7.077   7.524   2.090  2.0021 -2.0598 -2.2196
   36MOL   H22210792   7.021   7.781   2.103 -0.3553 -0.1957 -0.2164
   36MOL   H22310793   6.925   7.747   1.955 -0.4124  2.1474  1.6277
   36MOL   H22410794   6.891   7.681   2.119  0.2771  1.0252  1.8529
   36MOL   H22510795   7.276   7.879   1.835 -1.2282 -0.3860  1.3893
   36MOL   H22610796   7.313   0.029   1.965 -0.0058 -0.4638 -0.4666
   36MOL   C22710797   7.491   0.009   1.836 -0.0078 -0.4885  0.1968
   36MOL   O22810798   7.509   7.868   1.721  0.7733  0.0136  0.3659
   36MOL   C22910799   7.606   7.771   1.720  0.6225  0.5090  0.9024
   36MOL   O23010800   7.673   7.743   1.816 -0.2617 -0.2782 -0.2858
   36MOL   C23110801   7.620   7.691   1.592  0.5084  0.2819 -0.2355
   36MOL   C23210802   7.502   7.600   1.556  0.2675 -0.5227 -0.0215
   36MOL   C23310803   7.472   0.162   1.789 -0.4389  0.0711 -0.2023
   36MOL   H23410804   7.576   0.006   1.905  0.3803  0.9026 -0.2083
   36MOL   H23510805   7.660   7.757   1.515  0.6228 -0.6399 -0.9763
   36MOL   H23610806   7.708   7.631   1.614  1.0362  1.1960  0.1631
   36MOL   H23710807   7.483   7.530   1.637  0.4206 -1.1889 -0.5545
   36MOL   H23810808   7.406   7.648   1.536  0.5263 -0.5924 -1.5323
   36MOL   H23910809   7.527   7.541   1.467 -0.0493  1.0778 -1.2048
   36MOL   H24010810   7.553   0.182   1.718  1.1295 -1.5836  1.0530
   36MOL   H24110811   7.380   0.168   1.732 -0.7602  0.4929  0.3531
   36MOL   C24210812   7.475   0.261   1.903  0.4794  0.4740 -0.3847
   36MOL   O24310813   7.598   0.242   1.971 -0.0505  0.5979 -0.2957
   36MOL   C24410814   7.608   0.219   2.104  0.3286 -0.5711  0.3101
   36MOL   O24510815   7.515   0.213   2.186  0.2605  0.2991 -0.2176
   36MOL   C24610816   7.753   0.192   2.143  0.2421 -0.2469  0.5518
   36MOL   C24710817   7.775   0.125   2.281  0.0501  0.4509 -0.3028
   36MOL   C24810818   7.476   0.405   1.857  0.3131  0.0924  0.0874
   36MOL   H24910819   7.387   0.242   1.966  2.1314  1.8711  2.4320
   36MOL   H25010820   7.793   0.129   2.064  1.0330 -0.9054  1.4565
   36MOL   H25110821   7.816   0.280   2.135 -0.4333  0.1715 -0.2092
   36MOL   H25210822   7.733   0.189   2.358  1.0531 -0.6418  1.1624
   36MOL   H25310823   7.711   0.037   2.293 -0.9346  1.2765  0.6005
   36MOL   H25410824   7.881   0.107   2.298 -0.8368 -2.0871  3.0769
   36MOL   H25510825   7.480   0.468   1.945 -0.0185  0.4408 -0.1426
   36MOL   H25610826   7.563   0.423   1.794  0.6524 -0.7138  0.3206
   36MOL   C25710827   7.345   0.442   1.787 -0.9502 -0.8108  0.6473
   36MOL   O25810828   7.231   0.417   1.866  0.2879  0.0607  0.4055
   36MOL   C25910829   7.128   0.336   1.826 -0.5081 -0.0605 -1.3293
   36MOL   O26010830   7.109   0.293   1.713 -0.2913  0.2203 -0.2983
   36MOL   C26110831   7.033   0.301   1.936  0.4374 -0.0875 -0.2339
   36MOL   C26210832   7.089   0.192   2.038  0.2402 -0.3635  0.0858
   36MOL   C26310833   7.346   0.585   1.725  0.3353  0.4501 -0.0163
   36MOL   H26410834   7.330   0.374   1.703  0.0882 -1.8386  1.2675
   36MOL   H26510835   7.003   0.386   1.996 -1.7244  0.1418 -1.5612
   36MOL   H26610836   6.943   0.256   1.893 -0.2362  0.9748  0.0411
   36MOL   H26710837   7.188   0.230   2.064 -0.5402  1.1083  0.9914
   36MOL   H26810838   7.031   0.195   2.131  0.3487 -1.0509  0.1761
   36MOL   H26910839   7.086   0.086   2.014  0.3571 -0.3645  0.0774
   36MOL   H27010840   7.350   0.663   1.801 -1.1462  0.6388 -0.1167
   36MOL   H27110841   7.442   0.606   1.679  0.6349  1.2891  0.9979
   36MOL   C27210842   7.238   0.614   1.624 -0.0048  0.5257 -0.5879
   36MOL   O27310843   7.237   0.757   1.604  0.4508 -0.7093  0.0239
   36MOL   C27410844   7.142   0.831   1.547  0.5578  0.1389  0.0278
   36MOL   O27510845   7.030   0.793   1.534  0.5026 -0.5826  0.3698
   36MOL   C27610846   7.194   0.968   1.507 -0.0390  0.1292 -0.0629
   36MOL   C27710847   7.078   1.082   1.519 -0.5181  0.6504  0.5405
   36MOL   C27810848   7.275   0.543   1.486  0.0264 -0.6614  0.3983
   36MOL   H27910849   7.143   0.573   1.659  1.4091 -1.7615  0.7482
   36MOL   H28010850   7.271   0.995   1.579  0.2087 -0.6395 -0.0352
   36MOL   H28110851   7.253   0.965   1.415  0.0773  0.3749  0.0023
   36MOL   H28210852   7.012   1.063   1.603  1.0304 -1.1978  1.3983
   36MOL   H28310853   7.125   1.180   1.534 -0.1034  0.2749  1.7745
   36MOL   H28410854   7.013   1.083   1.432  0.7492 -0.3136 -0.4409
   36MOL   H28510855   7.369   0.577   1.443  0.2803 -0.6106  0.9766
   36MOL   H28610856   7.284   0.436   1.505  0.7484 -0.3634  1.8139
   36MOL   C28710857   7.164   0.550   1.376  0.3851  0.6246  0.0887
   36MOL   O28810858   7.229   0.468   1.273  0.3813  0.0909 -0.3487
   36MOL   C28910859   7.250   0.512   1.150  0.0620  0.2025  0.2058
   36MOL   O29010860   7.253   0.628   1.119 -0.8110  0.7780 -0.2116
   36MOL   C29110861   7.283   0.393   1.066  0.8666 -0.4546  0.3830
   36MOL   C29210862   7.160   0.298   1.050  0.6321  0.5318 -0.2459
   36MOL   C29310863   7.047   0.464   1.423  0.3350  0.1092 -0.1908
   36MOL   H29410864   7.141   0.646   1.330 -0.7172  0.6919  0.7625
   36MOL   H29510865   7.305   0.419   0.962 -0.1423  0.3145  0.3587
   36MOL   H29610866   7.370   0.340   1.105  2.8704  0.9929 -1.9885
   36MOL   H29710867   7.171   0.252   0.952 -0.3082  0.1144 -0.1524
   36MOL   H29810868   7.166   0.212   1.116  0.5642  0.1872 -0.6911
   36MOL   H29910869   7.061   0.342   1.063 -0.4506 -1.8902 -0.2052
   36MOL   H30010870   6.990   0.428   1.338 -0.2763  1.7436 -0.4797
   36MOL   H30110871   7.080   0.381   1.486 -2.5475 -0.8433  0.1451
   36MOL   H30210872   6.975   0.520   1.482  0.6594  0.2375  0.0890
   37MOL     C110873   3.917   7.412   5.454  0.6903  0.0754 -0.1247
   37MOL     O210874   3.947   7.448   5.324  0.6998 -0.2044  0.4151
   37MOL     C310875   3.861   7.417   5.223  0.0358 -0.0828 -0.3089
   37MOL     O410876   3.752   7.363   5.234 -0.2154  0.0805  0.0452
   37MOL     C510877   3.905   7.471   5.096  0.3471  0.0349 -0.0788
   37MOL     C610878   4.037   7.421   5.048  0.3175  0.3177  0.1816
   37MOL     C710879   4.052   7.373   5.531 -0.5521  0.2661  0.8110
   37MOL     H810880   3.840   7.335   5.459 -0.7684  1.4068 -1.4320
   37MOL     H910881   3.831   7.461   5.016  0.2638  0.1140 -0.0127
   37MOL    H1010882   3.919   7.579   5.097 -1.1657  0.2584 -1.2306
   37MOL    H1110883   4.079   7.462   4.956  0.6049 -2.0242 -0.7542
   37MOL    H1210884   4.115   7.438   5.122 -1.4728 -0.9475  2.4149
   37MOL    H1310885   4.025   7.313   5.041  2.6828 -0.0012  0.6461
   37MOL    H1410886   4.141   7.387   5.469 -1.5942 -2.8499 -1.5386
   37MOL    H1510887   4.061   7.442   5.615 -1.5425  1.2940  0.0880
   37MOL    H1610888   3.890   7.502   5.509  1.7631 -0.2548  0.9665
   37MOL    C1710889   4.072   7.227   5.565  0.1559 -0.4346 -1.1552
   37MOL    O1810890   4.096   7.158   5.445 -0.2983 -0.4152 -0.6542
   37MOL    C1910891   4.064   7.034   5.419  0.0766  0.2672 -0.6400
   37MOL    O2010892   4.010   6.962   5.497  0.1909  0.1204  0.0117
   37MOL    C2110893   4.094   6.982   5.280  0.0007  0.7851  1.1127
   37MOL    C2210894   4.049   7.087   5.179  0.2889 -0.1098 -0.3875
   37MOL    C2310895   4.189   7.208   5.658  0.0765 -0.4363 -0.5329
   37MOL    H2410896   3.981   7.195   5.616  1.4150 -1.6751  0.3591
   37MOL    H2510897   4.201   6.963   5.284 -0.2128 -0.2574  2.1002
   37MOL    H2610898   4.048   6.883   5.272  1.5601  0.0099  1.6005
   37MOL    H2710899   3.947   7.122   5.195 -0.5688 -2.4628 -0.3951
   37MOL    H2810900   4.109   7.177   5.191  2.4740 -1.2138 -2.6158
   37MOL    H2910901   4.068   7.058   5.076  0.3436 -0.9710 -0.1473
   37MOL    H3010902   4.217   7.103   5.655  1.3020 -0.2097  1.8123
   37MOL    H3110903   4.274   7.257   5.609  0.1003  0.4745  0.4006
   37MOL    C3210904   4.193   7.257   5.811  0.5305  0.1749  0.1635
   37MOL    O3310905   4.095   7.181   5.886  0.2538  0.3098 -0.1765
   37MOL    C3410906   3.968   7.210   5.893  0.6686  0.1514  0.8227
   37MOL    O3510907   3.918   7.317   5.861 -0.1622  0.1373  0.1141
   37MOL    C3610908   3.883   7.098   5.957 -0.3243  0.1912 -0.0160
   37MOL    C3710909   3.833   6.999   5.838  0.5048 -0.2500 -0.1148
   37MOL    C3810910   4.329   7.258   5.881  0.1964  0.3174 -0.6624
   37MOL    H3910911   4.172   7.364   5.808 -2.5312 -0.4006 -3.1793
   37MOL    H4010912   3.944   7.039   6.025 -1.5495 -2.0579 -0.7866
   37MOL    H4110913   3.805   7.147   6.015  1.3170  2.4747  0.3064
   37MOL    H4210914   3.921   6.958   5.789  0.1426 -1.4502  0.2082
   37MOL    H4310915   3.757   6.926   5.867 -1.4346  1.7024 -0.1439
   37MOL    H4410916   3.781   7.053   5.759 -0.3972  1.9356  1.9205
   37MOL    H4510917   4.378   7.160   5.875 -2.4508 -1.1197  0.1178
   37MOL    H4610918   4.403   7.317   5.829  0.5052  0.6886  0.1979
   37MOL    C4710919   4.323   7.312   6.030 -0.0721 -0.2953  0.0787
   37MOL    O4810920   4.461   7.299   6.074  0.1094  0.1609  0.0089
   37MOL    C4910921   4.484   7.217   6.183 -0.2513  0.4017 -0.1736
   37MOL    O5010922   4.402   7.189   6.264 -0.1745 -0.1708  0.0837
   37MOL    C5110923   4.632   7.204   6.206  0.6338 -0.1971  0.3905
   37MOL    C5210924   4.706   7.132   6.099 -0.1026  0.8655 -0.0486
   37MOL    C5310925   4.276   7.460   6.041 -0.1573 -0.1772 -0.0993
   37MOL    H5410926   4.249   7.250   6.081 -2.1683  1.4875 -0.6969
   37MOL    H5510927   4.669   7.306   6.218  2.0826 -0.3189 -2.6595
   37MOL    H5610928   4.649   7.149   6.299  2.0880  1.4401  1.1387
   37MOL    H5710929   4.686   7.025   6.107 -1.8132  1.1753  0.1616
   37MOL    H5810930   4.664   7.158   6.002 -0.8481 -0.8668 -0.2135
   37MOL    H5910931   4.814   7.144   6.093 -0.0975  0.8997  0.1192
   37MOL    H6010932   4.352   7.521   6.091  0.2136 -0.6840 -0.0423
   37MOL    H6110933   4.279   7.496   5.938 -3.1968 -0.4265 -0.3163
   37MOL    C6210934   4.140   7.477   6.102 -0.1485 -0.2560 -0.4316
   37MOL    O6310935   4.132   7.466   6.239 -0.2545  0.0384  0.0335
   37MOL    C6410936   4.075   7.359   6.293  0.0220 -0.0775  1.1980
   37MOL    O6510937   4.037   7.259   6.236  0.5244  1.0120 -0.5928
   37MOL    C6610938   4.088   7.365   6.445 -0.0718  0.0300 -0.6048
   37MOL    C6710939   3.988   7.466   6.505  0.3388 -1.0217  0.0394
   37MOL    C6810940   4.072   7.614   6.065 -0.6825  0.3155  0.5477
   37MOL    H6910941   4.069   7.411   6.052 -0.3488  0.2470 -0.8163
   37MOL    H7010942   4.063   7.265   6.480 -0.5584  1.0955  2.2771
   37MOL    H7110943   4.191   7.388   6.471 -0.4254 -0.9630  1.7637
   37MOL    H7210944   3.971   7.466   6.612 -2.0090  0.5541 -0.2900
   37MOL    H7310945   4.022   7.567   6.479 -0.8739 -0.3218  1.1083
   37MOL    H7410946   3.891   7.441   6.462 -0.9137 -0.6129  2.5475
   37MOL    H7510947   4.067   7.614   5.957  0.5431  0.7495  0.4720
   37MOL    H7610948   3.969   7.622   6.099 -1.8175 -1.7418 -2.2668
   37MOL    C7710949   4.158   7.740   6.098 -0.2797  0.1644  0.0405
   37MOL    O7810950   4.257   7.758   5.988 -0.5369  0.5181 -0.7582
   37MOL    C7910951   4.368   7.825   6.022  0.1788  0.1369  0.0074
   37MOL    O8010952   4.389   7.895   6.121  0.0802 -0.3460 -0.1404
   37MOL    C8110953   4.482   7.781   5.935  0.3853 -0.4086  0.5074
   37MOL    C8210954   4.524   7.883   5.828  0.9007  0.0147  0.0602
   37MOL    C8310955   4.077   7.876   6.120 -0.1813  0.1876 -0.1902
   37MOL    H8410956   4.205   7.717   6.194  0.3121 -1.1099 -0.5465
   37MOL    H8510957   4.571   7.756   5.993 -0.0432  0.8687  1.7338
   37MOL    H8610958   4.451   7.691   5.883  0.1177  0.1426 -0.3046
   37MOL    H8710959   4.436   7.917   5.774 -1.0130 -2.8669  1.2285
   37MOL    H8810960   4.580   0.012   5.884  2.3882 -1.0639  0.0307
   37MOL    H8910961   4.583   7.832   5.751 -0.2965 -0.7595 -0.3698
   37MOL    H9010962   4.001   7.845   6.191 -0.4421  2.3115  0.4779
   37MOL    H9110963   4.131   0.010   6.173 -4.0326  1.1255  2.4975
   37MOL    C9210964   3.998   7.928   5.997 -0.4886  0.2270  0.4335
   37MOL    O9310965   3.861   7.898   6.001  0.0933 -0.1274  0.0837
   37MOL    C9410966   3.802   7.817   5.924  0.4244 -0.3871  0.4996
   37MOL    O9510967   3.850   7.729   5.856 -0.0222 -0.0990 -0.3478
   37MOL    C9610968   3.652   7.841   5.924 -0.2536 -0.1488 -0.4075
   37MOL    C9710969   3.605   0.034   5.943  0.4848 -0.1617  0.1350
   37MOL    C9810970   4.023   0.139   5.982  0.0220 -0.0111  0.1169
   37MOL    H9910971   4.040   7.872   5.914  0.3301  0.7629  0.4743
   37MOL   H10010972   3.606   7.799   5.834 -2.0576  2.3409 -0.6985
   37MOL   H10110973   3.609   7.793   6.011 -0.8625 -0.6205 -0.9588
   37MOL   H10210974   3.499   0.043   5.918  0.8790  1.8935 -0.9335
   37MOL   H10310975   3.608   0.064   6.048 -0.1161 -1.5000  0.5369
   37MOL   H10410976   3.669   0.102   5.887  0.1757 -1.1506 -1.4634
   37MOL   H10510977   3.953   0.193   6.047 -2.5135 -0.3394 -2.2647
   37MOL   H10610978   4.122   0.170   6.016  0.1784  0.0795 -0.4272
   37MOL   C10710979   4.018   0.199   5.839 -0.4387  0.7033 -0.8971
   37MOL   O10810980   4.062   0.335   5.843 -0.3241  0.0222  0.6114
   37MOL   C10910981   3.964   0.443   5.836 -0.2240  0.0111 -0.2747
   37MOL   O11010982   3.846   0.431   5.807  0.0717 -0.0141 -1.0578
   37MOL   C11110983   4.017   0.582   5.854  0.8577  0.0765 -0.1237
   37MOL   C11210984   4.091   0.619   5.725  0.1406  0.0048  0.4989
   37MOL   C11310985   4.131   0.146   5.745 -0.8656  0.1460  0.6085
   37MOL   H11410986   3.919   0.194   5.795 -0.7448  0.4579 -0.1814
   37MOL   H11510987   3.945   0.660   5.877 -2.0153 -3.0315  1.8860
   37MOL   H11610988   4.083   0.578   5.940 -1.0848 -2.5016  1.3358
   37MOL   H11710989   4.148   0.712   5.732  0.1250 -0.0472  1.3220
   37MOL   H11810990   4.166   0.544   5.697 -0.0656 -0.3615  0.9266
   37MOL   H11910991   4.011   0.625   5.651  0.2379 -2.2300  0.1778
   37MOL   H12010992   4.231   0.181   5.771  0.2675 -1.8127 -0.9725
   37MOL   H12110993   4.125   0.040   5.767  2.1444 -0.1514  0.2152
   37MOL   C12210994   4.106   0.176   5.600  0.4435  0.3347  0.0923
   37MOL   O12310995   4.226   0.150   5.528 -0.0327  0.1838 -0.5376
   37MOL   C12410996   4.249   0.223   5.416 -0.1018  0.7319 -0.6457
   37MOL   O12510997   4.176   0.309   5.378 -0.1131 -0.9904 -0.0303
   37MOL   C12610998   4.361   0.168   5.328 -0.0184 -0.4254 -0.3407
   37MOL   C12710999   4.318   0.049   5.247  0.1576  0.6522 -0.2982
   37MOL   C12811000   3.991   0.090   5.544 -0.1878  0.7031 -0.0453
   37MOL   H12911001   4.087   0.284   5.606  5.3899  1.4134 -1.0154
   37MOL   H13011002   4.391   0.253   5.267 -0.6590 -1.4459 -2.1250
   37MOL   H13111003   4.440   0.144   5.399  0.3837 -0.3946 -0.7728
   37MOL   H13211004   4.333   7.910   5.316 -0.9656  0.2095 -0.5721
   37MOL   H13311005   4.211   0.053   5.227  0.0784  1.8620  0.3067
   37MOL   H13411006   4.371   0.057   5.152  0.0063 -1.5628 -0.5992
   37MOL   H13511007   3.913   0.062   5.615  2.5174 -2.4797  1.8223
   37MOL   H13611008   3.942   0.155   5.472 -0.4207  0.6091  0.0279
   37MOL   C13711009   4.036   7.893   5.477  0.0920  1.3186 -0.1395
   37MOL   O13811010   4.117   7.818   5.568 -0.3413  0.0459  0.2546
   37MOL   C13911011   4.191   7.720   5.528 -0.4359 -0.4190 -0.2599
   37MOL   O14011012   4.210   7.688   5.413  0.3212  0.2274  0.0974
   37MOL   C14111013   4.255   7.648   5.647  0.6448  0.1639 -0.0353
   37MOL   C14211014   4.359   7.544   5.600  0.0953  0.1513 -0.8860
   37MOL   C14311015   3.906   7.817   5.448  0.2640 -0.0833 -0.2909
   37MOL   H14411016   4.088   7.911   5.383  1.5524 -2.7166 -0.2258
   37MOL   H14511017   4.300   7.733   5.699  0.2875  0.5702 -0.3858
   37MOL   H14611018   4.185   7.601   5.715  2.0983  1.2677  2.2680
   37MOL   H14711019   4.434   7.601   5.545  0.3526  1.5322  0.8463
   37MOL   H14811020   4.407   7.511   5.692 -0.7374 -0.5506 -0.6971
   37MOL   H14911021   4.322   7.456   5.547 -0.1595 -0.1215 -0.2629
   37MOL   H15011022   3.930   7.723   5.398 -2.4022 -0.0469 -1.7001
   37MOL   H15111023   3.863   7.779   5.541 -3.2805 -0.5430 -2.0646
   37MOL   C15211024   3.802   7.890   5.356  0.1830  0.5648  0.3878
   37MOL   O15311025   3.872   7.925   5.241 -0.8992 -0.2267  0.1661
   37MOL   C15411026   3.862   0.103   5.175  0.7071  0.6202  0.4397
   37MOL   O15511027   3.794   0.199   5.216 -0.3856 -0.3546  0.0059
   37MOL   C15611028   3.930   0.109   5.043  0.1207 -0.3948  0.0128
   37MOL   C15711029   3.894   0.225   4.962  0.0140  0.5348  0.4570
   37MOL   C15811030   3.684   7.794   5.325 -0.2889 -0.3381 -0.1326
   37MOL   H15911031   3.772   0.036   5.408  0.2234  1.1600 -0.6189
   37MOL   H16011032   4.034   0.122   5.071  0.6723 -0.2688 -2.0247
   37MOL   H16111033   3.914   0.016   4.988  1.5644  0.2218 -1.4735
   37MOL   H16211034   3.786   0.221   4.945  0.1275  1.2860 -0.5049
   37MOL   H16311035   3.905   0.325   5.005 -0.6710  0.9234 -0.2497
   37MOL   H16411036   3.953   0.212   4.871  0.9641  0.6225  1.0528
   37MOL   H16511037   3.712   7.720   5.250  0.1356  0.4789 -0.7867
   37MOL   H16611038   3.654   7.741   5.416 -1.5030 -1.2160 -1.0187
   37MOL   C16711039   3.561   7.865   5.266 -0.7949 -0.3015  1.0987
   37MOL   O16811040   3.562   7.839   5.122  0.6063 -0.2374  0.0896
   37MOL   C16911041   3.535   7.925   5.021 -0.0682 -0.0841 -0.4283
   37MOL   O17011042   3.499   0.095   5.037  0.5858  0.8039  0.6660
   37MOL   C17111043   3.566   7.872   4.882  0.5945  0.1188  0.1067
   37MOL   C17211044   3.566   0.037   4.775  0.7702  0.0464  0.0698
   37MOL   C17311045   3.432   7.823   5.326 -0.3148  0.1419  0.1734
   37MOL   H17411046   3.564   0.027   5.287  2.5976  0.5056 -2.7645
   37MOL   H17511047   3.662   7.819   4.888 -0.8150 -2.3867  1.4925
   37MOL   H17611048   3.499   7.791   4.854  0.8176 -1.2867  3.3231
   37MOL   H17711049   3.476   0.098   4.780 -0.3092 -1.5465  0.6196
   37MOL   H17811050   3.655   0.100   4.777  1.3937 -0.8267  0.6025
   37MOL   H17911051   3.569   7.941   4.673  1.0338 -2.1308  0.9193
   37MOL   H18011052   3.351   7.858   5.262 -1.5865 -1.1655  1.0328
   37MOL   H18111053   3.426   7.715   5.315  1.5439  0.2908 -2.9509
   37MOL   C18211054   3.410   7.862   5.475  0.4263 -0.2967 -0.3899
   37MOL   O18311055   3.449   0.049   5.501 -0.5990  0.2818 -0.1155
   37MOL   C18411056   3.551   0.086   5.579  0.3992  1.1658  0.5679
   37MOL   O18511057   3.640   0.012   5.605  0.5991  0.3218 -0.2068
   37MOL   C18611058   3.557   0.231   5.627  0.6674  0.5858 -0.2818
   37MOL   C18711059   3.609   0.333   5.521 -0.3779  0.2851  0.3158
   37MOL   C18811060   3.267   7.842   5.515 -0.0432 -0.1430 -0.2218
   37MOL   H18911061   3.479   7.797   5.529 -0.6652 -1.8401 -0.8214
   37MOL   H19011062   3.454   0.251   5.655 -0.1647  1.0037 -3.4320
   37MOL   H19111063   3.612   0.237   5.721 -0.4437 -1.5457  0.5304
   37MOL   H19211064   3.653   0.425   5.559  0.7193 -0.4648  0.9109
   37MOL   H19311065   3.684   0.282   5.461 -0.3356 -1.6927  1.9577
   37MOL   H19411066   3.540   0.362   5.442 -1.1758 -0.3087  0.7785
   37MOL   H19511067   3.206   7.904   5.450  0.1154 -0.6357 -0.8464
   37MOL   H19611068   3.255   7.739   5.482  1.2440 -1.0267  1.9203
   37MOL   C19711069   3.210   7.849   5.656 -1.1475  0.0098 -0.1603
   37MOL   O19811070   3.302   7.784   5.748 -0.2743 -0.0395  0.4888
   37MOL   C19911071   3.274   7.664   5.795  0.3383  0.4901  0.1791
   37MOL   O20011072   3.167   7.607   5.788 -0.3396 -0.3114  0.0568
   37MOL   C20111073   3.394   7.599   5.871 -0.2278  0.6141  0.4983
   37MOL   C20211074   3.357   7.468   5.942  0.3639  0.0021  0.1559
   37MOL   C20311075   3.173   0.046   5.705 -0.6198 -0.0977  0.5976
   37MOL   H20411076   3.111   7.803   5.655 -0.4292 -1.5747  0.2072
   37MOL   H20511077   3.463   7.566   5.794 -0.3246  1.9689 -0.1836
   37MOL   H20611078   3.447   7.673   5.930  0.9912  1.7639 -1.9561
   37MOL   H20711079   3.446   7.405   5.940  0.4885  0.1377  0.9242
   37MOL   H20811080   3.326   7.487   6.045 -3.4876 -0.6640 -0.8072
   37MOL   H20911081   3.276   7.405   5.906 -1.6069  1.6396  1.5718
   37MOL   H21011082   3.267   0.101   5.711 -1.7445  1.8149  1.2369
   37MOL   H21111083   3.109   0.082   5.624 -1.1330 -0.7873  0.6951
   37MOL   C21211084   3.099   0.049   5.840  0.9712 -1.6361  0.3818
   37MOL   O21311085   3.190   0.061   5.950  0.2067 -0.0030 -0.2603
   37MOL   C21411086   3.166   0.032   6.071  0.6220  0.4421 -0.7868
   37MOL   O21511087   3.058   0.000   6.111 -0.1880 -0.2418  0.3445
   37MOL   C21611088   3.287   0.029   6.157 -0.3223  0.1534 -0.0991
   37MOL   C21711089   3.312   7.830   6.205 -0.1728 -0.7438  0.0809
   37MOL   C21811090   2.998   0.169   5.842 -0.3491 -0.2304  0.5481
   37MOL   H21911091   3.047   7.898   5.850  0.0817 -1.2488 -0.4144
   37MOL   H22011092   3.371   0.065   6.097  1.3107 -0.1293  1.9404
   37MOL   H22111093   3.280   0.103   6.236  0.9541 -0.4645  0.6234
   37MOL   H22211094   3.399   7.823   6.270 -0.9674  2.4570  1.5994
   37MOL   H22311095   3.229   7.798   6.267 -0.3130 -3.3053 -1.3831
   37MOL   H22411096   3.323   7.750   6.132 -2.2425 -1.2880  0.3349
   37MOL   H22511097   2.970   0.207   5.941  0.5825  3.0101 -0.3928
   37MOL   H22611098   3.063   0.254   5.821  1.8642 -2.0334 -0.0225
   37MOL   C22711099   2.867   0.161   5.763 -1.4706  0.8378 -0.2722
   37MOL   O22811100   2.778   0.071   5.834  0.3827 -0.0999  0.3736
   37MOL   C22911101   2.767   7.886   5.798  0.0124 -0.1837  0.1177
   37MOL   O23011102   2.831   7.823   5.716 -0.2086  0.1699  0.1158
   37MOL   C23111103   2.679   7.816   5.903 -0.3956 -0.2171  0.4639
   37MOL   C23211104   2.721   7.853   6.054  0.2667 -0.2441  0.0023
   37MOL   C23311105   2.793   0.299   5.744  0.0458  0.4626  0.1618
   37MOL   H23411106   2.898   0.130   5.663  1.7100  0.7613  0.6892
   37MOL   H23511107   2.574   7.830   5.880  0.1257  1.1306 -1.1766
   37MOL   H23611108   2.690   7.709   5.891  0.4771 -0.1017  0.1663
   37MOL   H23711109   2.686   0.006   6.087  0.1043  0.1482 -1.3165
   37MOL   H23811110   2.675   7.778   6.119  0.1948  0.0453  0.2853
   37MOL   H23911111   2.828   7.860   6.073  0.4519 -1.6419 -0.4791
   37MOL   H24011112   2.691   0.269   5.719 -0.0860  1.8691 -1.0895
   37MOL   H24111113   2.770   0.359   5.831  0.3670 -0.1267  0.6550
   37MOL   C24211114   2.848   0.396   5.630  0.2202  0.2653  0.2011
   37MOL   O24311115   2.735   0.479   5.604 -0.3059  0.1752 -0.2736
   37MOL   C24411116   2.673   0.478   5.486  0.2043  0.5307  0.4858
   37MOL   O24511117   2.702   0.404   5.394 -0.1002  0.0536  0.0306
   37MOL   C24611118   2.549   0.570   5.475  0.7600 -1.0740 -0.5256
   37MOL   C24711119   2.431   0.520   5.558 -0.8698  0.1035  0.2947
   37MOL   C24811120   2.972   0.489   5.670 -0.0939 -0.1692  0.0693
   37MOL   H24911121   2.882   0.343   5.541 -2.6471 -0.0743 -0.7283
   37MOL   H25011122   2.574   0.672   5.504  0.5716 -1.2855  0.4100
   37MOL   H25111123   2.518   0.569   5.371 -3.8765  2.3936  0.6853
   37MOL   H25211124   2.332   0.565   5.546 -0.3395  1.7963  2.0627
   37MOL   H25311125   2.427   0.413   5.534  0.1382  0.3925 -1.2461
   37MOL   H25411126   2.454   0.528   5.664  1.6190  3.1198 -0.4189
   37MOL   H25511127   2.953   0.518   5.774 -1.6898  1.2793 -0.5939
   37MOL   H25611128   3.062   0.429   5.663  1.6167  2.3434 -0.1474
   37MOL   C25711129   2.995   0.607   5.571  0.6821 -0.0799 -0.3612
   37MOL   O25811130   2.910   0.720   5.609  0.7856  0.3723 -0.8708
   37MOL   C25911131   2.843   0.788   5.523  0.0510 -0.8842 -0.5509
   37MOL   O26011132   2.841   0.771   5.405  0.2675  0.1707 -0.4244
   37MOL   C26111133   2.755   0.889   5.593  0.1441  0.1850  0.0730
   37MOL   C26211134   2.745   1.023   5.518 -0.1955  0.1121 -0.0368
   37MOL   C26311135   3.136   0.663   5.564  0.0738 -0.8479  0.3542
   37MOL   H26411136   2.971   0.564   5.474 -2.0964  2.1845 -0.7456
   37MOL   H26511137   2.655   0.848   5.610  0.4098  0.4555  2.4453
   37MOL   H26611138   2.790   0.908   5.695  0.0358 -0.7656  0.2911
   37MOL   H26711139   2.692   1.015   5.422 -3.3243  1.5428  1.4842
   37MOL   H26811140   2.693   1.105   5.566 -1.0482 -0.1638 -0.4683
   37MOL   H26911141   2.842   1.066   5.496 -0.0542 -0.3662 -0.3745
   37MOL   H27011142   3.130   0.753   5.503  1.4883 -1.7826 -1.2137
   37MOL   H27111143   3.160   0.682   5.669  1.7107  1.2145 -0.3724
   37MOL   C27211144   3.249   0.578   5.516  0.0479 -0.5566  0.8681
   37MOL   O27311145   3.229   0.506   5.396  0.2114 -0.3266  0.6217
   37MOL   C27411146   3.214   0.364   5.403 -0.6375 -0.3862  0.2446
   37MOL   O27511147   3.221   0.297   5.504 -0.9710  0.4448 -0.4089
   37MOL   C27611148   3.173   0.314   5.268  0.8617  0.9516  0.4162
   37MOL   C27711149   3.239   0.180   5.242 -0.0712 -0.6621  0.4489
   37MOL   C27811150   3.383   0.663   5.515 -0.3216 -0.8691 -0.1890
   37MOL   H27911151   3.258   0.505   5.596  1.1511  0.2599  1.4968
   37MOL   H28011152   3.065   0.306   5.257  1.1376  0.5344 -2.5083
   37MOL   H28111153   3.207   0.383   5.190  3.2824 -2.2959 -1.5778
   37MOL   H28211154   3.337   0.169   5.289  0.0951 -0.8054  0.0712
   37MOL   H28311155   3.180   0.095   5.275  1.1260 -0.5093  3.0348
   37MOL   H28411156   3.257   0.181   5.134  0.4451 -1.9982  0.5113
   37MOL   H28511157   3.469   0.606   5.481  1.1122  1.3767 -0.4920
   37MOL   H28611158   3.376   0.739   5.437 -0.0166 -0.6846 -0.0395
   37MOL   C28711159   3.436   0.726   5.647  0.3159 -0.0661  0.3282
   37MOL   O28811160   3.469   0.621   5.737 -0.4022  0.7737 -0.0192
   37MOL   C28911161   3.417   0.595   5.857 -0.5923 -0.1498 -0.0947
   37MOL   O29011162   3.342   0.670   5.922  0.2635  0.1618 -0.3015
   37MOL   C29111163   3.455   0.459   5.911 -0.1610 -0.1291  0.1619
   37MOL   C29211164   3.337   0.361   5.912 -0.1856 -0.8231  0.1336
   37MOL   C29311165   3.549   0.821   5.625 -0.1530  0.7044  0.4839
   37MOL   H29411166   3.344   0.768   5.689  0.4417  0.1778  0.3603
   37MOL   H29511167   3.542   0.410   5.868 -1.3941  0.4165 -3.0761
   37MOL   H29611168   3.488   0.472   6.014 -1.3187  1.6987  0.3269
   37MOL   H29711169   3.243   0.412   5.935  1.5375  1.3972  2.4185
   37MOL   H29811170   3.321   0.315   5.815 -1.4082 -0.0768 -0.0369
   37MOL   H29911171   3.337   0.282   5.987 -1.1860  0.1837  1.2180
   37MOL   H30011172   3.634   0.758   5.598 -0.5686 -0.5315  1.9824
   37MOL   H30111173   3.523   0.890   5.544 -0.5664  1.3914  1.2046
   37MOL   H30211174   3.581   0.870   5.716  2.6643  0.9934 -0.6073
   38MOL     C111175   6.927   0.052   1.435 -0.2908  0.2155  0.2538
   38MOL     O211176   6.850   0.111   1.332 -0.0837  0.0105  0.5703
   38MOL     C311177   6.874   0.088   1.199  0.4885 -0.2033  0.4745
   38MOL     O411178   6.976   0.028   1.160 -0.7810  0.0161  0.2534
   38MOL     C511179   6.766   0.149   1.105  0.0218 -0.2410  0.6007
   38MOL     C611180   6.781   0.302   1.080 -0.4816 -0.3794 -0.2286
   38MOL     C711181   6.863   7.874   1.489  0.8793 -0.6636 -0.5987
   38MOL     H811182   6.923   0.124   1.517 -1.6787  1.0238 -0.5107
   38MOL     H911183   6.770   0.099   1.008  0.4068  0.2378  0.3710
   38MOL    H1011184   6.666   0.121   1.140 -0.5944  1.1802 -0.0123
   38MOL    H1111185   6.687   0.326   1.029 -0.4630  0.0811 -0.0426
   38MOL    H1211186   6.794   0.370   1.164  0.4806  1.6381 -1.9664
   38MOL    H1311187   6.855   0.315   1.001 -1.2650 -1.3560 -1.1525
   38MOL    H1411188   6.911   7.845   1.583  0.6278  1.4958  0.2346
   38MOL    H1511189   6.764   7.910   1.518  1.5004  0.2256  0.5002
   38MOL    H1611190   7.033   0.038   1.413  0.2233 -0.2562  2.8545
   38MOL    C1711191   6.849   7.760   1.398 -0.2180  0.8659 -0.3327
   38MOL    O1811192   6.986   7.721   1.386  0.5029 -0.1421 -0.0749
   38MOL    C1911193   7.022   7.649   1.276 -0.4125  0.6038 -0.2617
   38MOL    O2011194   6.953   7.625   1.182  1.0321  0.4621 -0.2115
   38MOL    C2111195   7.154   7.576   1.300 -0.5895 -0.2896 -0.2664
   38MOL    C2211196   7.262   7.615   1.194 -0.3350  0.1673 -0.2484
   38MOL    C2311197   6.772   7.640   1.467 -0.5009  0.1241 -0.4001
   38MOL    H2411198   6.807   7.777   1.299  0.2099 -0.1962 -0.7147
   38MOL    H2511199   7.181   7.607   1.401 -0.0619  0.0729 -0.5184
   38MOL    H2611200   7.151   7.468   1.289 -2.1636 -0.3263  0.3993
   38MOL    H2711201   7.351   7.553   1.207 -0.2804 -0.0224 -1.4907
   38MOL    H2811202   7.242   7.590   1.090  1.0415 -0.7901 -0.2932
   38MOL    H2911203   7.287   7.721   1.199  1.4284 -0.2233 -0.4129
   38MOL    H3011204   6.806   7.542   1.433 -1.4373 -0.1968 -0.4105
   38MOL    H3111205   6.801   7.622   1.570 -2.9713  0.1221  0.3245
   38MOL    C3211206   6.624   7.642   1.457 -0.0719 -0.2807  0.8958
   38MOL    O3311207   6.587   7.606   1.325  0.7031  0.3142  0.0128
   38MOL    C3411208   6.535   7.689   1.233  0.3305 -0.3856  0.1863
   38MOL    O3511209   6.509   7.811   1.254 -0.4446  0.1503 -0.0244
   38MOL    C3611210   6.501   7.617   1.104 -0.1325 -0.5105  0.1372
   38MOL    C3711211   6.624   7.591   1.017 -0.9645 -0.0975 -0.2130
   38MOL    C3811212   6.564   7.539   1.564  0.2782 -0.3042  0.4611
   38MOL    H3911213   6.582   7.741   1.477 -0.9645 -0.3121 -0.7283
   38MOL    H4011214   6.465   7.519   1.136  0.6285 -1.1681 -0.9550
   38MOL    H4111215   6.426   7.678   1.054  0.1240 -0.7317 -0.5351
   38MOL    H4211216   6.705   7.542   1.070 -1.1797  0.5522  0.7269
   38MOL    H4311217   6.597   7.519   0.939  0.3105 -0.0082 -0.7494
   38MOL    H4411218   6.649   7.680   0.959 -0.1630  0.5537  1.1324
   38MOL    H4511219   6.607   7.440   1.554 -3.8426 -2.1497  0.1934
   38MOL    H4611220   6.595   7.589   1.655  2.5884 -2.5839  0.9844
   38MOL    C4711221   6.416   7.508   1.555 -0.0063 -0.2149  0.6479
   38MOL    O4811222   6.382   7.426   1.670 -0.2501 -0.0668 -0.2205
   38MOL    C4911223   6.330   7.302   1.648 -0.0187 -0.0899 -0.6946
   38MOL    O5011224   6.294   7.262   1.540  0.1713  0.2494 -0.1435
   38MOL    C5111225   6.316   7.214   1.777  0.4902 -0.4496 -0.1108
   38MOL    C5211226   6.210   7.104   1.756 -0.0287 -0.0915  0.3867
   38MOL    C5311227   6.326   7.640   1.569  0.0566 -0.1872  0.6061
   38MOL    H5411228   6.395   7.470   1.455 -1.7348  1.2342  0.4223
   38MOL    H5511229   6.418   7.182   1.799  1.6821  2.1788 -1.5685
   38MOL    H5611230   6.280   7.270   1.863  0.4710 -2.5003  1.2500
   38MOL    H5711231   6.210   7.026   1.832  1.6168  0.0483  0.5533
   38MOL    H5811232   6.114   7.153   1.740  0.2613  0.1093 -0.7685
   38MOL    H5911233   6.242   7.058   1.663 -0.7996 -2.2251  1.1556
   38MOL    H6011234   6.353   7.674   1.669  0.2754  1.1887  0.0866
   38MOL    H6111235   6.347   7.718   1.497 -0.4197 -1.5442 -1.0235
   38MOL    C6211236   6.175   7.614   1.579  0.0481  0.5018  0.7480
   38MOL    O6311237   6.101   7.725   1.628 -0.2968 -0.3574 -0.0875
   38MOL    C6411238   6.095   7.848   1.575  0.2612  0.7384 -0.4713
   38MOL    O6511239   6.148   7.886   1.475 -0.1756  0.6235 -0.0880
   38MOL    C6611240   5.996   7.933   1.642 -0.4236  0.0936 -0.4862
   38MOL    C6711241   5.875   0.033   1.565  0.2677  0.3813  0.1658
   38MOL    C6811242   6.109   7.560   1.451  0.3403 -0.2434  0.3432
   38MOL    H6911243   6.154   7.545   1.661  0.5190  1.8461  2.0059
   38MOL    H7011244   5.964   7.887   1.736 -0.4817  2.3341  0.6292
   38MOL    H7111245   6.045   0.083   1.666 -0.7700  0.9169 -2.9292
   38MOL    H7211246   5.897   0.107   1.488 -0.6646  0.7103  0.2114
   38MOL    H7311247   5.826   7.891   1.523  0.0208  0.1636  0.8903
   38MOL    H7411248   5.802   0.072   1.637  0.1856 -1.6209  1.1941
   38MOL    H7511249   6.091   7.633   1.373  0.6938 -0.1585  0.3407
   38MOL    H7611250   6.172   7.481   1.411  0.9823 -0.7931  2.3522
   38MOL    C7711251   5.980   7.481   1.475  0.0908  0.2021 -0.1429
   38MOL    O7811252   5.875   7.562   1.533  0.0439 -0.1696 -0.3106
   38MOL    C7911253   5.788   7.516   1.629  0.1586  0.0638  0.4964
   38MOL    O8011254   5.796   7.404   1.679  0.6078  0.3276 -0.2344
   38MOL    C8111255   5.675   7.611   1.663  0.2065  0.0365  0.6840
   38MOL    C8211256   5.581   7.658   1.547  0.2792 -0.0280  0.2111
   38MOL    C8311257   5.929   7.407   1.341  0.1042 -0.4559 -0.1433
   38MOL    H8411258   6.011   7.398   1.537  1.2489  0.4582 -0.3715
   38MOL    H8511259   5.615   7.572   1.744  0.9938 -1.7607  0.4239
   38MOL    H8611260   5.725   7.700   1.702 -0.3500  1.5655 -1.9487
   38MOL    H8711261   5.561   7.586   1.468 -1.5693 -0.7174  1.2559
   38MOL    H8811262   5.481   7.687   1.582 -0.7268  0.9183 -3.3028
   38MOL    H8911263   5.620   7.741   1.488 -2.6329 -1.1953 -3.5536
   38MOL    H9011264   5.872   7.483   1.289  3.4400  1.7969 -0.6786
   38MOL    H9111265   6.009   7.380   1.272 -1.8309 -0.4688 -2.4358
   38MOL    C9211266   5.851   7.278   1.362 -0.1215  0.2943 -0.0919
   38MOL    O9311267   5.807   7.236   1.245 -0.2973  0.4170  0.0572
   38MOL    C9411268   5.681   7.260   1.209 -0.5471 -0.4744 -0.7375
   38MOL    O9511269   5.591   7.305   1.280 -0.2541 -0.3512  0.2650
   38MOL    C9611270   5.653   7.213   1.068  0.6819  0.4514 -0.0334
   38MOL    C9711271   5.520   7.277   1.013 -0.3005 -0.1335 -0.1644
   38MOL    C9811272   5.935   7.167   1.424 -0.3188 -0.9044  0.1764
   38MOL    H9911273   5.769   7.287   1.432  0.1624 -0.6010  0.3640
   38MOL   H10011274   5.732   7.235   0.996  0.6155 -0.0745 -0.2678
   38MOL   H10111275   5.658   7.104   1.068  2.0770  0.4751 -2.2186
   38MOL   H10211276   5.525   7.384   0.995  2.7735 -0.3146 -0.5698
   38MOL   H10311277   5.495   7.246   0.911  0.2954  0.9323 -0.6401
   38MOL   H10411278   5.434   7.265   1.079 -0.9056 -0.4060 -0.9825
   38MOL   H10511279   6.020   7.141   1.360  0.5589  1.9530  0.0884
   38MOL   H10611280   5.982   7.200   1.517  2.5141 -0.4718 -1.3315
   38MOL   C10711281   5.849   7.045   1.456 -0.6556  0.1612  0.0813
   38MOL   O10811282   5.942   6.938   1.489  0.1679  0.3396  0.4775
   38MOL   C10911283   5.970   6.826   1.419 -0.1217  1.2747 -0.2407
   38MOL   O11011284   5.925   6.802   1.308 -0.3366 -0.1117  0.3991
   38MOL   C11111285   6.073   6.729   1.482  0.7781  0.4824  0.1591
   38MOL   C11211286   6.029   6.578   1.482 -0.5140  0.3831 -0.4323
   38MOL   C11311287   5.762   7.064   1.586  0.1067 -0.6809 -0.0172
   38MOL   H11411288   5.784   7.012   1.375  0.4466  0.7838 -1.0537
   38MOL   H11511289   6.166   6.756   1.431 -0.2625  3.5046 -0.2716
   38MOL   H11611290   6.088   6.748   1.589 -0.9316 -0.7525  0.6406
   38MOL   H11711291   6.105   6.510   1.521 -0.6366  1.4023  1.6983
   38MOL   H11811292   5.945   6.572   1.552  0.6584  0.7288  1.0406
   38MOL   H11911293   6.010   6.546   1.380 -0.0022  2.8172 -1.3292
   38MOL   H12011294   5.782   6.982   1.655 -1.0696 -0.4905  0.5685
   38MOL   H12111295   5.794   7.148   1.649 -0.5396 -1.9444  2.0322
   38MOL   C12211296   5.614   7.081   1.562 -0.5785  0.3522  0.0476
   38MOL   O12311297   5.561   6.953   1.537 -0.1185  0.0225  0.2029
   38MOL   C12411298   5.527   6.907   1.416 -0.2150 -0.2932  1.2219
   38MOL   O12511299   5.534   6.965   1.308  0.3161 -0.2846  0.1367
   38MOL   C12611300   5.487   6.769   1.419  0.0473  0.4196 -0.1584
   38MOL   C12711301   5.604   6.672   1.459 -0.0105 -0.1705 -0.2616
   38MOL   C12811302   5.534   7.153   1.672 -0.3706  0.4615  0.8243
   38MOL   H12911303   5.596   7.139   1.471 -0.5583  0.7569  0.2987
   38MOL   H13011304   5.405   6.765   1.491  1.4830 -0.4783  1.4696
   38MOL   H13111305   5.437   6.736   1.328 -1.0533 -0.4936  0.7601
   38MOL   H13211306   5.656   6.634   1.372 -1.7807  0.0334 -1.4410
   38MOL   H13311307   5.669   6.717   1.534  1.0113  0.2150 -1.3851
   38MOL   H13411308   5.565   6.582   1.508  0.4548 -0.9379 -1.2848
   38MOL   H13511309   5.531   7.092   1.763  1.0612  0.9234  1.1991
   38MOL   H13611310   5.588   7.243   1.700  0.7286  0.2062 -0.4692
   38MOL   C13711311   5.389   7.203   1.655  0.5701 -0.0742 -0.1589
   38MOL   O13811312   5.356   7.300   1.758  0.4485 -0.4602  0.4236
   38MOL   C13911313   5.258   7.274   1.842 -0.0485 -0.0785  0.1255
   38MOL   O14011314   5.181   7.178   1.845 -0.0721  0.2375  0.4783
   38MOL   C14111315   5.248   7.380   1.956 -1.1087  0.1043  0.0933
   38MOL   C14211316   5.371   7.382   2.052  0.0743  0.3478  0.3675
   38MOL   C14311317   5.369   7.272   1.518 -0.2158  0.8295  0.2201
   38MOL   H14411318   5.315   7.123   1.653 -0.6789  0.9557  2.5728
   38MOL   H14511319   5.241   7.480   1.913  0.5182  0.2664  0.1557
   38MOL   H14611320   5.163   7.359   2.021 -1.5000  1.3676  0.0180
   38MOL   H14711321   5.469   7.392   2.006 -0.9252  1.3490 -1.5725
   38MOL   H14811322   5.358   7.465   2.122 -1.2736 -1.1784  2.0028
   38MOL   H14911323   5.375   7.286   2.105  1.3509  0.5056  0.5665
   38MOL   H15011324   5.444   7.350   1.504  0.6364 -0.2991 -1.6205
   38MOL   H15111325   5.382   7.194   1.444  1.1650  0.7284  0.5554
   38MOL   C15211326   5.231   7.328   1.500  0.6587 -0.2442 -0.4193
   38MOL   O15311327   5.229   7.455   1.558 -0.2023 -0.0308  0.4032
   38MOL   C15411328   5.125   7.503   1.619  0.1725  0.0227  0.3380
   38MOL   O15511329   5.037   7.431   1.665  0.4453  0.3297  0.0414
   38MOL   C15611330   5.133   7.649   1.657 -0.0458  0.1528  0.0422
   38MOL   C15711331   5.044   7.674   1.783 -0.7779 -0.1913  0.0127
   38MOL   C15811332   5.198   7.337   1.346 -0.3529 -0.1024 -0.2768
   38MOL   H15911333   5.157   7.269   1.555 -0.5663  1.7331  0.0806
   38MOL   H16011334   5.236   7.676   1.679  0.6289 -0.2360 -2.5357
   38MOL   H16111335   5.108   7.702   1.566  0.4510  0.8015  0.2829
   38MOL   H16211336   4.939   7.646   1.770 -0.9807 -0.4586  2.0870
   38MOL   H16311337   5.084   7.609   1.860  1.0456  2.6802  1.5917
   38MOL   H16411338   5.059   7.771   1.831  1.7422 -0.3165 -0.4865
   38MOL   H16511339   5.109   7.399   1.336  0.0372  0.3466 -1.0803
   38MOL   H16611340   5.284   7.379   1.294  0.6664  0.0408  1.4884
   38MOL   C16711341   5.172   7.206   1.288  0.9363  0.4089  0.5853
   38MOL   O16811342   5.055   7.150   1.353 -0.6918  0.5467  0.6229
   38MOL   C16911343   5.051   7.022   1.402  0.7550 -0.3822 -0.1525
   38MOL   O17011344   5.152   6.951   1.414 -0.3390 -0.4757  1.0152
   38MOL   C17111345   4.913   6.996   1.454 -0.0564  0.6147  0.1746
   38MOL   C17211346   4.918   7.054   1.600 -0.1682  0.0665  0.6527
   38MOL   C17311347   5.131   7.222   1.139 -0.2810  0.0542  0.9062
   38MOL   H17411348   5.261   7.143   1.290 -0.1968 -1.4644 -2.8654
   38MOL   H17511349   4.849   7.046   1.380 -1.5166  0.1653  1.1057
   38MOL   H17611350   4.885   6.892   1.467 -0.1029  0.8622  2.0799
   38MOL   H17711351   4.817   7.055   1.642 -0.7855  0.5693 -0.8214
   38MOL   H17811352   4.977   6.982   1.657  0.3252  0.2800  0.4171
   38MOL   H17911353   4.963   7.153   1.607  1.2708 -0.5776  0.7540
   38MOL   H18011354   5.048   7.292   1.131 -1.2607 -1.2547 -0.7942
   38MOL   H18111355   5.212   7.277   1.093 -2.9687  3.3603 -0.0785
   38MOL   C18211356   5.117   7.090   1.068 -0.1602 -0.1640 -0.2762
   38MOL   O18311357   5.087   7.138   0.942  0.5121 -0.3741  0.6836
   38MOL   C18411358   4.982   7.101   0.871 -0.4531 -0.6819  0.0066
   38MOL   O18511359   4.897   7.019   0.901 -0.8300 -0.0936  0.0428
   38MOL   C18611360   4.982   7.164   0.733 -0.0720 -0.0151 -0.2611
   38MOL   C18711361   5.107   7.129   0.659 -0.2387 -0.0818 -0.6804
   38MOL   C18811362   5.246   7.004   1.067  0.1484  0.1837  0.3779
   38MOL   H18911363   5.033   7.038   1.113 -1.1288  0.3780 -1.4152
   38MOL   H19011364   4.905   7.121   0.669 -1.1739  1.0282  0.3441
   38MOL   H19111365   4.959   7.270   0.746  0.4693 -0.0518  1.0505
   38MOL   H19211366   5.084   7.024   0.641 -2.7476  0.3343 -0.1538
   38MOL   H19311367   5.108   7.182   0.563  2.2408  2.2409  0.5670
   38MOL   H19411368   5.203   7.144   0.707  0.0439 -0.3723 -1.1561
   38MOL   H19511369   5.326   7.064   1.023 -0.7418  1.2249  0.1787
   38MOL   H19611370   5.290   6.990   1.166  4.6162 -0.0894 -1.5081
   38MOL   C19711371   5.238   6.877   0.979  0.3114 -0.0249 -0.0556
   38MOL   O19811372   5.366   6.817   0.982 -0.7450  0.8843 -0.4969
   38MOL   C19911373   5.472   6.845   0.900  0.1508 -0.7783 -0.5246
   38MOL   O20011374   5.467   6.928   0.810  0.2741  0.8136 -0.6336
   38MOL   C20111375   5.604   6.765   0.922  0.2705 -0.7559  0.2998
   38MOL   C20211376   5.658   6.790   1.065 -0.1840 -0.2607  0.1527
   38MOL   C20311377   5.134   6.784   1.036  0.2537  0.7771  0.2791
   38MOL   H20411378   5.205   6.911   0.881 -0.9891  1.7264  0.9320
   38MOL   H20511379   5.575   6.660   0.912 -0.6541 -0.6280  1.5315
   38MOL   H20611380   5.670   6.776   0.836  1.5783 -3.3113  0.9142
   38MOL   H20711381   5.742   6.723   1.084  0.2568 -0.2109 -1.5682
   38MOL   H20811382   5.700   6.891   1.073  2.5730 -1.3130 -0.5897
   38MOL   H20911383   5.588   6.769   1.146  0.8875  0.2381  1.2238
   38MOL   H21011384   5.164   6.764   1.139  3.0867 -0.6860 -0.7738
   38MOL   H21111385   5.038   6.833   1.049 -0.0036  0.4040 -0.2119
   38MOL   C21211386   5.111   6.651   0.958  0.9103 -0.3468 -0.0499
   38MOL   O21311387   5.205   6.558   1.020  0.1521 -0.0269 -0.4647
   38MOL   C21411388   5.268   6.469   0.947  0.1449  0.3368  0.2132
   38MOL   O21511389   5.240   6.444   0.834  0.1189 -0.1094  0.8643
   38MOL   C21611390   5.379   6.389   1.015 -0.2419 -0.4804 -0.1882
   38MOL   C21711391   5.469   6.464   1.122  0.0328 -0.5846  0.3589
   38MOL   C21811392   4.975   6.591   0.981  0.6245  0.3842 -0.7695
   38MOL   H21911393   5.140   6.656   0.853 -1.4032 -2.7213 -0.8643
   38MOL   H22011394   5.325   6.315   1.074  1.8148 -1.2506  0.7906
   38MOL   H22111395   5.436   6.323   0.948  0.8900  0.5701 -0.2777
   38MOL   H22211396   5.416   6.547   1.170 -0.3168 -0.1244 -0.7868
   38MOL   H22311397   5.513   6.401   1.199  0.0678  0.9141  1.5906
   38MOL   H22411398   5.556   6.507   1.073 -1.4757 -2.0524 -3.8355
   38MOL   H22511399   4.985   6.484   0.964  1.6592 -0.2498  3.4512
   38MOL   H22611400   4.947   6.597   1.086  0.7779 -0.0109 -0.7060
   38MOL   C22711401   4.858   6.652   0.899 -0.6723  0.6368  0.4241
   38MOL   O22811402   4.867   6.594   0.764  0.4739 -0.0542  0.5513
   38MOL   C22911403   4.921   6.669   0.668 -0.9323  0.0019 -0.0879
   38MOL   O23011404   4.977   6.777   0.690 -0.0542 -0.0981  0.0992
   38MOL   C23111405   4.919   6.609   0.522 -0.7273 -0.0051  0.1018
   38MOL   C23211406   4.890   6.461   0.514 -1.2298 -0.1189  0.3503
   38MOL   C23311407   4.721   6.604   0.950  0.0324 -0.1499  0.5826
   38MOL   H23411408   4.864   6.760   0.903  0.9302  0.5901 -0.4216
   38MOL   H23511409   4.849   6.667   0.462 -1.0611  1.8072  2.1730
   38MOL   H23611410   5.012   6.638   0.474 -1.2890  0.1438 -0.8957
   38MOL   H23711411   4.787   6.434   0.535 -0.6370 -0.2093  3.3985
   38MOL   H23811412   4.918   6.415   0.418 -0.5098  1.2321 -0.0983
   38MOL   H23911413   4.946   6.405   0.589 -1.3214  0.5189  0.8930
   38MOL   H24011414   4.701   6.498   0.934  1.6105 -0.4316  0.4803
   38MOL   H24111415   4.720   6.599   1.059 -0.2521  0.6951  0.6249
   38MOL   C24211416   4.612   6.693   0.901  0.5955  0.5887 -0.4058
   38MOL   O24311417   4.601   6.664   0.765 -1.0191  0.0712 -0.0477
   38MOL   C24411418   4.568   6.769   0.682  0.1880  0.2648  0.3629
   38MOL   O24511419   4.563   6.889   0.713  0.0308  0.5258 -0.1503
   38MOL   C24611420   4.535   6.724   0.537  0.1410  0.2305  0.4183
   38MOL   C24711421   4.518   6.831   0.426  0.4844 -0.1191 -0.2263
   38MOL   C24811422   4.473   6.670   0.971  0.1303  0.1889  0.4424
   38MOL   H24911423   4.634   6.799   0.915 -0.2130  0.5620  1.2379
   38MOL   H25011424   4.624   6.669   0.504 -0.3195  0.1835 -0.7732
   38MOL   H25111425   4.442   6.669   0.549 -0.4601  1.1451 -0.0466
   38MOL   H25211426   4.440   6.903   0.451  0.9955  0.2603  0.2807
   38MOL   H25311427   4.615   6.875   0.408  1.2028  0.1183  3.6988
   38MOL   H25411428   4.482   6.792   0.331 -0.8477 -2.0107  1.0172
   38MOL   H25511429   4.396   6.719   0.912 -0.2826 -0.5181  0.3905
   38MOL   H25611430   4.447   6.564   0.973  2.6379 -0.4575  1.2248
   38MOL   C25711431   4.458   6.728   1.112 -0.4528  0.0735  0.1948
   38MOL   O25811432   4.475   6.870   1.120  0.2732 -0.0846 -0.3829
   38MOL   C25911433   4.586   6.915   1.173 -0.6197 -0.1300 -0.3748
   38MOL   O26011434   4.682   6.850   1.207  0.0363  0.3866 -0.0783
   38MOL   C26111435   4.597   7.072   1.165 -0.2840 -0.4714 -0.8123
   38MOL   C26211436   4.535   7.122   1.032 -0.1401  0.0912 -0.1608
   38MOL   C26311437   4.316   6.701   1.166 -0.1915 -0.0515 -0.2674
   38MOL   H26411438   4.529   6.675   1.175  0.3257  0.5789 -0.2588
   38MOL   H26511439   4.550   7.121   1.249 -1.3114  1.1602 -2.2953
   38MOL   H26611440   4.699   7.109   1.177 -0.3376 -0.8104  0.7728
   38MOL   H26711441   4.427   7.134   1.026  0.1458  2.1042 -1.7034
   38MOL   H26811442   4.579   7.219   1.012  3.5479 -1.3098  0.7125
   38MOL   H26911443   4.565   7.057   0.950 -2.0494 -0.9318 -0.0659
   38MOL   H27011444   4.301   6.761   1.256 -1.4134  0.1193 -0.5824
   38MOL   H27111445   4.240   6.745   1.102  1.5484 -0.4536 -2.6729
   38MOL   C27211446   4.271   6.558   1.193  0.4457 -0.1399 -0.3803
   38MOL   O27311447   4.369   6.518   1.288 -0.3281  0.5121  0.0126
   38MOL   C27411448   4.461   6.426   1.261  0.4459  0.3978 -0.1365
   38MOL   O27511449   4.478   6.369   1.147  0.0912 -0.3312 -0.1198
   38MOL   C27611450   4.553   6.393   1.379  0.2162 -0.6241 -0.0019
   38MOL   C27711451   4.705   6.421   1.346 -0.0448 -0.6421  0.0387
   38MOL   C27811452   4.115   6.556   1.231  0.3920  0.0923 -0.1321
   38MOL   H27911453   4.285   6.507   1.098  0.6850 -2.5836  0.9409
   38MOL   H28011454   4.510   6.464   1.450  0.4067 -0.9175  0.4037
   38MOL   H28111455   4.532   6.292   1.413 -1.1143 -0.1056  0.7800
   38MOL   H28211456   4.750   6.338   1.291  0.4396  0.2745 -0.9663
   38MOL   H28311457   4.717   6.515   1.293 -1.9109  0.7225  1.9457
   38MOL   H28411458   4.770   6.428   1.434  2.7235  0.0121 -1.9998
   38MOL   H28511459   4.099   6.593   1.332  0.3199  2.0592 -0.8370
   38MOL   H28611460   4.063   6.621   1.161  2.3382  0.2090 -1.5191
   38MOL   C28711461   4.052   6.418   1.197  0.0088 -0.1227  0.1212
   38MOL   O28811462   4.125   6.315   1.264 -0.1054  0.2725 -1.2042
   38MOL   C28911463   4.163   6.203   1.194  0.0855 -0.4266  0.2520
   38MOL   O29011464   4.133   6.175   1.075  0.3974 -0.0145 -0.4595
   38MOL   C29111465   4.256   6.113   1.276  0.2054  0.7547 -0.4208
   38MOL   C29211466   4.187   5.989   1.338  0.0102 -0.0464 -0.6065
   38MOL   C29311467   3.910   6.413   1.240 -0.0025 -0.1257  0.5460
   38MOL   H29411468   4.048   6.404   1.089  0.9687 -4.1820  0.5202
   38MOL   H29511469   4.330   6.071   1.208  1.4563  1.4053  0.5148
   38MOL   H29611470   4.299   6.172   1.357  1.6978 -1.9685  0.8642
   38MOL   H29711471   4.108   5.948   1.274 -0.5165  1.5206 -0.9883
   38MOL   H29811472   4.270   5.922   1.358  0.0414 -0.1498 -1.0631
   38MOL   H29911473   4.148   6.016   1.436 -1.7866  0.3878 -1.4119
   38MOL   H30011474   3.856   6.506   1.227  1.6864  0.8941  0.6788
   38MOL   H30111475   3.856   6.338   1.182 -0.4014  0.8281 -0.3160
   38MOL   H30211476   3.901   6.390   1.346  1.8486 -2.1626  0.3098
   39MOL     C111477   4.845   2.284   0.860  0.4323  0.4469  0.5404
   39MOL     O211478   4.943   2.299   0.763  0.3391  0.0347  0.2588
   39MOL     C311479   4.909   2.288   0.634 -0.2128 -0.2024 -0.1633
   39MOL     O411480   4.793   2.268   0.593  0.4019 -0.3053 -0.4097
   39MOL     C511481   5.030   2.307   0.544 -0.0455 -0.5604  0.6735
   39MOL     C611482   5.087   2.165   0.520 -0.3127  0.2301 -0.1617
   39MOL     C711483   4.805   2.138   0.877  0.2155  0.0455 -0.1932
   39MOL     H811484   4.757   2.346   0.843  0.2582  0.8016  2.6514
   39MOL     H911485   4.987   2.349   0.454  1.3219  1.4067  0.8933
   39MOL    H1011486   5.098   2.379   0.590 -1.3026  1.0528  0.0804
   39MOL    H1111487   5.181   2.182   0.467  0.2796 -1.6752  0.2136
   39MOL    H1211488   5.115   2.110   0.610  0.6258 -1.0509 -1.2069
   39MOL    H1311489   5.026   2.097   0.461 -0.3303  1.6885 -1.8614
   39MOL    H1411490   4.768   2.096   0.784 -1.2054  0.1387  0.3029
   39MOL    H1511491   4.902   2.088   0.881  1.4916  2.4874  0.0942
   39MOL    H1611492   4.892   2.315   0.953  2.5039  0.5017 -0.4832
   39MOL    C1711493   4.719   2.104   0.999  0.2339 -0.7701  0.0843
   39MOL    O1811494   4.587   2.156   0.988  0.3738  0.8680 -0.0491
   39MOL    C1911495   4.515   2.177   1.089 -0.3657  0.2575 -0.2227
   39MOL    O2011496   4.552   2.169   1.205 -0.3738  0.1316  0.3288
   39MOL    C2111497   4.386   2.245   1.060  0.4583  0.9100 -0.3086
   39MOL    C2211498   4.287   2.143   0.994  0.1098  0.6034 -0.0607
   39MOL    C2311499   4.716   1.952   1.037  0.3378  0.6008 -0.5513
   39MOL    H2411500   4.772   2.159   1.077  0.5560  0.5453 -1.0372
   39MOL    H2511501   4.343   2.288   1.150  0.8115  1.1303 -0.2464
   39MOL    H2611502   4.410   2.323   0.987  1.4563  0.6704 -0.2441
   39MOL    H2711503   4.241   2.077   1.068  1.7969 -1.2339 -0.6140
   39MOL    H2811504   4.211   2.203   0.945 -2.9034 -3.6148 -0.8194
   39MOL    H2911505   4.337   2.087   0.915  1.2945  2.4397 -0.6302
   39MOL    H3011506   4.814   1.905   1.029  0.8666  0.8991  3.1930
   39MOL    H3111507   4.698   1.937   1.144  1.1139 -0.5250 -0.5626
   39MOL    C3211508   4.613   1.881   0.946  0.2257  0.4170 -0.4649
   39MOL    O3311509   4.670   1.842   0.819 -0.0754  0.3494 -1.0061
   39MOL    C3411510   4.616   1.862   0.702  0.7488 -0.8507  0.1235
   39MOL    O3511511   4.510   1.918   0.674  0.1452 -0.2295  0.0667
   39MOL    C3611512   4.705   1.794   0.598 -0.4656  0.3281  0.4711
   39MOL    C3711513   4.836   1.864   0.588  0.0633  0.2148 -0.0718
   39MOL    C3811514   4.578   1.746   1.016 -0.2446  0.6620 -0.3627
   39MOL    H3911515   4.522   1.938   0.930 -1.5479 -2.4072 -0.7428
   39MOL    H4011516   4.720   1.687   0.615  0.1825 -0.3972 -4.1704
   39MOL    H4111517   4.650   1.800   0.504 -1.3642  1.0349  1.0377
   39MOL    H4211518   4.823   1.952   0.525  3.9151 -0.1813 -1.5157
   39MOL    H4311519   4.870   1.902   0.685 -0.7684 -1.8740  1.0800
   39MOL    H4411520   4.916   1.795   0.561 -0.9156 -0.9557 -0.0037
   39MOL    H4511521   4.664   1.691   1.054  0.0637  1.0202 -0.5474
   39MOL    H4611522   4.518   1.769   1.104  1.5118 -0.1688  1.0944
   39MOL    C4711523   4.487   1.649   0.930 -0.0224 -0.1304 -0.2665
   39MOL    O4811524   4.512   1.520   0.985 -0.5962 -0.2987  0.9762
   39MOL    C4911525   4.595   1.428   0.928  0.5826 -0.0194  0.8127
   39MOL    O5011526   4.678   1.454   0.840 -0.3690  0.1981  0.0096
   39MOL    C5111527   4.577   1.284   0.982 -0.0152  0.1029 -0.3947
   39MOL    C5211528   4.483   1.207   0.892 -0.3103  0.0477  0.0473
   39MOL    C5311529   4.339   1.682   0.928  0.1309  0.5015  0.1389
   39MOL    H5411530   4.520   1.660   0.827 -1.3301  1.2292 -0.5547
   39MOL    H5511531   4.671   1.228   0.981 -1.0584 -1.7462  1.3577
   39MOL    H5611532   4.550   1.286   1.087 -0.0026 -4.4373 -0.2413
   39MOL    H5711533   4.496   1.204   0.784 -0.4099  1.2256  0.0043
   39MOL    H5811534   4.503   1.102   0.915 -0.2520  0.0402 -0.0394
   39MOL    H5911535   4.383   1.240   0.921 -1.0598  0.1746 -2.5398
   39MOL    H6011536   4.284   1.623   1.001 -0.9290  0.8189 -0.3873
   39MOL    H6111537   4.327   1.784   0.963  0.6588  0.9692 -1.0062
   39MOL    C6211538   4.291   1.679   0.780  0.4215 -0.1620 -0.2312
   39MOL    O6311539   4.294   1.543   0.726 -0.5216 -0.0187  0.0462
   39MOL    C6411540   4.380   1.504   0.630  0.5222 -0.1689 -0.6595
   39MOL    O6511541   4.459   1.583   0.573 -0.3977  0.2272  0.2664
   39MOL    C6611542   4.358   1.359   0.582  0.1469  0.5201  0.4070
   39MOL    C6711543   4.466   1.306   0.494  0.1034 -0.3649 -0.0894
   39MOL    C6811544   4.150   1.747   0.779 -0.3136 -0.7212 -0.3720
   39MOL    H6911545   4.350   1.744   0.715 -2.6240  1.7122 -1.2229
   39MOL    H7011546   4.348   1.296   0.670 -0.0758 -0.4489 -0.3092
   39MOL    H7111547   4.261   1.346   0.535  0.7860  2.3669 -1.5018
   39MOL    H7211548   4.473   1.379   0.414  1.8300  1.0200  1.2840
   39MOL    H7311549   4.553   1.287   0.557 -0.5322 -0.0050  0.9196
   39MOL    H7411550   4.440   1.206   0.460  0.7236 -0.7357  0.5236
   39MOL    H7511551   4.079   1.693   0.841 -2.2025  1.3528 -0.6708
   39MOL    H7611552   4.151   1.850   0.815 -2.0234 -1.3640  1.5860
   39MOL    C7711553   4.077   1.754   0.640 -0.0654 -0.7342  0.5426
   39MOL    O7811554   3.958   1.831   0.656  0.4503  0.8454 -0.0205
   39MOL    C7911555   3.841   1.769   0.695 -0.0548  0.4395 -0.3610
   39MOL    O8011556   3.816   1.646   0.692 -0.1016 -0.5855  0.1673
   39MOL    C8111557   3.736   1.870   0.738 -0.0165 -0.8502 -0.9923
   39MOL    C8211558   3.786   2.014   0.722 -0.2735  0.1173 -0.5627
   39MOL    C8311559   4.154   1.824   0.525 -0.1448 -0.2601  0.2699
   39MOL    H8411560   4.048   1.659   0.595  1.7362  0.4419 -3.3125
   39MOL    H8511561   3.640   1.867   0.685 -0.6651  0.3019  0.0793
   39MOL    H8611562   3.723   1.848   0.844  2.0087  0.1588 -0.5066
   39MOL    H8711563   3.695   2.075   0.726 -1.9627 -2.4110  2.5267
   39MOL    H8811564   3.862   2.045   0.794 -0.5017 -0.0078 -0.2673
   39MOL    H8911565   3.822   2.031   0.621  3.0071  0.3322  0.6030
   39MOL    H9011566   4.184   1.926   0.550  3.1493 -0.4733 -2.5029
   39MOL    H9111567   4.247   1.769   0.520  0.0941  0.2845 -1.4710
   39MOL    C9211568   4.098   1.819   0.382  0.8889  0.3480 -0.0500
   39MOL    O9311569   4.192   1.867   0.289  0.2755 -0.3210  0.6172
   39MOL    C9411570   4.184   1.998   0.254 -0.3034 -0.5179  0.0629
   39MOL    O9511571   4.089   2.075   0.276 -0.2664 -0.2016 -0.2675
   39MOL    C9611572   4.293   2.031   0.154 -0.0676  0.6070  0.2322
   39MOL    C9711573   4.431   1.990   0.203  0.2347 -0.2025 -0.4396
   39MOL    C9811574   4.043   1.686   0.332 -0.2940  0.1942  1.3097
   39MOL    H9911575   4.012   1.887   0.382  0.6694  0.0718 -0.1306
   39MOL   H10011576   4.271   1.991   0.056 -0.1314  3.7071 -1.0689
   39MOL   H10111577   4.288   2.138   0.133  0.8211  0.0976 -2.7701
   39MOL   H10211578   4.449   2.023   0.306 -1.7240  0.4265 -0.2766
   39MOL   H10311579   4.440   1.881   0.202 -1.1693 -0.3267 -1.4492
   39MOL   H10411580   4.512   2.031   0.143 -0.7754  2.5458  0.0054
   39MOL   H10511581   4.115   1.605   0.350 -1.1723 -1.0984 -0.7621
   39MOL   H10611582   3.964   1.656   0.401 -0.1425 -0.7684  1.0818
   39MOL   C10711583   3.990   1.679   0.188  0.1262  0.4867  0.4664
   39MOL   O10811584   4.099   1.636   0.106  0.2211 -0.2086  0.3997
   39MOL   C10911585   4.120   1.690   7.933  0.1239 -0.5802  0.1859
   39MOL   O11011586   4.052   1.766   7.863 -0.0082  0.2207  0.3357
   39MOL   C11111587   4.249   1.630   7.880 -0.0119 -0.5903 -0.4275
   39MOL   C11211588   4.357   1.734   7.835  0.0152 -0.1428 -0.7318
   39MOL   C11311589   3.866   1.584   0.166  0.4309 -0.0793 -0.3399
   39MOL   H11411590   3.967   1.780   0.153 -0.3856  0.5599  1.0051
   39MOL   H11511591   4.292   1.572   0.017  1.5153 -0.7827 -1.3656
   39MOL   H11611592   4.231   1.557   7.802  0.1277 -0.5531 -0.4946
   39MOL   H11711593   4.460   1.699   7.849 -0.0468  0.6412  1.7428
   39MOL   H11811594   4.327   1.765   7.734 -2.1516 -0.2410 -0.1395
   39MOL   H11911595   4.371   1.824   7.895  1.6395  2.1705 -4.3998
   39MOL   H12011596   3.773   1.604   0.219  0.7216 -0.9138  0.4889
   39MOL   H12111597   3.848   1.608   0.061 -0.5443 -0.9104 -0.3646
   39MOL   C12211598   3.894   1.435   0.192  0.6166 -0.2327  0.2375
   39MOL   O12311599   3.874   1.400   0.330  0.3874  0.3963  0.0868
   39MOL   C12411600   3.981   1.365   0.402 -0.0117  0.1821  0.0772
   39MOL   O12511601   4.101   1.351   0.362 -0.6016 -0.6044 -0.0894
   39MOL   C12611602   3.949   1.361   0.549 -0.3003 -0.4860 -0.0877
   39MOL   C12711603   3.810   1.309   0.583 -0.7827 -0.5088  0.2641
   39MOL   C12811604   3.807   1.339   0.109  0.0142  0.0421  0.6200
   39MOL   H12911605   3.996   1.411   0.161  1.0997 -0.8384  2.2158
   39MOL   H13011606   4.018   1.301   0.609 -1.1231 -0.4324  0.9365
   39MOL   H13111607   3.980   1.459   0.586  2.0176 -1.3769  0.3928
   39MOL   H13211608   3.741   1.363   0.518  0.5359 -1.7713 -2.2800
   39MOL   H13311609   3.800   1.201   0.573 -0.7390 -0.3892 -1.2016
   39MOL   H13411610   3.783   1.321   0.688 -2.4377  1.5272 -0.3553
   39MOL   H13511611   3.827   1.240   0.149 -1.7693 -0.3552  0.5552
   39MOL   H13611612   3.707   1.365   0.143  0.0854  0.6369  0.3822
   39MOL   C13711613   3.821   1.340   7.899  0.3038 -0.1493 -0.4805
   39MOL   O13811614   3.935   1.258   7.860  0.4354 -0.1979 -0.3405
   39MOL   C13911615   4.030   1.304   7.788 -0.4425 -0.9499  0.1564
   39MOL   O14011616   4.031   1.402   7.710  0.1505 -0.0866  0.3038
   39MOL   C14111617   4.154   1.209   7.806 -0.0965 -0.1948  0.0448
   39MOL   C14211618   4.288   1.272   7.753  0.2422 -0.7757  0.3692
   39MOL   C14311619   3.689   1.289   7.839 -0.4221  0.4111  0.1776
   39MOL   H14411620   3.827   1.443   7.863 -1.6505  0.1555 -0.0170
   39MOL   H14511621   4.177   1.200   7.913  2.6538 -2.1695 -0.6544
   39MOL   H14611622   4.140   1.105   7.777 -0.4662 -0.1145 -0.0642
   39MOL   H14711623   4.361   1.196   7.725  1.4787  1.2580 -2.1258
   39MOL   H14811624   4.272   1.341   7.670 -0.8306 -1.1145  0.2792
   39MOL   H14911625   4.320   1.336   7.835 -0.2376  0.2200 -0.2075
   39MOL   H15011626   3.666   1.191   7.879 -0.1061 -0.0373 -0.7200
   39MOL   H15111627   3.608   1.355   7.870 -0.8081  0.5329 -1.0409
   39MOL   C15211628   3.688   1.278   7.688 -0.3995 -0.3759  0.6617
   39MOL   O15311629   3.560   1.239   7.649  0.0024 -0.1409  0.6397
   39MOL   C15411630   3.544   1.131   7.582  0.1265  0.9840  0.6404
   39MOL   O15511631   3.629   1.043   7.570 -0.2136 -0.1704  0.1230
   39MOL   C15611632   3.401   1.100   7.526 -0.5310  0.3574 -0.0416
   39MOL   C15711633   3.326   1.223   7.464 -0.1612 -0.7223  0.3791
   39MOL   C15811634   3.704   1.416   7.620  0.0414  0.3920 -0.2463
   39MOL   H15911635   3.766   1.208   7.657  1.8287  1.7464  1.2768
   39MOL   H16011636   3.411   1.020   7.452 -0.6170  0.5728 -0.2844
   39MOL   H16111637   3.346   1.054   7.609  0.7374  1.4554  1.4376
   39MOL   H16211638   3.229   1.200   7.420  1.1801  0.3846 -3.3626
   39MOL   H16311639   3.305   1.300   7.538 -3.2237  0.6072 -1.7480
   39MOL   H16411640   3.388   1.270   7.388 -1.0907 -0.0026  0.0600
   39MOL   H16511641   3.626   1.485   7.652  0.6586  0.2874  1.5191
   39MOL   H16611642   3.795   1.469   7.646 -0.8091  1.0111  1.4861
   39MOL   C16711643   3.707   1.417   7.465  0.0083  0.2460 -0.0143
   39MOL   O16811644   3.696   1.547   7.426  0.3247 -0.0535  0.7428
   39MOL   C16911645   3.580   1.609   7.392  0.2369  0.3064  0.2892
   39MOL   O17011646   3.467   1.567   7.400  0.2380 -0.0077  0.4476
   39MOL   C17111647   3.616   1.750   7.343  0.1242 -0.3565  0.7379
   39MOL   C17211648   3.489   1.816   7.290  0.2044 -0.2370  0.0192
   39MOL   C17311649   3.829   1.340   7.400  0.5920  1.1176  0.8757
   39MOL   H17411650   3.614   1.374   7.427  1.2221 -1.0404 -1.5760
   39MOL   H17511651   3.660   1.822   7.412 -0.2352  0.5823  0.0020
   39MOL   H17611652   3.674   1.754   7.250 -0.7715 -0.5065  0.1652
   39MOL   H17711653   3.504   1.920   7.260 -2.1858 -0.3988 -1.9183
   39MOL   H17811654   3.442   1.757   7.211 -1.1317 -1.2097  1.5132
   39MOL   H17911655   3.414   1.803   7.368  1.0475  0.1115  0.8815
   39MOL   H18011656   3.916   1.407   7.402  1.0427  0.6599 -2.0352
   39MOL   H18111657   3.861   1.260   7.467 -1.7959  0.6706  1.5263
   39MOL   C18211658   3.812   1.276   7.262  0.5815  0.1677 -0.6596
   39MOL   O18311659   3.712   1.176   7.287  0.1821  0.5100  0.7908
   39MOL   C18411660   3.740   1.047   7.250 -0.4938  0.1551  0.1035
   39MOL   O18511661   3.848   1.009   7.204  0.6146  0.1421  0.0382
   39MOL   C18611662   3.627   0.943   7.241 -0.4002  0.1102  0.1775
   39MOL   C18711663   3.514   0.992   7.154  0.2115  0.3276  0.2652
   39MOL   C18811664   3.761   1.373   7.152 -0.2498  0.5798 -0.2435
   39MOL   H18911665   3.914   1.240   7.250  0.5250  0.4212 -1.9799
   39MOL   H19011666   3.666   0.845   7.212  3.3381  1.4224  0.4420
   39MOL   H19111667   3.590   0.925   7.342 -2.2454  0.5050 -0.4049
   39MOL   H19211668   3.420   0.949   7.188 -0.8262  0.6219 -2.1254
   39MOL   H19311669   3.500   1.100   7.161  1.9065  0.4935  1.3223
   39MOL   H19411670   3.539   0.958   7.053 -0.3008  0.3098  0.1378
   39MOL   H19511671   3.683   1.444   7.179  0.7823  1.5618  0.2200
   39MOL   H19611672   3.852   1.427   7.128  0.6483 -0.9797 -0.3907
   39MOL   C19711673   3.725   1.306   7.021  0.1509  0.1569 -0.1315
   39MOL   O19811674   3.681   1.416   6.932 -0.0899 -0.0829  0.0345
   39MOL   C19911675   3.541   1.443   6.934 -0.1360 -0.5133 -0.1549
   39MOL   O20011676   3.450   1.375   6.975 -0.1354  0.3441 -0.2399
   39MOL   C20111677   3.504   1.566   6.852 -0.4895 -0.0377 -0.0228
   39MOL   C20211678   3.361   1.552   6.790  0.0371  0.3309 -0.3844
   39MOL   C20311679   3.837   1.236   6.942  0.0246  0.4681 -0.4935
   39MOL   H20411680   3.647   1.235   7.046  2.6617 -2.7092 -0.1562
   39MOL   H20511681   3.525   1.646   6.922  0.9007  0.0090 -0.4800
   39MOL   H20611682   3.570   1.579   6.767 -1.9909  0.6415 -1.1191
   39MOL   H20711683   3.361   1.460   6.731  4.0646 -1.9282  2.9013
   39MOL   H20811684   3.282   1.550   6.866 -0.7451 -1.9547 -1.2061
   39MOL   H20911685   3.356   1.637   6.722 -1.8324  0.8188  0.3251
   39MOL   H21011686   3.898   1.308   6.887 -1.2943  1.9852 -0.0036
   39MOL   H21111687   3.906   1.191   7.014 -0.0532 -0.4967 -1.0069
   39MOL   C21211688   3.789   1.128   6.845  0.2912 -0.3956 -0.6441
   39MOL   O21311689   3.735   1.182   6.724  0.4098  0.2336  0.3790
   39MOL   C21411690   3.611   1.164   6.693 -0.3576  0.8443 -0.3043
   39MOL   O21511691   3.533   1.101   6.756  0.1022 -0.2897  0.1004
   39MOL   C21611692   3.571   1.254   6.569 -0.4909  0.4587 -0.5921
   39MOL   C21711693   3.679   1.275   6.469 -0.5070  0.1111 -0.4499
   39MOL   C21811694   3.907   1.036   6.807 -0.0506 -0.3300  0.1377
   39MOL   H21911695   3.714   1.067   6.895 -2.2116  1.5398 -1.9161
   39MOL   H22011696   3.484   1.218   6.514 -0.7044  0.2447 -0.1234
   39MOL   H22111697   3.545   1.354   6.602 -0.0596 -0.1647  1.7541
   39MOL   H22211698   3.643   1.328   6.381  0.1493  1.5227  0.1137
   39MOL   H22311699   3.757   1.325   6.527 -1.2085  0.5886  0.0971
   39MOL   H22411700   3.708   1.181   6.422  2.1604  0.3232  0.6647
   39MOL   H22511701   3.980   1.086   6.744  0.3253 -0.7895  0.2051
   39MOL   H22611702   3.953   1.005   6.900  1.7677  2.6561  0.2905
   39MOL   C22711703   3.857   0.904   6.742  0.1447 -0.8656  0.3661
   39MOL   O22811704   3.962   0.848   6.664 -0.2789 -0.3690  0.2379
   39MOL   C22911705   3.975   0.876   6.532 -0.1790  0.0610  0.3949
   39MOL   O23011706   3.913   0.962   6.473 -0.1773 -0.6221 -0.2444
   39MOL   C23111707   4.079   0.794   6.463 -0.0765  0.3001  0.3855
   39MOL   C23211708   4.220   0.773   6.538  0.4370 -0.5245 -0.4055
   39MOL   C23311709   3.793   0.802   6.844 -0.9035  0.2789 -0.2841
   39MOL   H23411710   3.779   0.938   6.674 -0.9551 -1.3281  1.3657
   39MOL   H23511711   4.041   0.702   6.418 -0.6600  1.0606 -0.6841
   39MOL   H23611712   4.103   0.862   6.381  1.1024 -0.3779  0.1538
   39MOL   H23711713   4.249   0.670   6.553 -2.6947 -1.3926  0.0407
   39MOL   H23811714   4.291   0.813   6.465  1.8419  0.7245  1.6239
   39MOL   H23911715   4.239   0.830   6.628  0.2419  1.0097 -1.3003
   39MOL   H24011716   3.874   0.764   6.905 -1.4259  0.6819  0.6724
   39MOL   H24111717   3.728   0.871   6.899  1.7550  3.0353 -0.4515
   39MOL   C24211718   3.716   0.695   6.768  0.8058 -0.0409 -0.2800
   39MOL   O24311719   3.681   0.605   6.872  0.1271 -0.1706 -0.3112
   39MOL   C24411720   3.755   0.498   6.894  1.1453  0.1713 -0.1178
   39MOL   O24511721   3.854   0.467   6.826  0.3370 -0.3584 -0.0794
   39MOL   C24611722   3.706   0.407   7.009 -0.5335 -0.1984 -0.3038
   39MOL   C24711723   3.676   0.497   7.134  0.5166 -0.1008  0.4031
   39MOL   C24811724   3.589   0.733   6.697 -0.1523  0.0231  0.3452
   39MOL   H24911725   3.792   0.658   6.700  0.8429 -0.1201 -0.1944
   39MOL   H25011726   3.623   0.347   6.972 -1.4440  0.7861  0.1381
   39MOL   H25111727   3.786   0.333   7.019 -1.1433 -0.4448  3.1932
   39MOL   H25211728   3.745   0.579   7.150 -0.1961  0.7200 -0.6834
   39MOL   H25311729   3.579   0.545   7.120 -1.1262 -3.5679 -0.8715
   39MOL   H25411730   3.663   0.441   7.227 -1.2924 -1.6059 -0.6952
   39MOL   H25511731   3.509   0.724   6.772 -0.4909  0.2105  0.0068
   39MOL   H25611732   3.599   0.839   6.678  1.6570 -0.1200  0.4799
   39MOL   C25711733   3.558   0.657   6.569  0.1524  0.2576  0.3482
   39MOL   O25811734   3.641   0.692   6.461 -0.0561  0.3911  0.5012
   39MOL   C25911735   3.613   0.798   6.387  0.2728 -0.5211 -0.5924
   39MOL   O26011736   3.517   0.876   6.396 -0.2085  0.7352  0.1781
   39MOL   C26111737   3.711   0.813   6.275 -0.0037 -0.1399  0.0350
   39MOL   C26211738   3.673   0.741   6.136 -0.2020 -0.0536 -0.6177
   39MOL   C26311739   3.562   0.502   6.592 -0.0404 -0.7372  0.1306
   39MOL   H26411740   3.462   0.685   6.526 -0.6577  0.7394  2.4041
   39MOL   H26511741   3.725   0.920   6.260  4.5769 -0.5062  0.7361
   39MOL   H26611742   3.812   0.784   6.306 -0.0656 -2.7631 -2.0054
   39MOL   H26711743   3.572   0.772   6.110 -0.2470  0.9578  0.7119
   39MOL   H26811744   3.739   0.775   6.056 -0.0899  2.2490  0.4379
   39MOL   H26911745   3.668   0.632   6.142 -3.0515  0.0325 -0.7030
   39MOL   H27011746   3.665   0.465   6.598  1.1193  2.6325  2.2246
   39MOL   H27111747   3.523   0.470   6.688  1.8915 -0.3618  1.0744
   39MOL   C27211748   3.486   0.434   6.471  0.1083  0.3260 -0.0497
   39MOL   O27311749   3.514   0.296   6.479  0.6950  0.5827  0.2325
   39MOL   C27411750   3.552   0.221   6.371  0.1434  0.1091  0.1642
   39MOL   O27511751   3.525   0.247   6.253  0.4783 -0.2932 -0.1412
   39MOL   C27611752   3.632   0.095   6.411  0.0752  0.2097 -0.0972
   39MOL   C27711753   3.707   0.021   6.295  0.1299 -0.2568 -0.6601
   39MOL   C27811754   3.335   0.452   6.487  0.2819 -0.9094 -0.6797
   39MOL   H27911755   3.512   0.482   6.376  1.3485 -1.1209 -0.4717
   39MOL   H28011756   3.709   0.131   6.480 -0.0762 -1.5611  1.0346
   39MOL   H28111757   3.569   0.039   6.480  1.4592  0.8387  1.7174
   39MOL   H28211758   3.648   7.891   6.243  1.1776 -1.2668 -0.4099
   39MOL   H28311759   3.734   0.097   6.222  0.6911 -0.8426 -1.0620
   39MOL   H28411760   3.797   7.923   6.339 -0.1900 -1.4232 -1.1184
   39MOL   H28511761   3.288   0.372   6.544 -0.0709 -0.9293 -0.9935
   39MOL   H28611762   3.317   0.545   6.542  0.1088 -1.4765  0.2182
   39MOL   C28711763   3.262   0.457   6.353  0.2569 -0.5767  0.3716
   39MOL   O28811764   3.115   0.451   6.369 -0.5216  0.1823 -0.2155
   39MOL   C28911765   3.032   0.396   6.277 -0.2636  0.3372  0.3930
   39MOL   O29011766   3.062   0.378   6.162  0.2735 -0.4201  0.7840
   39MOL   C29111767   2.887   0.375   6.329 -0.0373  0.0792 -0.5576
   39MOL   C29211768   2.808   0.291   6.229 -0.2909  0.5306 -0.2691
   39MOL   C29311769   3.279   0.591   6.278 -0.2199  0.0835  0.1789
   39MOL   H29411770   3.302   0.375   6.292 -0.7670  1.4787 -3.2384
   39MOL   H29511771   2.881   0.336   6.431  1.3534 -0.0859 -0.5261
   39MOL   H29611772   2.841   0.474   6.327 -0.2073 -0.0157 -1.6880
   39MOL   H29711773   2.712   0.263   6.272 -0.2020  1.0738  0.2994
   39MOL   H29811774   2.796   0.341   6.133  1.8781 -0.5423 -1.1471
   39MOL   H29911775   2.864   0.201   6.205 -0.9054  0.4085 -1.2890
   39MOL   H30011776   3.226   0.595   6.183 -1.5030 -1.3273  0.8226
   39MOL   H30111777   3.248   0.675   6.341  3.2594 -0.0511  2.2047
   39MOL   H30211778   3.383   0.612   6.253  0.1274 -1.5305  0.2233
   40MOL     C111779   2.369   7.014   6.767  0.3300  0.4872 -0.6201
   40MOL     O211780   2.463   7.120   6.758 -0.5982  0.4065  0.0439
   40MOL     C311781   2.503   7.172   6.872  0.1115  0.7374 -0.7472
   40MOL     O411782   2.459   7.143   6.981 -0.1438  0.2958  0.3032
   40MOL     C511783   2.614   7.274   6.850 -0.2122  0.0696  0.8314
   40MOL     C611784   2.734   7.200   6.788 -0.3465  0.3831  0.4143
   40MOL     C711785   2.323   6.972   6.615 -0.7789 -0.5574  0.3299
   40MOL     H811786   2.288   7.039   6.835 -0.8833 -6.1496  0.6645
   40MOL     H911787   2.574   7.345   6.778 -0.6671 -0.2524  0.7600
   40MOL    H1011788   2.639   7.322   6.944 -2.7303  2.3081  0.4300
   40MOL    H1111789   2.797   7.265   6.729  0.1174 -2.1565 -2.0258
   40MOL    H1211790   2.784   7.158   6.876 -0.4673  0.8058  0.6848
   40MOL    H1311791   2.714   7.113   6.725  0.0108 -0.0859  0.9475
   40MOL    H1411792   2.256   7.045   6.571  2.3490  3.6767  2.2174
   40MOL    H1511793   2.414   6.966   6.554 -0.1842 -0.4305  1.2045
   40MOL    H1611794   2.407   6.926   6.818 -3.8675 -0.9245  0.2326
   40MOL    C1711795   2.263   6.835   6.610 -0.3008  0.9574  0.0288
   40MOL    O1811796   2.121   6.845   6.644  0.6714 -0.4947  0.7774
   40MOL    C1911797   2.067   6.809   6.755  0.1383 -0.4763 -0.3557
   40MOL    O2011798   2.132   6.755   6.848 -0.0466 -0.0962  0.6914
   40MOL    C2111799   1.912   6.829   6.762  0.3572  0.2397  0.4918
   40MOL    C2211800   1.842   6.738   6.863 -0.0352  0.8023 -0.1562
   40MOL    C2311801   2.278   6.765   6.478 -0.3803 -0.2107 -0.6156
   40MOL    H2411802   2.313   6.771   6.684 -0.1519 -0.6683 -1.4383
   40MOL    H2511803   1.884   6.932   6.781 -2.2462 -0.2548 -0.4839
   40MOL    H2611804   1.868   6.803   6.666 -0.2138  1.0232  0.5395
   40MOL    H2711805   1.740   6.773   6.875 -0.3816  0.1690 -1.2036
   40MOL    H2811806   1.851   6.632   6.841  1.5570  1.1722 -1.3464
   40MOL    H2911807   1.884   6.749   6.964  0.1168  2.4108 -0.3780
   40MOL    H3011808   2.207   6.822   6.418  0.1341  0.6560 -0.4200
   40MOL    H3111809   2.376   6.782   6.433  0.1394  0.3054  0.6735
   40MOL    C3211810   2.245   6.616   6.489 -0.5415  0.1168  0.0114
   40MOL    O3311811   2.232   6.557   6.358 -0.1192 -0.0265  0.3521
   40MOL    C3411812   2.157   6.442   6.345  0.0871 -0.2113 -0.5309
   40MOL    O3511813   2.107   6.386   6.438  0.0196  0.4537 -1.0878
   40MOL    C3611814   2.138   6.397   6.200 -0.6525  0.2552 -0.1017
   40MOL    C3711815   1.992   6.403   6.156  0.5043 -0.3179 -0.1155
   40MOL    C3811816   2.349   6.540   6.570  0.6308  0.2103  0.0908
   40MOL    H3911817   2.150   6.605   6.540 -1.6354  1.1369 -1.7367
   40MOL    H4011818   2.210   6.437   6.129  0.5090 -1.9335 -0.1968
   40MOL    H4111819   2.163   6.291   6.211  0.9262  0.3777 -2.1919
   40MOL    H4211820   1.982   6.423   6.049  0.3649  1.3946  0.2028
   40MOL    H4311821   1.943   6.306   6.162  1.5576 -0.9753 -1.7694
   40MOL    H4411822   1.920   6.468   6.204  1.0599 -1.0576  1.7858
   40MOL    H4511823   2.340   6.573   6.674  1.7586  2.2992 -0.4511
   40MOL    H4611824   2.315   6.436   6.575  2.2318 -0.3779 -0.9081
   40MOL    C4711825   2.496   6.545   6.550  0.4318  0.4042 -0.1594
   40MOL    O4811826   2.533   6.666   6.616  0.4627  0.1372 -0.0826
   40MOL    C4911827   2.644   6.728   6.580  0.0247 -0.0191 -0.0407
   40MOL    O5011828   2.714   6.702   6.480  0.0367 -0.4050 -0.0824
   40MOL    C5111829   2.672   6.845   6.668  0.5548  0.0945 -0.5585
   40MOL    C5211830   2.664   6.823   6.817 -0.2574 -0.0204  0.2056
   40MOL    C5311831   2.570   6.426   6.619  0.7072  0.3283 -0.8179
   40MOL    H5411832   2.527   6.547   6.446 -0.4181  0.1520 -0.4235
   40MOL    H5511833   2.778   6.873   6.663  0.4046  1.9981  3.8631
   40MOL    H5611834   2.613   6.934   6.644  1.4871  1.1917  1.0526
   40MOL    H5711835   2.716   6.734   6.853 -0.9675  0.2001  1.8396
   40MOL    H5811836   2.713   6.902   6.873  0.6755 -0.8034  0.5091
   40MOL    H5911837   2.563   6.797   6.847 -0.7424  0.0857 -1.2930
   40MOL    H6011838   2.674   6.456   6.629  0.4920  1.3896 -1.6411
   40MOL    H6111839   2.528   6.413   6.719 -2.3836  0.1279 -2.0811
   40MOL    C6211840   2.552   6.284   6.544 -0.1842  0.0042  0.4404
   40MOL    O6311841   2.634   6.293   6.418  0.5781  0.3515 -0.6971
   40MOL    C6411842   2.575   6.327   6.295 -0.6930  0.4714  0.1604
   40MOL    O6511843   2.455   6.345   6.277  0.3721 -0.3611  0.1128
   40MOL    C6611844   2.671   6.330   6.177  0.3587  0.6854 -0.5819
   40MOL    C6711845   2.768   6.449   6.169  0.2036  0.0630  0.3388
   40MOL    C6811846   2.611   6.163   6.620  0.9293 -0.3278 -0.5965
   40MOL    H6911847   2.447   6.259   6.532  0.3620 -1.8902 -0.4683
   40MOL    H7011848   2.716   6.231   6.184 -2.0159 -0.4743 -1.2757
   40MOL    H7111849   2.615   6.312   6.085 -0.6454 -1.4685  0.4033
   40MOL    H7211850   2.849   6.444   6.242  0.4326 -1.2126  0.0105
   40MOL    H7311851   2.816   6.445   6.072 -1.0863 -2.1395 -0.2298
   40MOL    H7411852   2.725   6.549   6.180 -0.6065 -0.2993  0.5263
   40MOL    H7511853   2.531   6.127   6.685 -0.3126 -1.5131 -2.7341
   40MOL    H7611854   2.615   6.080   6.549  0.3495 -0.1306 -0.8594
   40MOL    C7711855   2.747   6.187   6.695 -0.5685  0.2571 -0.8128
   40MOL    O7811856   2.714   6.238   6.823  0.4571 -0.6098 -0.0581
   40MOL    C7911857   2.787   6.333   6.882  0.5504  0.0652  0.3859
   40MOL    O8011858   2.872   6.421   6.836  0.0682  0.6780 -0.4241
   40MOL    C8111859   2.748   6.343   7.032  0.1116 -0.2329  0.3700
   40MOL    C8211860   2.672   6.480   7.054 -0.0765  0.2204 -1.1443
   40MOL    C8311861   2.810   6.047   6.707  0.5447 -0.1842  0.3636
   40MOL    H8411862   2.805   6.260   6.639 -0.9481  1.3421  0.1863
   40MOL    H8511863   2.689   6.259   7.067 -1.0898  0.6193  0.4153
   40MOL    H8611864   2.835   6.347   7.097 -0.8545 -1.1758  1.7456
   40MOL    H8711865   2.643   6.485   7.159  2.0635 -0.3631 -0.4962
   40MOL    H8811866   2.728   6.568   7.022 -1.9776  1.7650 -0.3707
   40MOL    H8911867   2.585   6.468   6.989 -0.7166  0.4070 -0.3305
   40MOL    H9011868   2.740   5.985   6.763 -1.2558  1.3453 -0.1301
   40MOL    H9111869   2.813   5.996   6.611 -0.6150  1.5032 -0.5867
   40MOL    C9211870   2.948   6.039   6.787  0.7607 -0.4942 -0.6827
   40MOL    O9311871   2.945   5.921   6.874  0.3622  0.4434 -0.2116
   40MOL    C9411872   2.891   5.924   6.997  0.7540 -0.1348  0.4242
   40MOL    O9511873   2.819   6.020   7.036  0.2785  0.2078 -0.4749
   40MOL    C9611874   2.922   5.792   7.078  0.8400  0.1882 -0.4493
   40MOL    C9711875   2.996   5.820   7.209  0.3770  0.0171  1.1519
   40MOL    C9811876   3.070   6.019   6.702  0.0496  0.1576 -0.8169
   40MOL    H9911877   2.961   6.136   6.835 -0.6722  0.9574 -3.1151
   40MOL   H10011878   2.825   5.754   7.111  0.5374  1.2203 -0.1274
   40MOL   H10111879   2.967   5.716   7.013  0.3415 -1.6392  1.2836
   40MOL   H10211880   2.976   5.734   7.273 -0.9774 -0.9928 -0.5883
   40MOL   H10311881   3.105   5.826   7.198  0.1158  2.5546 -0.4329
   40MOL   H10411882   2.959   5.900   7.272 -0.4934  1.4859 -1.1927
   40MOL   H10511883   3.162   6.010   6.759  0.1933 -2.4243 -1.4172
   40MOL   H10611884   3.065   5.924   6.649 -2.5776  0.1884 -0.6954
   40MOL   C10711885   3.102   6.132   6.599  0.0296  0.3837 -0.3864
   40MOL   O10811886   3.010   6.106   6.497 -0.7687 -0.3248  0.5485
   40MOL   C10911887   3.055   6.066   6.375  0.2165 -0.3885 -0.3565
   40MOL   O11011888   3.163   6.015   6.354 -0.8634  0.8362 -0.2970
   40MOL   C11111889   2.955   6.082   6.268  0.3801  0.2168  0.9705
   40MOL   C11211890   3.000   6.092   6.124  0.0094  0.2483  0.6242
   40MOL   C11311891   3.094   6.274   6.653  0.1457  0.4317 -0.0124
   40MOL   H11411892   3.208   6.120   6.574  0.0539  0.5975 -0.3873
   40MOL   H11511893   2.879   6.004   6.274 -1.7220  2.0915 -0.3393
   40MOL   H11611894   2.896   6.171   6.294 -0.9669  0.1488 -1.6999
   40MOL   H11711895   2.919   6.071   6.054  1.1728 -0.5715 -0.4855
   40MOL   H11811896   3.049   6.187   6.103 -2.7020  1.5339 -0.0968
   40MOL   H11911897   3.070   6.018   6.087 -0.9174  0.1270 -0.9097
   40MOL   H12011898   3.001   6.322   6.622 -0.6718 -1.3234 -0.3279
   40MOL   H12111899   3.097   6.265   6.762 -1.7931  1.9704  0.1898
   40MOL   C12211900   3.220   6.367   6.620 -0.0919 -0.0065  0.7091
   40MOL   O12311901   3.218   6.366   6.478 -0.2375  0.0041  0.1960
   40MOL   C12411902   3.333   6.357   6.407 -0.2431  0.3751  0.9396
   40MOL   O12511903   3.444   6.346   6.457 -0.2614 -0.3256  0.0103
   40MOL   C12611904   3.314   6.329   6.256  0.2222  0.2873  0.3634
   40MOL   C12711905   3.208   6.417   6.192 -0.2504  0.4826  0.5237
   40MOL   C12811906   3.194   6.511   6.671 -0.1288 -0.2085 -0.1350
   40MOL   H12911907   3.312   6.326   6.662  0.2835  1.2396  1.1048
   40MOL   H13011908   3.415   6.348   6.220  0.2959 -0.1872  0.3122
   40MOL   H13111909   3.277   6.227   6.242 -1.2154  0.9916 -1.2897
   40MOL   H13211910   3.120   6.370   6.236 -0.8243 -0.4706 -1.5633
   40MOL   H13311911   3.211   6.524   6.213  0.2395  0.5582  0.1084
   40MOL   H13411912   3.210   6.408   6.083  1.2227  1.2652  0.4610
   40MOL   H13511913   3.273   6.573   6.630  1.2912  0.0762  2.9065
   40MOL   H13611914   3.104   6.551   6.625  1.0764 -0.6537 -2.9471
   40MOL   C13711915   3.197   6.525   6.822  0.1851  0.9598  0.7144
   40MOL   O13811916   3.333   6.517   6.863 -0.0343 -0.3188  0.0136
   40MOL   C13911917   3.382   6.411   6.920 -0.1287  0.1335  0.2096
   40MOL   O14011918   3.323   6.306   6.944  0.0862  0.2940 -0.2044
   40MOL   C14111919   3.535   6.408   6.927 -0.7895  0.1250  0.3230
   40MOL   C14211920   3.591   6.384   6.788 -0.0738  0.1478 -0.3651
   40MOL   C14311921   3.138   6.663   6.866  0.2858 -0.3645  0.2578
   40MOL   H14411922   3.137   6.442   6.858 -1.3341  0.5752 -2.5093
   40MOL   H14511923   3.570   6.498   6.978 -0.9555  1.0945 -1.2357
   40MOL   H14611924   3.557   6.315   6.980 -1.5305 -0.1066  0.2241
   40MOL   H14711925   3.694   6.350   6.791  0.0061  0.5474  2.9383
   40MOL   H14811926   3.544   6.297   6.742  0.5555 -0.7193  0.6134
   40MOL   H14911927   3.602   6.470   6.723  1.0857 -2.3804 -3.6406
   40MOL   H15011928   3.194   6.741   6.815 -1.1871  1.3902  1.2474
   40MOL   H15111929   3.036   6.664   6.826  0.7823  0.5014 -1.0091
   40MOL   C15211930   3.137   6.694   7.020 -0.4031 -0.3597 -0.9776
   40MOL   O15311931   3.255   6.754   7.065  0.3261  0.6560  0.3629
   40MOL   C15411932   3.324   6.708   7.160  0.5123 -0.6090 -0.3974
   40MOL   O15511933   3.302   6.610   7.231  0.3735 -0.4635 -0.0246
   40MOL   C15611934   3.447   6.786   7.192 -0.4248  0.0644  0.4655
   40MOL   C15711935   3.413   6.893   7.293 -0.2286 -0.1574  0.5688
   40MOL   C15811936   3.023   6.789   7.055 -0.1098  0.6920  0.3004
   40MOL   H15911937   3.124   6.601   7.075  0.0951 -0.3728 -0.8854
   40MOL   H16011938   3.522   6.709   7.209  0.4282  0.3729 -1.7439
   40MOL   H16111939   3.476   6.834   7.099 -3.6655 -0.1322 -0.7079
   40MOL   H16211940   3.312   6.891   7.335 -0.7149 -0.9508 -0.6211
   40MOL   H16311941   3.490   6.907   7.369  1.4785  2.0187 -1.4586
   40MOL   H16411942   3.415   6.994   7.251 -0.3910 -0.1681  0.5366
   40MOL   H16511943   3.039   6.891   7.020 -2.7524  0.6815 -1.0254
   40MOL   H16611944   2.932   6.754   7.006 -0.7591  0.7450  1.4475
   40MOL   C16711945   2.999   6.789   7.205  0.1531  0.8286 -0.4382
   40MOL   O16811946   2.929   6.913   7.208  0.3964 -0.3866  0.8121
   40MOL   C16911947   2.977   7.010   7.285  0.3701  0.3850 -0.1532
   40MOL   O17011948   3.090   7.015   7.329 -0.0447 -0.1897 -0.0628
   40MOL   C17111949   2.884   7.131   7.315 -0.3622  0.4220  0.4548
   40MOL   C17211950   2.824   7.169   7.179  0.3616  0.2338  0.0973
   40MOL   C17311951   2.915   6.674   7.260  0.1039 -0.2131  0.1867
   40MOL   H17411952   3.091   6.792   7.263 -0.4576 -1.3929  0.7073
   40MOL   H17511953   2.818   7.116   7.401  0.6429  1.2932  1.4039
   40MOL   H17611954   2.949   7.214   7.345 -0.6941  0.5537  0.8248
   40MOL   H17711955   2.734   7.110   7.159  0.6363 -0.5124  1.0545
   40MOL   H17811956   2.794   7.274   7.186 -0.4920  0.1269 -1.5911
   40MOL   H17911957   2.890   7.171   7.093  2.4333  0.6928  1.6675
   40MOL   H18011958   2.817   6.673   7.214 -0.5295  0.2028  1.4789
   40MOL   H18111959   2.955   6.585   7.213  0.9940  0.9664 -1.3565
   40MOL   C18211960   2.902   6.670   7.414 -0.3951  0.2456  0.0479
   40MOL   O18311961   2.794   6.583   7.449  0.2825  0.9141 -0.1790
   40MOL   C18411962   2.678   6.629   7.472  0.3745 -0.0936 -0.5095
   40MOL   O18511963   2.641   6.747   7.465 -0.6361 -0.3127  0.2676
   40MOL   C18611964   2.581   6.515   7.482 -0.4541  0.3151 -0.4373
   40MOL   C18711965   2.558   6.452   7.622  0.3403  0.7754  0.1658
   40MOL   C18811966   3.043   6.632   7.479 -0.0750  0.0371  0.2410
   40MOL   H18911967   2.888   6.770   7.454  0.1503  0.3274  0.0388
   40MOL   H19011968   2.493   6.552   7.430  0.2974 -0.6400 -2.4595
   40MOL   H19111969   2.612   6.430   7.421  0.4152 -0.4843  1.0989
   40MOL   H19211970   2.515   6.352   7.619 -0.7724  1.1581  2.5487
   40MOL   H19311971   2.657   6.434   7.663  0.0114 -0.0155  0.6247
   40MOL   H19411972   2.511   6.524   7.689  0.4051  2.0058 -1.0739
   40MOL   H19511973   3.023   6.539   7.533 -1.6545  1.3787  2.0664
   40MOL   H19611974   3.101   6.593   7.396 -0.5810 -2.2317  0.9133
   40MOL   C19711975   3.110   6.734   7.567  0.4697  0.6169 -0.2465
   40MOL   O19811976   3.023   6.752   7.680  0.7995  0.6927  0.1120
   40MOL   C19911977   2.982   6.875   7.712  0.4050 -0.9060 -0.0017
   40MOL   O20011978   3.018   6.982   7.657  0.4517  0.0572  0.0172
   40MOL   C20111979   2.888   6.873   7.836  0.2206  0.1635 -0.4100
   40MOL   C20211980   2.753   6.817   7.797  0.2733  0.6643 -0.1848
   40MOL   C20311981   3.247   6.685   7.620  0.3192 -0.0767  0.3494
   40MOL   H20411982   3.141   6.822   7.511 -1.5697  2.6136  1.6570
   40MOL   H20511983   2.939   6.830   7.923 -1.4658  3.0920  2.1345
   40MOL   H20611984   2.879   6.977   7.868  0.9420  0.3400 -0.7783
   40MOL   H20711985   2.705   6.768   7.882  0.6954 -0.1017 -0.3925
   40MOL   H20811986   2.695   6.897   7.750  1.1844  0.2464 -2.0117
   40MOL   H20911987   2.771   6.745   7.718  1.0388 -1.0746  1.5474
   40MOL   H21011988   3.230   6.584   7.656  0.7513 -0.3142 -0.1126
   40MOL   H21111989   3.321   6.674   7.541  1.7045 -0.4304  1.6722
   40MOL   C21211990   3.321   6.770   7.731 -0.2707  0.7569  0.0317
   40MOL   O21311991   3.314   6.904   7.683  0.0029  0.2321 -0.5910
   40MOL   C21411992   3.425   6.983   7.667  0.7829  0.5626 -0.1366
   40MOL   O21511993   3.542   6.954   7.689  0.6834 -0.3100  0.3258
   40MOL   C21611994   3.383   7.127   7.633 -0.2805 -0.1572 -0.3806
   40MOL   C21711995   3.490   7.223   7.577  0.3702 -0.0895 -0.6233
   40MOL   C21811996   3.275   6.739   7.879 -0.1094  0.0102 -0.0482
   40MOL   H21911997   3.425   6.738   7.730 -0.0386  1.4707  0.5826
   40MOL   H22011998   3.301   7.122   7.561 -0.7044  0.3961  0.0603
   40MOL   H22111999   3.346   7.171   7.725 -2.2918  1.0322 -1.6951
   40MOL   H22212000   3.496   7.210   7.469  0.5070  0.1021 -0.6385
   40MOL   H22312001   3.461   7.324   7.605 -0.0524 -0.4263  0.1748
   40MOL   H22412002   3.587   7.189   7.612 -0.0346 -2.3381 -1.5601
   40MOL   H22512003   3.172   6.775   7.871 -0.2086  0.6154  3.1678
   40MOL   H22612004   3.273   6.632   7.899 -0.8533  0.2393  1.1203
   40MOL   C22712005   3.354   6.819   0.039 -0.5339 -0.0654 -0.0189
   40MOL   O22812006   3.294   6.809   0.168  0.1508  0.3212 -0.2538
   40MOL   C22912007   3.183   6.892   0.192 -0.4910 -0.0477 -0.3081
   40MOL   O23012008   3.142   6.974   0.110 -0.2268  0.4428 -0.2047
   40MOL   C23112009   3.098   6.857   0.315 -0.1152  0.4015  0.1424
   40MOL   C23212010   2.961   6.931   0.316  0.0132  0.6745  0.1436
   40MOL   C23312011   3.484   6.745   0.057 -0.1529 -0.2517  0.6664
   40MOL   H23412012   3.392   6.915   0.006 -0.4164  0.4105  1.4636
   40MOL   H23512013   3.096   6.748   0.322  1.0350  0.3004 -0.8277
   40MOL   H23612014   3.152   6.884   0.406 -0.0216  1.5964 -0.2634
   40MOL   H23712015   2.887   6.879   0.256 -0.6193  0.6042  0.9741
   40MOL   H23812016   2.921   6.944   0.417 -1.3906  1.1698 -0.4666
   40MOL   H23912017   2.973   7.037   0.294  2.0195  0.8449  1.8970
   40MOL   H24012018   3.466   6.638   0.068  0.4997 -0.8231 -2.9800
   40MOL   H24112019   3.534   6.758   7.905 -0.7227  2.9116  0.7452
   40MOL   C24212020   3.573   6.803   0.163 -0.2397  0.1039 -0.2952
   40MOL   O24312021   3.529   6.739   0.284  0.1408 -0.4348  0.1847
   40MOL   C24412022   3.515   6.808   0.402  0.1204 -1.1587 -0.3954
   40MOL   O24512023   3.528   6.929   0.419 -0.3465  0.1419  0.6191
   40MOL   C24612024   3.479   6.720   0.516  0.2765 -0.0700  0.5065
   40MOL   C24712025   3.472   6.788   0.653  0.3041 -0.0754  0.3373
   40MOL   C24812026   3.720   6.760   0.139 -0.2925  0.2319 -0.6186
   40MOL   H24912027   3.573   6.912   0.170 -3.4341  0.2568 -1.8349
   40MOL   H25012028   3.393   6.656   0.495  0.3688 -0.2675  0.7345
   40MOL   H25112029   3.562   6.650   0.520  1.2064  0.9283 -0.9100
   40MOL   H25212030   3.382   6.846   0.670  1.1822  0.9270  1.5923
   40MOL   H25312031   3.459   6.702   0.718  0.3957  1.2312  2.1181
   40MOL   H25412032   3.554   6.832   0.709 -1.2536  2.5700  0.6110
   40MOL   H25512033   3.715   6.651   0.134 -1.8028  0.3281 -1.2283
   40MOL   H25612034   3.753   6.793   0.041  1.3883 -2.4660 -1.0211
   40MOL   C25712035   3.832   6.795   0.241 -0.3272  1.3809 -0.1690
   40MOL   O25812036   3.953   6.749   0.186  0.1180  0.6847 -0.0539
   40MOL   C25912037   4.009   6.635   0.229 -0.9396 -0.5897  0.6361
   40MOL   O26012038   3.959   6.550   0.307 -0.4119  0.7243  0.5106
   40MOL   C26112039   4.148   6.608   0.181 -0.8280 -0.0181  0.5768
   40MOL   C26212040   4.173   6.669   0.039  0.2443 -0.8442  0.3437
   40MOL   C26312041   3.839   6.948   0.271 -0.1439 -0.0821  0.0264
   40MOL   H26412042   3.816   6.744   0.336  1.6972 -0.9166 -1.0288
   40MOL   H26512043   4.217   6.652   0.254 -2.2002  4.0982 -0.4618
   40MOL   H26612044   4.187   6.507   0.189  0.5311  0.5474  1.3954
   40MOL   H26712045   4.084   6.682   7.922 -0.3606 -0.4643  1.2788
   40MOL   H26812046   4.214   6.769   0.052  2.3832 -1.7284  0.6254
   40MOL   H26912047   4.244   6.611   7.924  0.2798 -0.0121 -0.4194
   40MOL   H27012048   3.807   6.999   0.181 -0.6287  0.8990  0.7382
   40MOL   H27112049   3.756   6.973   0.338 -0.1237 -2.3533  0.9413
   40MOL   C27212050   3.963   7.009   0.335 -0.0685 -0.0134 -0.7161
   40MOL   O27312051   4.051   7.042   0.227 -0.5154  0.0365 -0.8033
   40MOL   C27412052   4.172   6.979   0.222  0.2671 -0.6799  0.1595
   40MOL   O27512053   4.223   6.900   0.299  0.7395 -0.1551 -0.1105
   40MOL   C27612054   4.249   7.025   0.096 -0.1114 -0.1695 -0.1551
   40MOL   C27712055   4.399   6.982   0.097  0.3196 -0.7943  0.5754
   40MOL   C27812056   3.926   7.144   0.410 -0.2987 -0.1333  0.7812
   40MOL   H27912057   4.005   6.935   0.403 -0.5825 -0.9747 -1.4248
   40MOL   H28012058   4.196   6.992   0.007  1.0629  1.8818 -1.6534
   40MOL   H28112059   4.244   7.134   0.099 -1.7169 -0.1962 -1.2413
   40MOL   H28212060   4.452   7.013   0.007 -1.2632  1.3502  0.3414
   40MOL   H28312061   4.461   7.019   0.180  1.0921  0.6353 -0.6119
   40MOL   H28412062   4.402   6.873   0.096  0.1973 -0.7888 -1.3906
   40MOL   H28512063   4.009   7.215   0.402 -1.9018  1.7058  0.2837
   40MOL   H28612064   3.841   7.181   0.353  0.5835 -0.2326 -0.6125
   40MOL   C28712065   3.895   7.117   0.562 -1.1629  0.2601 -0.2583
   40MOL   O28812066   4.021   7.086   0.626  0.2268  0.2929  0.0379
   40MOL   C28912067   4.041   6.958   0.661 -0.2131  0.3288 -0.0658
   40MOL   O29012068   3.952   6.878   0.663  0.5101  0.3616 -0.2011
   40MOL   C29112069   4.188   6.920   0.686  0.4109 -0.6643  0.2993
   40MOL   C29212070   4.244   7.018   0.780  0.0423 -0.3525 -0.2317
   40MOL   C29312071   3.818   7.228   0.629 -0.0563  0.5499 -0.4026
   40MOL   H29412072   3.825   7.033   0.565  0.0898 -0.8089 -0.7977
   40MOL   H29512073   4.204   6.819   0.723 -0.0069 -0.7735  0.1914
   40MOL   H29612074   4.224   6.915   0.583  1.5994 -1.0611  0.7265
   40MOL   H29712075   4.244   7.122   0.749  1.9376 -0.0996  0.5842
   40MOL   H29812076   4.196   7.025   0.877  0.0694 -0.1474 -0.2331
   40MOL   H29912077   4.349   6.989   0.789  0.3818  0.6872 -0.7981
   40MOL   H30012078   3.735   7.270   0.572 -1.0911  1.2410  1.5631
   40MOL   H30112079   3.769   7.187   0.718 -1.8493  0.8127 -1.2494
   40MOL   H30212080   3.885   7.311   0.648 -0.7982  1.3679 -1.3561
   41MOL     C112081   5.596   4.404   6.575  0.4993 -0.4133 -0.1780
   41MOL     O212082   5.603   4.284   6.642  0.6586  0.3150 -0.3616
   41MOL     C312083   5.702   4.255   6.731 -0.2533  0.3716  0.1308
   41MOL     O412084   5.781   4.339   6.780  0.0244  0.9283  0.2150
   41MOL     C512085   5.707   4.108   6.769  0.4394 -0.2248 -1.2387
   41MOL     C612086   5.597   4.068   6.859 -0.6879  0.5147  0.0088
   41MOL     C712087   5.547   4.387   6.436 -0.4040 -0.2551  0.1485
   41MOL     H812088   5.695   4.448   6.578  1.9001 -3.4896  1.1257
   41MOL     H912089   5.723   4.040   6.685 -0.5699 -1.3338 -0.5426
   41MOL    H1012090   5.804   4.090   6.816  0.4490 -1.9582 -1.8816
   41MOL    H1112091   5.501   4.115   6.835 -1.7598 -1.1370  0.8960
   41MOL    H1212092   5.580   3.963   6.881 -0.1343  0.2486 -0.8023
   41MOL    H1312093   5.625   4.098   6.960 -0.2124 -0.7197  0.2539
   41MOL    H1412094   5.625   4.333   6.383  0.6177 -1.1630  2.4893
   41MOL    H1512095   5.451   4.335   6.430 -1.2731  1.4225 -1.0522
   41MOL    H1612096   5.535   4.471   6.637  1.6647  0.1914  0.3311
   41MOL    C1712097   5.522   4.518   6.366  0.2472 -0.0629 -0.2118
   41MOL    O1812098   5.510   4.493   6.224 -0.0498 -0.2796 -0.1974
   41MOL    C1912099   5.617   4.501   6.144 -0.0313  0.5285 -0.0876
   41MOL    O2012100   5.725   4.542   6.181  0.0287 -0.2093  0.0586
   41MOL    C2112101   5.582   4.459   6.003 -0.0767  0.2699 -1.0876
   41MOL    C2212102   5.482   4.552   5.936 -0.0187  0.0684 -0.8468
   41MOL    C2312103   5.395   4.589   6.418  0.2621  0.2733  0.3557
   41MOL    H2412104   5.607   4.582   6.391 -0.5358  0.3542  1.4415
   41MOL    H2512105   5.673   4.437   5.947  0.8112  0.6703  0.1751
   41MOL    H2612106   5.524   4.369   6.024 -0.5754  0.7607 -0.3247
   41MOL    H2712107   5.395   4.577   5.997 -0.2850  0.2572 -1.3039
   41MOL    H2812108   5.520   4.652   5.915 -0.5278  0.2902 -0.7290
   41MOL    H2912109   5.448   4.518   5.838 -1.2106 -3.7318  0.8116
   41MOL    H3012110   5.312   4.532   6.376  0.7594 -0.6046  0.5638
   41MOL    H3112111   5.407   4.567   6.524  3.0007 -0.0894 -0.0077
   41MOL    C3212112   5.375   4.740   6.393 -0.2618  0.9725  0.5379
   41MOL    O3312113   5.481   4.817   6.448  0.0765  0.8000 -0.0789
   41MOL    C3412114   5.463   4.904   6.550  0.5671  0.5230  0.3234
   41MOL    O3512115   5.355   4.931   6.603 -0.3733  0.4964  0.3269
   41MOL    C3612116   5.590   4.979   6.592 -0.5281  0.0551  0.2653
   41MOL    C3712117   5.676   5.032   6.479  0.1977  0.4447 -0.6955
   41MOL    C3812118   5.349   4.782   6.244  0.4115 -0.4158 -0.1482
   41MOL    H3912119   5.282   4.765   6.443 -1.3297 -0.7414 -0.5228
   41MOL    H4012120   5.561   5.059   6.659  2.0349  0.8650  0.4601
   41MOL    H4112121   5.657   4.915   6.649  1.4367  2.4703  0.7384
   41MOL    H4212122   5.761   4.965   6.467 -0.7323 -0.6027 -1.4133
   41MOL    H4312123   5.625   5.040   6.383  0.8817  1.4015 -0.9900
   41MOL    H4412124   5.702   5.137   6.496 -0.2278  0.9299 -2.8731
   41MOL    H4512125   5.430   4.844   6.206  0.7706  0.2756  1.6754
   41MOL    H4612126   5.344   4.692   6.184  0.3324 -0.6549  0.2172
   41MOL    C4712127   5.209   4.850   6.229  0.2935 -0.6874  0.3176
   41MOL    O4812128   5.225   4.980   6.285 -0.6877  0.3547  0.1288
   41MOL    C4912129   5.151   5.019   6.378  0.1025  0.4165  0.6692
   41MOL    O5012130   5.048   4.964   6.413 -0.1543  0.2701  0.2790
   41MOL    C5112131   5.197   5.152   6.440  0.0371 -1.0500  0.4330
   41MOL    C5212132   5.104   5.270   6.414 -0.3108  1.3993  0.1912
   41MOL    C5312133   5.155   4.866   6.082 -0.2566  0.7578 -0.0570
   41MOL    H5412134   5.145   4.787   6.290 -1.2782 -0.1677 -0.7455
   41MOL    H5512135   5.207   5.154   6.549  0.1027 -1.6683  0.4449
   41MOL    H5612136   5.295   5.168   6.395 -0.0833  2.2287  1.2547
   41MOL    H5712137   5.145   5.369   6.399  4.3149 -0.6460 -1.5750
   41MOL    H5812138   5.030   5.237   6.341  0.7770 -0.9404  0.0957
   41MOL    H5912139   5.040   5.268   6.503 -0.3407 -0.5255  0.1567
   41MOL    H6012140   5.204   4.959   6.050  2.7600 -0.7761 -0.1031
   41MOL    H6112141   5.185   4.786   6.014  0.7755  0.3377  0.8641
   41MOL    C6212142   4.997   4.882   6.087  0.3076  0.2278  0.1224
   41MOL    O6312143   4.942   4.963   5.985 -0.3274  0.5772  0.3761
   41MOL    C6412144   4.933   5.098   5.999 -0.0437 -0.8633 -0.7558
   41MOL    O6512145   4.973   5.166   6.094  0.8518 -0.2871 -0.2189
   41MOL    C6612146   4.866   5.160   5.876  0.5470  0.0021 -0.0313
   41MOL    C6712147   4.747   5.080   5.825 -0.1138 -0.1804  0.6173
   41MOL    C6812148   4.935   4.746   6.074 -0.3179  0.1562 -0.5818
   41MOL    H6912149   4.967   4.919   6.185  1.7703 -1.7385  1.3576
   41MOL    H7012150   4.839   5.263   5.899  1.4448  0.0537  0.8384
   41MOL    H7112151   4.946   5.167   5.802  1.5976 -2.1407  0.8471
   41MOL    H7212152   4.687   5.039   5.905  0.0140  0.8188  1.2350
   41MOL    H7312153   4.680   5.142   5.765  0.7111  0.3991  0.2812
   41MOL    H7412154   4.788   4.994   5.771  0.5993  0.5516 -0.0165
   41MOL    H7512155   4.962   4.702   5.978  3.3536  1.6173 -0.2893
   41MOL    H7612156   4.974   4.687   6.157  0.6595  1.5433 -0.0368
   41MOL    C7712157   4.777   4.758   6.089 -0.8594  0.2571  0.4688
   41MOL    O7812158   4.725   4.628   6.089  0.6133 -0.2155  0.1460
   41MOL    C7912159   4.606   4.605   6.038  0.0199  0.0454 -0.8460
   41MOL    O8012160   4.525   4.692   6.007 -0.2775  0.0442 -0.1823
   41MOL    C8112161   4.565   4.461   6.024  0.0107 -0.6596  0.2232
   41MOL    C8212162   4.557   4.390   6.156  0.4913  0.5463 -0.6207
   41MOL    C8312163   4.718   4.844   6.208 -0.0699  0.3177  0.0357
   41MOL    H8412164   4.755   4.798   5.990  0.9144  0.0779 -0.0178
   41MOL    H8512165   4.464   4.468   5.984  0.1242  2.5516  0.4110
   41MOL    H8612166   4.623   4.415   5.945 -0.5424  1.3837 -1.4059
   41MOL    H8712167   4.477   4.439   6.211 -0.6384 -0.6245 -1.1982
   41MOL    H8812168   4.523   4.287   6.145  0.2470  0.5753 -0.1371
   41MOL    H8912169   4.649   4.388   6.214  0.0024 -0.5257  0.1256
   41MOL    H9012170   4.754   4.947   6.205  2.7052 -0.6227 -0.2576
   41MOL    H9112171   4.611   4.852   6.185  0.0341  0.2672 -0.4597
   41MOL    C9212172   4.720   4.785   6.352  1.4580 -0.5250  0.2400
   41MOL    O9312173   4.852   4.746   6.385  0.2717  0.1016  0.6633
   41MOL    C9412174   4.876   4.627   6.434  0.6546  0.9745 -0.2960
   41MOL    O9512175   4.792   4.529   6.443  0.1580  0.3380 -0.2484
   41MOL    C9612176   5.024   4.600   6.472  0.3248 -0.2780  0.4393
   41MOL    C9712177   5.065   4.649   6.605  0.0742 -0.0854 -0.3616
   41MOL    C9812178   4.658   4.881   6.462  0.6038 -0.2241 -0.2885
   41MOL    H9912179   4.666   4.690   6.352  1.5259 -0.5656  1.5783
   41MOL   H10012180   5.039   4.492   6.470  0.9151 -0.1789 -1.8614
   41MOL   H10112181   5.085   4.642   6.393 -2.3046  3.6952  0.4212
   41MOL   H10212182   5.004   4.591   6.674  0.2037 -0.1198 -0.2751
   41MOL   H10312183   5.166   4.613   6.627 -0.0788 -1.4840 -1.8822
   41MOL   H10412184   5.061   4.756   6.623  4.3069  0.4084 -1.8125
   41MOL   H10512185   4.727   4.964   6.476 -1.9310  1.5141  2.3301
   41MOL   H10612186   4.569   4.936   6.431 -0.2540 -1.1668  0.4646
   41MOL   C10712187   4.631   4.815   6.597  0.4565 -0.4274  0.2649
   41MOL   O10812188   4.616   4.915   6.697 -0.9613  0.1024 -0.3241
   41MOL   C10912189   4.719   4.952   6.776 -0.3819 -0.0815  0.3188
   41MOL   O11012190   4.830   4.902   6.767 -0.2058 -0.2326 -0.1045
   41MOL   C11112191   4.680   5.067   6.872  0.5314  0.4536 -0.3682
   41MOL   C11212192   4.746   5.199   6.818  0.1019 -0.2258  0.4779
   41MOL   C11312193   4.503   4.736   6.603 -0.5161  0.2217 -0.0883
   41MOL   H11412194   4.707   4.740   6.620 -0.3569 -0.8481  1.6614
   41MOL   H11512195   4.572   5.069   6.888  0.7561 -1.0129  1.4926
   41MOL   H11612196   4.729   5.032   6.963 -1.3101 -0.4102  0.3164
   41MOL   H11712197   4.842   5.182   6.771  1.3407  2.1010  2.0391
   41MOL   H11812198   4.678   5.253   6.752  0.5915  2.2333  1.8911
   41MOL   H11912199   4.772   5.264   6.902 -0.5324  2.5159 -1.3627
   41MOL   H12012200   4.421   4.805   6.584 -0.9354  0.0360  1.0416
   41MOL   H12112201   4.489   4.657   6.530 -0.7614  0.1634  0.0207
   41MOL   C12212202   4.466   4.678   6.743  0.5896 -0.5607 -0.6244
   41MOL   O12312203   4.334   4.622   6.741 -0.2328 -0.5145  0.1130
   41MOL   C12412204   4.231   4.677   6.818 -0.0368  0.8281 -0.3666
   41MOL   O12512205   4.243   4.775   6.887 -0.4367  0.2522  0.2420
   41MOL   C12612206   4.097   4.605   6.796 -0.3690  0.5502 -0.3312
   41MOL   C12712207   3.981   4.666   6.870  0.7642  0.1661 -0.3379
   41MOL   C12812208   4.566   4.567   6.795  0.7551  0.0095  0.0282
   41MOL   H12912209   4.457   4.757   6.817  0.7090 -1.5719  0.4828
   41MOL   H13012210   4.070   4.617   6.691  0.2358 -0.6187 -0.6337
   41MOL   H13112211   4.117   4.504   6.832 -2.4675  0.0104 -0.6342
   41MOL   H13212212   3.882   4.623   6.862  0.7724 -0.0561  0.6981
   41MOL   H13312213   4.006   4.659   6.976  0.7795  0.4521 -0.3222
   41MOL   H13412214   3.977   4.773   6.848 -0.1407  0.2600  0.2859
   41MOL   H13512215   4.503   4.478   6.798  1.0405 -0.2246 -0.9230
   41MOL   H13612216   4.637   4.557   6.713 -0.6532 -1.1309 -1.0992
   41MOL   C13712217   4.627   4.606   6.927 -0.0143 -0.1252  0.9463
   41MOL   O13812218   4.532   4.611   7.028 -0.1352  0.0785  0.0237
   41MOL   C13912219   4.508   4.730   7.080  0.2310 -0.2873 -0.2772
   41MOL   O14012220   4.584   4.827   7.067 -0.3937  0.7221 -0.1447
   41MOL   C14112221   4.382   4.727   7.167  0.4106  0.4935  0.3272
   41MOL   C14212222   4.432   4.728   7.315  0.4402  0.5680 -0.1266
   41MOL   C14312223   4.734   4.502   6.963 -0.2575  0.4174 -0.1332
   41MOL   H14412224   4.691   4.692   6.912 -2.1278  1.1614 -0.9597
   41MOL   H14512225   4.320   4.813   7.143 -0.3009 -0.5711 -1.8010
   41MOL   H14612226   4.319   4.645   7.132 -1.1332  0.7380  2.4384
   41MOL   H14712227   4.516   4.794   7.333 -1.8464  3.2881  1.0207
   41MOL   H14812228   4.349   4.757   7.380 -1.1785 -0.2970 -1.7677
   41MOL   H14912229   4.465   4.627   7.342  1.3109  0.7056 -0.6694
   41MOL   H15012230   4.679   4.409   6.968  1.7568 -0.8998 -1.6991
   41MOL   H15112231   4.806   4.490   6.882  0.5763 -1.9570  0.9046
   41MOL   C15212232   4.806   4.538   7.093 -0.2478  0.6469 -0.1638
   41MOL   O15312233   4.885   4.423   7.117  0.0667  0.5349  0.1828
   41MOL   C15412234   4.842   4.341   7.216 -0.4528  0.6400 -0.0294
   41MOL   O15512235   4.734   4.344   7.276 -0.5214 -0.4059 -0.0271
   41MOL   C15612236   4.944   4.229   7.246  0.1396  0.5227 -0.0397
   41MOL   C15712237   5.071   4.284   7.310  0.4323 -0.1412  0.1589
   41MOL   C15812238   4.896   4.665   7.080 -0.1725  0.0914 -0.2269
   41MOL   H15912239   4.729   4.569   7.165 -2.0656 -2.5879 -0.6449
   41MOL   H16012240   4.889   4.158   7.308 -1.3158  1.9406  0.3365
   41MOL   H16112241   4.970   4.192   7.147  0.8602 -1.3058  0.8047
   41MOL   H16212242   5.058   4.340   7.403 -2.1582  0.5105 -0.5674
   41MOL   H16312243   5.152   4.214   7.332  0.4729  0.0209  0.5416
   41MOL   H16412244   5.118   4.349   7.236  0.4774  1.8100  1.8377
   41MOL   H16512245   4.970   4.639   7.004 -1.0571 -2.1729 -0.3569
   41MOL   H16612246   4.848   4.756   7.045 -0.5026 -0.7701 -2.0668
   41MOL   C16712247   4.965   4.709   7.209 -0.0945  0.3844 -0.4364
   41MOL   O16812248   5.062   4.807   7.155  0.4485 -0.5033  0.0144
   41MOL   C16912249   5.187   4.800   7.197 -0.0346  0.3996 -0.1254
   41MOL   O17012250   5.235   4.735   7.290 -0.0513 -0.2565  0.2413
   41MOL   C17112251   5.285   4.877   7.106 -0.1435 -0.1540 -0.3564
   41MOL   C17212252   5.303   4.806   6.976  0.3955 -0.1892  0.3010
   41MOL   C17312253   4.855   4.765   7.303  0.9255 -0.6702 -0.2357
   41MOL   H17412254   5.009   4.622   7.258 -2.4566  0.2213  1.4985
   41MOL   H17512255   5.261   4.983   7.105 -0.4794 -0.2037  1.1366
   41MOL   H17612256   5.381   4.873   7.158 -0.5142  1.3739  0.4824
   41MOL   H17712257   5.275   4.702   6.994  1.1869 -0.6680 -1.1873
   41MOL   H17812258   5.238   4.846   6.899  0.6449  0.6691  0.5309
   41MOL   H17912259   5.408   4.811   6.948  0.0248 -1.2768 -1.3279
   41MOL   H18012260   4.805   4.848   7.253 -0.5744 -1.8034 -0.6389
   41MOL   H18112261   4.775   4.693   7.319 -1.7855  2.1722 -0.4319
   41MOL   C18212262   4.906   4.818   7.440 -0.7043 -0.1176 -0.1696
   41MOL   O18312263   4.788   4.873   7.504  0.4599 -0.0756  0.1585
   41MOL   C18412264   4.785   5.001   7.530  0.1565 -0.3701 -1.1498
   41MOL   O18512265   4.882   5.073   7.530 -0.9246 -0.0886  0.2263
   41MOL   C18612266   4.644   5.052   7.541 -0.1391  0.0345  0.0562
   41MOL   C18712267   4.625   5.163   7.653  0.3558 -0.1279  0.0583
   41MOL   C18812268   4.956   4.700   7.534  0.2353  0.4148 -0.3694
   41MOL   H18912269   4.986   4.892   7.427 -0.8588 -0.0029 -0.4711
   41MOL   H19012270   4.606   5.094   7.448  0.3685  0.8923  0.2312
   41MOL   H19112271   4.587   4.963   7.565 -0.4571 -0.1112 -1.1853
   41MOL   H19212272   4.688   5.146   7.740 -0.8653 -0.0845  0.9725
   41MOL   H19312273   4.642   5.262   7.612  1.4101 -0.2256  0.2502
   41MOL   H19412274   4.520   5.177   7.682 -0.7882  0.0571 -3.8414
   41MOL   H19512275   4.879   4.627   7.562  0.8099  0.7363  2.1779
   41MOL   H19612276   5.033   4.651   7.474 -1.8511 -0.6548 -2.2548
   41MOL   C19712277   5.028   4.744   7.663  0.4803 -0.6471 -0.8141
   41MOL   O19812278   5.072   4.636   7.739  0.2058  0.7253 -0.0097
   41MOL   C19912279   4.993   4.569   7.824 -0.4482 -0.6178 -0.1100
   41MOL   O20012280   4.878   4.603   7.847 -0.3016  0.5598 -0.1335
   41MOL   C20112281   5.054   4.440   7.893  1.1046  0.5317 -0.3955
   41MOL   C20212282   5.180   4.463   0.028 -0.8612 -0.2135  0.5999
   41MOL   C20312283   5.156   4.832   7.644 -0.2405  0.4268  0.4017
   41MOL   H20412284   4.954   4.793   7.726  0.5431 -0.8859 -0.5583
   41MOL   H20512285   4.973   4.400   0.011  0.8123  1.0301 -0.4537
   41MOL   H20612286   5.078   4.368   7.815  1.1209  0.4784 -0.3414
   41MOL   H20712287   5.171   4.528   0.115  2.2927  0.4295  0.5091
   41MOL   H20812288   5.215   4.370   0.073 -1.1058 -0.2017  0.8146
   41MOL   H20912289   5.258   4.513   7.916 -1.3471  1.0430  1.0203
   41MOL   H21012290   5.227   4.758   7.607 -0.5935 -0.3690  1.3171
   41MOL   H21112291   5.145   4.908   7.567  0.9172  1.7974  1.5478
   41MOL   C21212292   5.211   4.900   7.773  0.1856 -0.5806 -1.0747
   41MOL   O21312293   5.335   4.957   7.737  0.0352 -0.3512 -0.5568
   41MOL   C21412294   5.449   4.916   7.800 -0.0613 -0.6348 -0.0655
   41MOL   O21512295   5.456   4.851   7.907 -0.5988 -0.7967  0.3461
   41MOL   C21612296   5.567   4.954   7.721 -0.6073  0.7348  0.4928
   41MOL   C21712297   5.704   4.922   7.778 -0.4846  1.2655  0.1920
   41MOL   C21812298   5.117   5.015   7.814  0.9679 -0.0099  0.5104
   41MOL   H21912299   5.212   4.824   7.851 -1.3682 -0.3608 -0.8220
   41MOL   H22012300   5.562   4.924   7.617 -3.2528  1.2037  0.4535
   41MOL   H22112301   5.568   5.063   7.717  1.7923  0.6651 -2.0202
   41MOL   H22212302   5.772   4.950   7.698 -0.5098  2.3287  0.5261
   41MOL   H22312303   5.727   4.981   7.867  0.4362 -0.9301  1.4390
   41MOL   H22412304   5.716   4.815   7.789  1.6610  1.6365  1.6785
   41MOL   H22512305   5.128   5.088   7.734 -2.8321 -1.7743 -1.7700
   41MOL   H22612306   5.013   4.990   7.793  0.0733  2.9409  1.2239
   41MOL   C22712307   5.139   5.071   0.011  0.4971 -0.1480  0.6240
   41MOL   O22812308   5.126   5.208   0.012 -0.0939  0.4021 -0.3175
   41MOL   C22912309   5.238   5.286   7.939 -0.0981 -0.1740 -0.4232
   41MOL   O23012310   5.348   5.236   7.913 -0.1759  0.5351  0.6876
   41MOL   C23112311   5.220   5.431   0.037 -1.0357  0.1649  0.0584
   41MOL   C23212312   5.342   5.494   0.094  0.0549  0.3292  0.4785
   41MOL   C23312313   5.038   5.012   0.108 -0.3068  0.5036  0.0297
   41MOL   H23412314   5.243   5.054   0.039  1.1252  2.6390  0.0920
   41MOL   H23512315   5.187   5.490   7.897 -1.8179  0.8147  0.8114
   41MOL   H23612316   5.134   5.438   0.103  0.2247 -0.3796  1.7928
   41MOL   H23712317   5.432   5.472   0.037 -1.0998 -0.0734 -1.2411
   41MOL   H23812318   5.344   5.602   0.105  0.1787  1.0934 -5.6350
   41MOL   H23912319   5.356   5.450   0.193  3.2391 -2.4112 -1.0884
   41MOL   H24012320   4.948   5.074   0.097 -0.9923  0.1980  3.3485
   41MOL   H24112321   5.013   4.909   0.084 -0.7360  0.7745 -0.7003
   41MOL   C24212322   5.088   5.028   0.255  0.5043 -0.2018 -0.1125
   41MOL   O24312323   4.983   5.002   0.344 -0.2486 -0.2164  0.0949
   41MOL   C24412324   4.976   5.082   0.460  0.1107  0.4362  0.7908
   41MOL   O24512325   5.043   5.176   0.499  0.4707 -0.0777  0.1164
   41MOL   C24612326   4.867   5.035   0.562  0.0563 -0.7881  0.4602
   41MOL   C24712327   4.737   5.101   0.535 -0.3370  0.0872 -0.1334
   41MOL   C24812328   5.212   4.932   0.289 -0.1061 -0.6920 -0.4825
   41MOL   H24912329   5.126   5.131   0.253  0.9271 -0.3797 -2.0675
   41MOL   H25012330   4.863   4.926   0.551 -1.0391 -0.6393 -0.7153
   41MOL   H25112331   4.898   5.053   0.665  1.8480  2.4185 -0.5658
   41MOL   H25212332   4.689   5.061   0.445  1.3251 -2.0819 -0.0972
   41MOL   H25312333   4.675   5.070   0.619 -1.6248 -0.1425 -1.1381
   41MOL   H25412334   4.744   5.209   0.537 -1.1779  0.1258  1.6812
   41MOL   H25512335   5.163   4.851   0.342  1.0238  1.6956  4.5383
   41MOL   H25612336   5.252   4.881   0.202  0.2460  0.8192 -1.2252
   41MOL   C25712337   5.326   5.001   0.368  0.7037 -0.0517  0.3653
   41MOL   O25812338   5.393   4.895   0.438 -0.5149  0.1576  0.5248
   41MOL   C25912339   5.368   4.857   0.560  0.2060  0.0902  0.4622
   41MOL   O26012340   5.276   4.886   0.632  0.0921  0.4834  0.3193
   41MOL   C26112341   5.459   4.744   0.621 -0.0284  0.1570  0.2933
   41MOL   C26212342   5.402   4.614   0.564  0.7093  0.4721  0.4929
   41MOL   C26312343   5.430   5.071   0.272 -0.3091  0.3038 -0.2198
   41MOL   H26412344   5.293   5.073   0.443  0.7074 -1.0036  1.2872
   41MOL   H26512345   5.567   4.757   0.617 -0.1175  0.2894 -1.8894
   41MOL   H26612346   5.437   4.748   0.728 -0.2557 -1.5087  0.3225
   41MOL   H26712347   5.315   4.580   0.619 -0.7089  0.9051 -1.4217
   41MOL   H26812348   5.363   4.611   0.462  2.8492 -1.7988 -0.3302
   41MOL   H26912349   5.478   4.536   0.571  1.3566  1.0624  0.0876
   41MOL   H27012350   5.495   4.994   0.229 -0.7159 -0.8485  1.1607
   41MOL   H27112351   5.370   5.124   0.199  0.0963 -0.5329 -1.1744
   41MOL   C27212352   5.523   5.172   0.330 -0.5155 -0.4130 -0.3541
   41MOL   O27312353   5.597   5.118   0.443 -0.0486 -0.4464  0.0873
   41MOL   C27412354   5.597   5.187   0.560  0.1648 -0.1204 -0.4690
   41MOL   O27512355   5.532   5.289   0.584  0.5666  0.0734 -0.3716
   41MOL   C27612356   5.696   5.128   0.660 -0.4886  0.5866 -0.1215
   41MOL   C27712357   5.672   5.168   0.810 -0.0106  0.0744  0.1557
   41MOL   C27812358   5.626   5.228   0.231  0.0978  1.3160 -0.0679
   41MOL   H27912359   5.461   5.259   0.353  3.5857  1.9889  2.4574
   41MOL   H28012360   5.682   5.020   0.654 -0.1819  0.5021  0.7119
   41MOL   H28112361   5.796   5.161   0.633 -0.2197 -0.0231  0.1353
   41MOL   H28212362   5.591   5.114   0.860 -1.1390  1.8008  0.2322
   41MOL   H28312363   5.764   5.165   0.868  1.0483 -0.6849 -1.5058
   41MOL   H28412364   5.638   5.271   0.805 -0.5788 -0.1573 -0.9432
   41MOL   H28512365   5.679   5.139   0.194 -0.6579  0.1528  1.5870
   41MOL   H28612366   5.568   5.252   0.142 -1.7348 -1.2687  0.3606
   41MOL   C28712367   5.715   5.345   0.276 -0.4486 -0.1934 -0.5626
   41MOL   O28812368   5.833   5.360   0.196  0.5484  0.0504 -0.0455
   41MOL   C28912369   5.960   5.314   0.245 -0.0816  0.3419 -0.7047
   41MOL   O29012370   5.983   5.269   0.355  0.5934  0.2217 -0.5542
   41MOL   C29112371   6.069   5.315   0.143  0.3989 -0.1951  0.2713
   41MOL   C29212372   6.059   5.208   0.034  0.2932 -0.0715 -0.5395
   41MOL   C29312373   5.637   5.472   0.276 -0.0172 -0.6356 -0.2214
   41MOL   H29412374   5.743   5.332   0.381  0.0920  4.1958 -0.0579
   41MOL   H29512375   6.049   5.415   0.105  0.0288 -0.4090 -0.1031
   41MOL   H29612376   6.171   5.307   0.181  0.0165 -0.1485  1.3172
   41MOL   H29712377   6.085   5.107   0.069  0.8189 -0.0585 -0.8879
   41MOL   H29812378   5.960   5.216   7.935 -0.0590  0.8594  0.4003
   41MOL   H29912379   6.133   5.215   7.900  0.4813 -0.1208 -0.3665
   41MOL   H30012380   5.621   5.494   0.171  0.8482 -0.9149 -0.4086
   41MOL   H30112381   5.546   5.458   0.334  0.7917  1.4276  1.6284
   41MOL   H30212382   5.695   5.547   0.330  1.5212  0.1959 -2.9303
   42MOL     C112383   0.657   2.690   4.408  0.0399  0.6258 -0.1491
   42MOL     O212384   0.574   2.575   4.400  0.1187 -0.3007 -0.6497
   42MOL     C312385   0.608   2.448   4.396 -0.3182  0.1885  0.4466
   42MOL     O412386   0.725   2.407   4.390 -0.7312  0.3659  0.1393
   42MOL     C512387   0.489   2.356   4.395  0.0533  0.1980 -0.0870
   42MOL     C612388   0.505   2.201   4.379 -0.4411 -0.0400  0.4095
   42MOL     C712389   0.721   2.729   4.272 -0.0734 -0.0356 -0.1723
   42MOL     H812390   0.735   2.674   4.482  0.3757 -0.0779 -0.6540
   42MOL     H912391   0.434   2.380   4.486 -1.8761 -0.6087 -1.0254
   42MOL    H1012392   0.442   2.383   4.301  2.6768 -0.8580 -1.7433
   42MOL    H1112393   0.579   2.169   4.452  0.6206 -0.6799 -0.9285
   42MOL    H1212394   0.419   2.133   4.383  0.6126 -1.4634 -0.6504
   42MOL    H1312395   0.561   2.189   4.286 -0.9243  2.0238 -0.1692
   42MOL    H1412396   0.758   2.639   4.224 -2.2758  0.3033 -2.6306
   42MOL    H1512397   0.644   2.768   4.205 -1.8122 -0.8604  1.3028
   42MOL    H1612398   0.597   2.775   4.440 -0.2919  0.5756 -0.6330
   42MOL    C1712399   0.842   2.830   4.292  0.1514  0.3074  0.0799
   42MOL    O1812400   0.962   2.758   4.341  0.0432  0.0703  0.5996
   42MOL    C1912401   0.996   2.779   4.470  0.6118 -0.3047  0.1448
   42MOL    O2012402   0.925   2.837   4.550  0.7793 -0.0094 -0.0022
   42MOL    C2112403   1.116   2.695   4.506  0.1777 -0.5088 -0.4456
   42MOL    C2212404   1.159   2.701   4.657 -0.0031 -0.9678  0.4098
   42MOL    C2312405   0.873   2.913   4.166  0.2849  0.6920  0.7329
   42MOL    H2412406   0.814   2.909   4.362  4.1632  1.1553  0.8465
   42MOL    H2512407   1.114   2.596   4.459 -0.4555 -0.1285 -1.2401
   42MOL    H2612408   1.193   2.748   4.451 -2.0039  1.0882 -2.0427
   42MOL    H2712409   1.267   2.702   4.665  0.0182  0.6859  0.2150
   42MOL    H2812410   1.121   2.791   4.706  2.0030  0.0651  0.1156
   42MOL    H2912411   1.124   2.607   4.698  0.3465 -1.9771 -1.5601
   42MOL    H3012412   0.791   2.983   4.153  0.3201  0.2201 -2.5271
   42MOL    H3112413   0.960   2.976   4.188  1.3315 -0.7241  0.7609
   42MOL    C3212414   0.906   2.837   4.028 -0.4769  0.0580 -0.1645
   42MOL    O3312415   0.847   2.908   3.924  0.5667 -0.1239  0.3430
   42MOL    C3412416   0.726   2.875   3.874 -0.1453 -0.5195  0.1095
   42MOL    O3512417   0.651   2.786   3.909  0.4772  0.3142 -0.1859
   42MOL    C3612418   0.683   2.975   3.772 -0.5101  0.4289 -0.1085
   42MOL    C3712419   0.773   2.991   3.643 -0.6681 -0.2519 -0.0524
   42MOL    C3812420   1.059   2.837   3.992  0.2008  0.0995 -0.2928
   42MOL    H3912421   0.866   2.736   4.034  1.1226 -0.5191  1.2694
   42MOL    H4012422   0.588   2.939   3.733  0.8955 -1.6285 -1.7445
   42MOL    H4112423   0.658   3.067   3.825 -0.7824  0.5772 -0.4925
   42MOL    H4212424   0.759   3.085   3.591  3.3226 -0.9083 -2.5447
   42MOL    H4312425   0.878   2.986   3.674 -1.1132  0.5029  1.6324
   42MOL    H4412426   0.765   2.900   3.582 -1.4144  0.4697 -1.0355
   42MOL    H4512427   1.061   2.830   3.883 -0.5365  0.0106 -0.3088
   42MOL    H4612428   1.101   2.931   4.027  1.3286  0.3066 -2.1130
   42MOL    C4712429   1.138   2.714   4.044  0.7778 -0.2811  0.0518
   42MOL    O4812430   1.064   2.591   4.022  0.0990  0.0119 -0.2511
   42MOL    C4912431   1.054   2.496   4.120 -0.4325 -0.5094  0.3566
   42MOL    O5012432   1.107   2.498   4.232  0.3901 -0.1873 -0.6356
   42MOL    C5112433   0.972   2.374   4.074  0.0113 -0.1271 -0.4779
   42MOL    C5212434   0.833   2.406   4.014  0.0186 -0.3996  0.2970
   42MOL    C5312435   1.283   2.700   3.977 -0.0253 -0.0394  0.5914
   42MOL    H5412436   1.149   2.732   4.151  1.9247 -1.2836  0.1125
   42MOL    H5512437   1.043   2.313   4.018 -0.9378 -2.9970  1.3316
   42MOL    H5612438   0.958   2.307   4.159 -1.3871 -1.5313 -1.7869
   42MOL    H5712439   0.814   2.334   3.933  2.1912 -0.0158 -0.6067
   42MOL    H5812440   0.749   2.401   4.082 -0.9681 -2.6276 -1.0197
   42MOL    H5912441   0.821   2.503   3.967  0.1605 -0.4887  0.0707
   42MOL    H6012442   1.331   2.612   4.019 -1.3670 -0.4654  1.2702
   42MOL    H6112443   1.268   2.676   3.872 -0.6945  0.4032  0.5860
   42MOL    C6212444   1.366   2.822   3.992 -0.1232  0.1992  0.4675
   42MOL    O6312445   1.388   2.824   4.135  0.0059  0.4402 -0.4207
   42MOL    C6412446   1.358   2.932   4.204 -0.4996  0.2015  0.0303
   42MOL    O6512447   1.307   3.034   4.152  0.6332  0.1125 -0.2328
   42MOL    C6612448   1.404   2.923   4.355  0.6449  0.0845 -0.5038
   42MOL    C6712449   1.332   3.026   4.454  0.7658  0.8774 -0.2851
   42MOL    C6812450   1.500   2.818   3.920  0.4579 -0.3173 -0.6547
   42MOL    H6912451   1.312   2.903   3.942 -0.7089 -1.8048 -2.2712
   42MOL    H7012452   1.391   2.820   4.389 -0.4825  0.8345  1.3656
   42MOL    H7112453   1.512   2.938   4.364  0.2404  2.5473  0.4255
   42MOL    H7212454   1.380   3.017   4.552  1.6904 -0.7992 -0.8625
   42MOL    H7312455   1.346   3.130   4.424  2.1059  0.9747  0.6197
   42MOL    H7412456   1.227   3.009   4.474  0.5882  1.0011 -1.1108
   42MOL    H7512457   1.564   2.752   3.979  1.5967  0.4318 -1.0207
   42MOL    H7612458   1.500   2.759   3.829  1.1002  0.0942 -0.9257
   42MOL    C7712459   1.577   2.957   3.897 -0.7944  0.0510 -0.2073
   42MOL    O7812460   1.712   2.927   3.954  0.3913 -1.0384 -0.3468
   42MOL    C7912461   1.787   3.025   3.996  0.4294 -0.8841  0.0995
   42MOL    O8012462   1.765   3.149   3.978 -0.1060 -0.2526  0.1290
   42MOL    C8112463   1.894   2.981   4.089 -0.1640 -0.5565  0.9228
   42MOL    C8212464   1.937   3.095   4.193 -0.5726  0.5260  0.0564
   42MOL    C8312465   1.598   2.983   3.740  0.2131  0.5892 -0.1766
   42MOL    H8412466   1.535   3.040   3.954 -0.2245  0.4961 -0.4330
   42MOL    H8512467   1.849   2.892   4.133 -1.4116  0.1882  1.1733
   42MOL    H8612468   1.977   2.934   4.037 -1.0794 -1.2870  0.0988
   42MOL    H8712469   1.855   3.099   4.265  0.3142  1.1619  1.0575
   42MOL    H8812470   2.019   3.055   4.253 -1.8700 -0.4807  1.2012
   42MOL    H8912471   1.958   3.193   4.151  0.3637  1.0346  1.6518
   42MOL    H9012472   1.672   3.061   3.719  1.1543 -0.5210 -1.1372
   42MOL    H9112473   1.648   2.902   3.686  0.0433  1.3360 -1.4869
   42MOL    C9212474   1.474   3.032   3.664 -0.7550  0.3989  0.3611
   42MOL    O9312475   1.419   3.152   3.724  0.9052  0.7367  0.1105
   42MOL    C9412476   1.293   3.151   3.774  0.0222 -0.1970  0.3065
   42MOL    O9512477   1.217   3.056   3.772  0.6819 -0.5062  0.1474
   42MOL    C9612478   1.239   3.293   3.802 -0.1956 -0.5242 -0.4674
   42MOL    C9712479   1.243   3.315   3.955 -0.7126  0.2076  0.9871
   42MOL    C9812480   1.506   3.058   3.515 -0.4095  0.1721 -0.4907
   42MOL    H9912481   1.400   2.952   3.672  1.4926 -1.5362  2.2444
   42MOL   H10012482   1.304   3.369   3.760  0.3169  1.0505  2.9434
   42MOL   H10112483   1.137   3.312   3.769 -0.9149 -1.5602  1.1056
   42MOL   H10212484   1.195   3.229   4.002  1.4931 -1.8256 -0.3523
   42MOL   H10312485   1.348   3.313   3.984 -0.2411 -1.7624 -0.7179
   42MOL   H10412486   1.209   3.412   3.990 -2.9068 -0.9370  2.0945
   42MOL   H10512487   1.433   3.121   3.464 -2.0500  0.3791  2.0397
   42MOL   H10612488   1.599   3.114   3.513 -0.8336  1.0214  1.9475
   42MOL   C10712489   1.519   2.925   3.445 -0.1401  0.1375 -0.0595
   42MOL   O10812490   1.389   2.863   3.427  0.2798 -0.1038  0.0983
   42MOL   C10912491   1.352   2.753   3.496  0.2865 -0.2991  0.2595
   42MOL   O11012492   1.408   2.705   3.593  0.1633  0.2098 -0.0984
   42MOL   C11112493   1.217   2.696   3.451  0.2652  0.4468 -0.1977
   42MOL   C11212494   1.101   2.720   3.544  0.5123  0.2943  0.1274
   42MOL   C11312495   1.596   2.918   3.311  0.0751 -0.4948 -1.1113
   42MOL   H11412496   1.576   2.848   3.496 -1.0167 -0.5574 -0.0988
   42MOL   H11512497   1.192   2.734   3.352 -2.0752 -2.0718 -0.6345
   42MOL   H11612498   1.237   2.589   3.442  1.3860  0.4918  1.5971
   42MOL   H11712499   1.059   2.820   3.543  0.6451  0.3588  0.8176
   42MOL   H11812500   1.017   2.654   3.521 -0.5772  1.8254 -0.3201
   42MOL   H11912501   1.126   2.697   3.647 -3.5542 -0.1232  1.0926
   42MOL   H12012502   1.591   2.817   3.272  1.2660 -0.7498 -0.6441
   42MOL   H12112503   1.559   2.989   3.237 -0.7085  2.2334  1.7666
   42MOL   C12212504   1.743   2.962   3.323  0.6314  0.6622  0.8498
   42MOL   O12312505   1.806   2.867   3.413 -0.3025 -0.0094  0.2977
   42MOL   C12412506   1.884   2.911   3.515  0.0232 -0.0437 -0.2036
   42MOL   O12512507   1.890   3.027   3.543  1.0545 -0.2764  0.4358
   42MOL   C12612508   1.954   2.801   3.596 -0.5865 -0.1661  0.5964
   42MOL   C12712509   2.050   2.854   3.710  0.8771  0.0882 -0.6372
   42MOL   C12812510   1.822   2.974   3.198  0.2275 -0.3194  0.1018
   42MOL   H12912511   1.731   3.055   3.378 -0.3790  0.0120  1.7437
   42MOL   H13012512   1.875   2.753   3.653 -0.9604 -1.1714 -0.7633
   42MOL   H13112513   1.997   2.721   3.536  2.9348  0.3139  2.3438
   42MOL   H13212514   2.110   2.932   3.662 -0.1483  1.9218  0.9724
   42MOL   H13312515   1.991   2.909   3.784 -0.5887  1.5092 -2.8189
   42MOL   H13412516   2.115   2.784   3.763  1.6619  1.0454 -0.3187
   42MOL   H13512517   1.927   2.986   3.226 -0.2143 -0.3447  1.8144
   42MOL   H13612518   1.816   2.879   3.144  2.5234 -0.8962  0.7708
   42MOL   C13712519   1.794   3.108   3.120  0.5213 -0.1321 -0.0889
   42MOL   O13812520   1.854   3.208   3.206 -0.0983 -0.4686  0.2575
   42MOL   C13912521   1.799   3.332   3.217  0.1468  0.3129 -0.4851
   42MOL   O14012522   1.722   3.366   3.133  0.4250 -0.0012 -0.3895
   42MOL   C14112523   1.863   3.428   3.320 -0.3183 -0.2388  0.1834
   42MOL   C14212524   1.912   3.350   3.449  0.1499  0.3808  0.3395
   42MOL   C14312525   1.863   3.103   2.976  0.3140  0.2963 -1.3650
   42MOL   H14412526   1.688   3.119   3.101  0.9016  1.6747 -1.2634
   42MOL   H14512527   1.948   3.465   3.262 -1.6843 -0.5307 -2.0278
   42MOL   H14612528   1.804   3.518   3.338  0.4676  0.7991 -2.2244
   42MOL   H14712529   1.960   3.421   3.515  0.1383  0.9381 -0.2512
   42MOL   H14812530   1.838   3.280   3.489  0.1381  0.6376  0.7735
   42MOL   H14912531   1.989   3.279   3.419 -1.0424 -1.4946  1.5311
   42MOL   H15012532   1.877   3.206   2.943 -0.9988  0.7594 -0.5125
   42MOL   H15112533   1.963   3.063   2.993 -0.2651 -0.0612  1.4964
   42MOL   C15212534   1.780   3.014   2.876  0.1824  0.1057  0.2797
   42MOL   O15312535   1.647   3.072   2.853 -0.3362  0.2388 -0.4485
   42MOL   C15412536   1.536   3.006   2.897  0.4697 -0.1593  0.1677
   42MOL   O15512537   1.543   2.894   2.941  0.3449  0.7033 -0.3796
   42MOL   C15612538   1.403   3.078   2.890  0.1374 -0.6127  0.0764
   42MOL   C15712539   1.395   3.205   2.974  0.4070  0.4479  0.3218
   42MOL   C15812540   1.840   3.003   2.731 -0.0773 -0.0280 -0.4457
   42MOL   H15912541   1.765   2.915   2.919  0.9899  0.4745  1.4158
   42MOL   H16012542   1.371   3.103   2.788 -0.9445  1.1836  0.8419
   42MOL   H16112543   1.327   3.012   2.933 -0.9306  0.2772 -0.4151
   42MOL   H16212544   1.293   3.226   3.008 -1.2829 -4.0841 -1.5149
   42MOL   H16312545   1.455   3.190   3.064 -1.9911  1.1511  2.0972
   42MOL   H16412546   1.425   3.299   2.927 -0.1052  0.2073 -0.4978
   42MOL   H16512547   1.772   2.973   2.651  0.2281 -2.0370  0.0274
   42MOL   H16612548   1.867   3.104   2.698 -1.2755  0.5246  0.2125
   42MOL   C16712549   1.954   2.901   2.727 -0.3788 -0.1407  0.3579
   42MOL   O16812550   1.905   2.775   2.771 -0.4856  0.6708  0.2075
   42MOL   C16912551   1.942   2.715   2.882  0.2909 -0.8891 -0.2527
   42MOL   O17012552   2.015   2.757   2.977 -0.1240 -0.0135  0.4946
   42MOL   C17112553   1.866   2.584   2.899  0.6303  0.5369 -0.0013
   42MOL   C17212554   1.730   2.595   2.971  0.6979  0.3797  0.5506
   42MOL   C17312555   2.013   2.883   2.584 -0.0784  1.0283 -0.0262
   42MOL   H17412556   2.033   2.930   2.796 -1.4431  1.0739  1.1062
   42MOL   H17512557   1.841   2.534   2.805  0.3816  0.6003  0.0302
   42MOL   H17612558   1.931   2.523   2.961 -2.7414 -0.8203  2.3156
   42MOL   H17712559   1.746   2.662   3.056  1.3904  1.2270 -0.2356
   42MOL   H17812560   1.654   2.621   2.897  0.7335 -0.8747  0.0670
   42MOL   H17912561   1.706   2.491   2.995  2.1406  0.5744  3.0628
   42MOL   H18012562   2.082   2.799   2.593  0.9568  1.9442  0.7549
   42MOL   H18112563   1.930   2.849   2.522  0.3473 -0.0084 -0.0475
   42MOL   C18212564   2.081   3.006   2.519  0.4412  0.5219  0.4297
   42MOL   O18312565   2.203   3.032   2.584  0.5067 -0.3550 -0.5005
   42MOL   C18412566   2.208   3.121   2.675  0.5752 -0.1655 -0.3703
   42MOL   O18512567   2.110   3.185   2.724 -0.1732  0.1825 -0.1306
   42MOL   C18612568   2.350   3.156   2.712 -0.2693 -0.6643 -0.6857
   42MOL   C18712569   2.418   3.224   2.590  0.0657  0.3072 -0.5572
   42MOL   C18812570   2.124   2.973   2.377  0.3862  0.0283  0.1969
   42MOL   H18912571   2.022   3.097   2.529 -1.4778 -0.3063 -2.6712
   42MOL   H19012572   2.356   3.220   2.800 -0.3854 -1.1752 -0.3024
   42MOL   H19112573   2.411   3.067   2.729  0.9185  0.3345  0.3331
   42MOL   H19212574   2.362   3.297   2.531  0.3115  0.7939 -0.1946
   42MOL   H19312575   2.516   3.264   2.615 -0.1841 -0.2167  1.3637
   42MOL   H19412576   2.430   3.142   2.519 -1.9042 -1.0408  0.6118
   42MOL   H19512577   2.191   3.051   2.339  1.2780 -1.2646 -0.9703
   42MOL   H19612578   2.187   2.883   2.371  1.2138  0.5517  0.8997
   42MOL   C19712579   2.015   2.964   2.273  0.2136 -0.9371 -0.6335
   42MOL   O19812580   1.928   3.077   2.289  0.1151 -0.2546  0.0518
   42MOL   C19912581   1.797   3.072   2.325  1.0582  0.5716  0.0779
   42MOL   O20012582   1.733   2.962   2.341  0.5481 -0.0932  0.1903
   42MOL   C20112583   1.735   3.208   2.330  0.1835 -0.4624 -1.4627
   42MOL   C20212584   1.804   3.313   2.420  0.0516  0.3212  0.9124
   42MOL   C20312585   2.067   2.978   2.131 -0.4444  0.3633 -0.6614
   42MOL   H20412586   1.965   2.870   2.295  2.0988 -1.9096 -0.4049
   42MOL   H20512587   1.721   3.251   2.231 -0.5427  3.6379  0.3068
   42MOL   H20612588   1.634   3.196   2.371  0.8945 -0.1288  0.4305
   42MOL   H20712589   1.909   3.319   2.391 -0.3350  1.4193 -0.3124
   42MOL   H20812590   1.771   3.416   2.403 -1.4276 -0.1041  1.1775
   42MOL   H20912591   1.786   3.296   2.526  2.8643 -1.6029  1.1314
   42MOL   H21012592   1.982   2.967   2.064 -0.7944  1.7078 -0.4527
   42MOL   H21112593   2.098   3.081   2.115  1.6243 -0.1245  0.0702
   42MOL   C21212594   2.177   2.888   2.086  0.1268  0.0273  0.2133
   42MOL   O21312595   2.118   2.757   2.088 -1.0460 -0.5452 -0.1859
   42MOL   C21412596   2.196   2.653   2.128  0.3701 -0.0418  0.0591
   42MOL   O21512597   2.318   2.661   2.161 -0.2898  0.5540 -0.2690
   42MOL   C21612598   2.133   2.518   2.121  0.0453  0.0003  1.7581
   42MOL   C21712599   2.128   2.469   1.982 -0.1378  0.3218 -0.5257
   42MOL   C21812600   2.215   2.922   1.937 -0.5576  0.0954  0.6052
   42MOL   H21912601   2.262   2.903   2.153 -0.4083 -1.6661  1.2804
   42MOL   H22012602   2.187   2.451   2.187 -1.5970 -2.7341  0.4276
   42MOL   H22112603   2.034   2.529   2.165 -1.3660  0.2927 -1.3794
   42MOL   H22212604   2.225   2.448   1.937  0.5096  1.2354  0.4180
   42MOL   H22312605   2.073   2.375   1.979  1.2841 -0.5495  0.1161
   42MOL   H22412606   2.087   2.544   1.914 -0.0791  2.5110  1.7630
   42MOL   H22512607   2.125   2.903   1.879  0.4386 -3.7382  0.1504
   42MOL   H22612608   2.235   3.028   1.927  0.4751 -0.2435 -1.1715
   42MOL   C22712609   2.335   2.843   1.881  0.0478  0.3273  0.1353
   42MOL   O22812610   2.354   2.885   1.744 -0.1028 -0.1338 -0.2951
   42MOL   C22912611   2.358   2.790   1.647  0.2500  0.6408  0.7268
   42MOL   O23012612   2.335   2.668   1.661 -0.7076 -1.2460 -0.3754
   42MOL   C23112613   2.400   2.844   1.513 -0.2064  0.6490 -0.6155
   42MOL   C23212614   2.539   2.907   1.491  0.3848 -0.8804  0.1817
   42MOL   C23312615   2.465   2.875   1.958 -0.3011 -0.3044 -0.4066
   42MOL   H23412616   2.304   2.739   1.896 -2.5780  1.3313  1.9542
   42MOL   H23512617   2.382   2.759   1.447  0.2642  0.4692 -0.5131
   42MOL   H23612618   2.326   2.917   1.480 -1.1365  0.1835  0.3943
   42MOL   H23712619   2.590   2.846   1.418  2.7569  2.0613 -0.7310
   42MOL   H23812620   2.524   3.004   1.444  0.7829 -0.5773  0.6776
   42MOL   H23912621   2.600   2.903   1.581 -0.7983 -1.5211  0.9741
   42MOL   H24012622   2.514   2.969   1.934 -1.7115  0.6100  0.2526
   42MOL   H24112623   2.446   2.854   2.063 -0.6481  1.8561 -0.0181
   42MOL   C24212624   2.581   2.780   1.920  0.3232  0.0952 -0.0689
   42MOL   O24312625   2.693   2.820   1.995  0.2042  0.1440 -0.3437
   42MOL   C24412626   2.781   2.913   1.940  0.0438 -0.0241  0.0921
   42MOL   O24512627   2.752   2.992   1.849  0.4335  0.0739  0.4446
   42MOL   C24612628   2.914   2.924   2.008 -0.5641  0.0520 -0.3897
   42MOL   C24712629   2.939   3.062   2.063  0.5411 -0.9191 -0.5099
   42MOL   C24812630   2.565   2.627   1.937  0.3801 -0.2529  0.3143
   42MOL   H24912631   2.601   2.800   1.815 -0.0874  0.3923 -0.0941
   42MOL   H25012632   2.920   2.853   2.091 -0.8280  1.7133  1.0636
   42MOL   H25112633   2.991   2.905   1.934  1.0212  0.4271  1.1256
   42MOL   H25212634   2.856   3.109   2.115  0.6133 -0.2225 -1.0140
   42MOL   H25312635   3.017   3.053   2.139 -0.2951  1.5602  0.6813
   42MOL   H25412636   2.980   3.127   1.985  0.0594 -1.0375 -0.8628
   42MOL   H25512637   2.564   2.598   2.042  0.6101 -4.4807 -0.7429
   42MOL   H25612638   2.466   2.599   1.901  0.5545 -0.6454  0.1314
   42MOL   C25712639   2.671   2.535   1.863 -0.1306  1.1933 -0.6550
   42MOL   O25812640   2.649   2.547   1.720  0.2045 -0.1420 -0.5779
   42MOL   C25912641   2.652   2.448   1.633 -0.1109  0.5675  1.0824
   42MOL   O26012642   2.702   2.339   1.653  0.2447  0.2658 -0.0965
   42MOL   C26112643   2.592   2.482   1.499 -0.0399 -0.9844  0.1540
   42MOL   C26212644   2.495   2.375   1.454 -0.6987 -0.1081  0.3152
   42MOL   C26312645   2.827   2.544   1.888 -0.2018 -0.3288 -0.1713
   42MOL   H26412646   2.647   2.431   1.885 -0.6237  1.3871 -0.2859
   42MOL   H26512647   2.541   2.577   1.494  0.7435 -0.5810 -0.3186
   42MOL   H26612648   2.680   2.494   1.435  1.0257  1.1878  1.9609
   42MOL   H26712649   2.461   2.395   1.353 -0.8945  0.7509  0.5469
   42MOL   H26812650   2.547   2.280   1.462 -2.0802 -1.1423 -2.5417
   42MOL   H26912651   2.409   2.375   1.521 -2.4123 -1.5706 -1.8143
   42MOL   H27012652   2.875   2.475   1.818 -2.2205 -1.3523 -0.5808
   42MOL   H27112653   2.870   2.640   1.860 -2.1787  0.7528  0.4032
   42MOL   C27212654   2.870   2.514   2.038  0.2722 -0.8476 -0.2685
   42MOL   O27312655   2.842   2.381   2.068 -0.9192  0.0315  0.1194
   42MOL   C27412656   2.747   2.341   2.155  0.1100 -0.1917  0.0882
   42MOL   O27512657   2.683   2.417   2.223  0.6101  0.5158  0.0219
   42MOL   C27612658   2.725   2.197   2.168 -0.0774  0.5299 -1.0791
   42MOL   C27712659   2.853   2.137   2.239 -0.0457  0.2858  0.2203
   42MOL   C27812660   3.009   2.560   2.083 -0.8631 -0.3983 -0.7384
   42MOL   H27912661   2.804   2.578   2.096 -0.7476 -1.9786 -0.1581
   42MOL   H28012662   2.632   2.174   2.220  0.0228  0.8661 -0.7494
   42MOL   H28112663   2.703   2.151   2.072  0.3391 -0.5965 -0.6522
   42MOL   H28212664   2.933   2.149   2.166  0.0582 -0.7157  0.1660
   42MOL   H28312665   2.875   2.181   2.336  1.4929  1.5517 -0.6812
   42MOL   H28412666   2.835   2.034   2.269 -1.1995  0.2004 -0.7156
   42MOL   H28512667   3.020   2.668   2.088  0.9307 -0.7003  3.5968
   42MOL   H28612668   3.025   2.526   2.185  0.8452 -2.4417 -1.6434
   42MOL   C28712669   3.125   2.520   1.994  0.8352 -0.1658 -0.3568
   42MOL   O28812670   3.248   2.591   2.023  0.3201 -0.1969  1.0317
   42MOL   C28912671   3.275   2.713   1.967 -0.1418 -0.9024 -0.1366
   42MOL   O29012672   3.203   2.782   1.898 -0.0799 -0.7138 -0.0686
   42MOL   C29112673   3.414   2.762   2.003  0.0367 -0.3517  0.1479
   42MOL   C29212674   3.517   2.653   1.974  0.0617  0.1298 -0.2036
   42MOL   C29312675   3.174   2.372   2.013 -0.1057  0.7349 -0.1325
   42MOL   H29412676   3.106   2.543   1.889 -4.7575 -0.1686  0.4920
   42MOL   H29512677   3.440   2.849   1.942 -1.1624  0.1905  0.3853
   42MOL   H29612678   3.419   2.798   2.106  1.6982 -1.6445  0.5380
   42MOL   H29712679   3.522   2.633   1.867 -1.2250 -1.2033 -0.0416
   42MOL   H29812680   3.613   2.682   2.017 -1.0943 -0.0798  2.6623
   42MOL   H29912681   3.488   2.557   2.018 -2.1960 -0.0144 -1.9215
   42MOL   H30012682   3.096   2.315   2.062  2.2091 -0.3557  2.3633
   42MOL   H30112683   3.206   2.330   1.917 -1.9665  0.8389 -0.8194
   42MOL   H30212684   3.239   2.366   2.100 -2.1628  2.5138  1.5780
   43MOL     C112685   1.780   5.211   5.033 -1.0297 -0.6196 -1.1915
   43MOL     O212686   1.803   5.163   4.904  0.1299 -0.2010  0.3624
   43MOL     C312687   1.931   5.118   4.865  0.3787 -0.4272 -0.3097
   43MOL     O412688   2.033   5.097   4.931 -0.3101 -0.5560 -0.3635
   43MOL     C512689   1.938   5.102   4.710 -0.0084 -1.1228  0.1109
   43MOL     C612690   1.986   4.963   4.671  0.0629  0.0509 -0.6763
   43MOL     C712691   1.755   5.099   5.132  0.0695 -0.3144 -0.1972
   43MOL     H812692   1.697   5.280   5.026  0.5846  1.1347 -3.5605
   43MOL     H912693   1.844   5.128   4.660  1.1928 -1.3191 -2.3649
   43MOL    H1012694   2.004   5.177   4.667 -1.7297  0.1133 -0.4505
   43MOL    H1112695   2.004   4.962   4.563  0.3781 -0.7666 -0.6210
   43MOL    H1212696   2.080   4.944   4.723  0.6572  3.6566 -0.2587
   43MOL    H1312697   1.905   4.900   4.705  0.5016 -0.4516 -0.5501
   43MOL    H1412698   1.651   5.074   5.109  0.1572  0.1097 -1.1046
   43MOL    H1512699   1.813   5.009   5.112 -0.6034 -0.3559 -2.0638
   43MOL    H1612700   1.861   5.279   5.061 -1.1969 -0.3554 -1.3556
   43MOL    C1712701   1.765   5.143   5.279 -0.4993  0.1859 -0.1592
   43MOL    O1812702   1.694   5.053   5.355  0.1135 -0.0180 -0.6301
   43MOL    C1912703   1.639   5.095   5.474 -0.4754 -0.3815  0.1432
   43MOL    O2012704   1.653   5.213   5.513  0.1037 -0.5324 -0.3932
   43MOL    C2112705   1.570   4.989   5.553 -0.2467 -0.2472 -0.1960
   43MOL    C2212706   1.664   4.899   5.634  0.3148 -0.8084  0.6176
   43MOL    C2312707   1.912   5.112   5.334 -0.2803  0.2656 -0.5575
   43MOL    H2412708   1.752   5.248   5.306  1.0943  0.4649 -0.3879
   43MOL    H2512709   1.497   5.036   5.619  0.4191 -1.2023  1.2466
   43MOL    H2612710   1.524   4.922   5.482 -0.8288 -0.1906  0.1252
   43MOL    H2712711   1.655   4.800   5.587  1.8581 -0.4027 -0.5720
   43MOL    H2812712   1.768   4.931   5.623 -0.2088  1.2360  1.4707
   43MOL    H2912713   1.638   4.891   5.739  3.2961 -2.4196  1.2959
   43MOL    H3012714   1.909   5.111   5.443 -0.6956 -1.9722 -0.5649
   43MOL    H3112715   1.942   5.012   5.305  1.8495  0.9132 -0.6190
   43MOL    C3212716   2.023   5.223   5.293 -0.0272  0.1897 -0.7190
   43MOL    O3312717   1.986   5.345   5.361 -0.1912  0.0087 -0.2031
   43MOL    C3412718   1.957   5.458   5.291  0.6417  0.2239  0.0719
   43MOL    O3512719   1.955   5.475   5.169  0.4561 -0.1579 -0.7209
   43MOL    C3612720   1.936   5.575   5.389  0.7443  0.8086 -0.4730
   43MOL    C3712721   1.825   5.542   5.496  0.1578 -0.4015  0.4325
   43MOL    C3812722   2.158   5.183   5.343 -0.4468  0.2563 -0.1125
   43MOL    H3912723   2.035   5.238   5.186  1.2822 -0.4580 -0.6668
   43MOL    H4012724   2.024   5.612   5.442  1.0212  1.2241 -1.2109
   43MOL    H4112725   1.897   5.665   5.341 -1.5039 -0.0200 -0.2477
   43MOL    H4212726   1.776   5.632   5.534 -0.8914 -1.0380  0.6248
   43MOL    H4312727   1.747   5.478   5.454  0.2985 -0.4805  0.2959
   43MOL    H4412728   1.878   5.477   5.566  1.9858 -0.4836 -1.0073
   43MOL    H4512729   2.165   5.176   5.452  1.0452 -4.1982 -0.4008
   43MOL    H4612730   2.177   5.079   5.318  3.3586  0.1993  2.5220
   43MOL    C4712731   2.266   5.277   5.287  0.3985  0.0053 -0.0708
   43MOL    O4812732   2.375   5.269   5.382  0.0152  0.3650 -0.3042
   43MOL    C4912733   2.391   5.346   5.478  0.1944 -0.5827 -0.0978
   43MOL    O5012734   2.316   5.438   5.507  0.5602 -0.3171  0.1042
   43MOL    C5112735   2.515   5.314   5.559 -0.7057  0.2893 -0.5752
   43MOL    C5212736   2.505   5.168   5.618 -0.0442 -0.4617 -0.3812
   43MOL    C5312737   2.304   5.233   5.147  0.0432 -0.4251  0.0147
   43MOL    H5412738   2.223   5.377   5.283  1.5599  0.4954 -0.4513
   43MOL    H5512739   2.600   5.325   5.492  0.0986  0.2026  0.4078
   43MOL    H5612740   2.528   5.381   5.644  0.2577  1.1744 -1.4146
   43MOL    H5712741   2.435   5.103   5.566  0.6047  0.4422 -2.4215
   43MOL    H5812742   2.607   5.130   5.621  0.2870  0.2875 -1.9163
   43MOL    H5912743   2.472   5.179   5.721  0.0726 -1.6064 -0.2095
   43MOL    H6012744   2.348   5.134   5.137  0.8870 -0.0253 -0.3858
   43MOL    H6112745   2.215   5.222   5.085 -0.7481  0.9198  0.8653
   43MOL    C6212746   2.392   5.336   5.074  0.2178  0.1851  0.7632
   43MOL    O6312747   2.332   5.459   5.060  0.2375  0.2594  0.0275
   43MOL    C6412748   2.347   5.532   4.939  0.2230 -0.0732  0.0678
   43MOL    O6512749   2.397   5.489   4.834  0.6611 -0.0895 -0.1997
   43MOL    C6612750   2.278   5.668   4.943  0.8246 -0.7277 -0.2392
   43MOL    C6712751   2.126   5.671   4.903  0.0327 -0.8406  0.5760
   43MOL    C6812752   2.528   5.348   5.136  0.3904  0.4389 -0.1074
   43MOL    H6912753   2.405   5.292   4.975  1.3304  1.8278  0.1622
   43MOL    H7012754   2.282   5.714   5.042 -0.9009  1.2802 -1.0655
   43MOL    H7112755   2.339   5.737   4.885  1.9969 -1.7401 -0.2268
   43MOL    H7212756   2.109   5.620   4.808 -0.6429  1.7443 -0.7539
   43MOL    H7312757   2.068   5.615   4.976  1.2238 -0.7526  1.6046
   43MOL    H7412758   2.079   5.769   4.906 -0.5656 -1.1170  0.4516
   43MOL    H7512759   2.521   5.420   5.218 -0.8312  1.5645 -1.1657
   43MOL    H7612760   2.541   5.249   5.180 -2.8890 -0.3056 -0.6648
   43MOL    C7712761   2.652   5.376   5.047  0.6822 -0.5893 -0.3211
   43MOL    O7812762   2.753   5.425   5.145  0.2493 -0.4790  0.6374
   43MOL    C7912763   2.817   5.334   5.229  0.2362 -0.5260 -0.1591
   43MOL    O8012764   2.792   5.213   5.233  0.2775  0.6225 -0.1889
   43MOL    C8112765   2.919   5.395   5.331  0.1204  0.0469  0.4360
   43MOL    C8212766   2.966   5.298   5.447 -1.1372  0.6870 -0.7534
   43MOL    C8312767   2.707   5.277   4.945  0.1740 -0.4300 -0.4063
   43MOL    H8412768   2.630   5.461   4.983  1.2837  0.6412  1.0581
   43MOL    H8512769   2.992   5.448   5.270 -1.2613  0.4884 -0.8728
   43MOL    H8612770   2.853   5.466   5.382 -0.5999  1.4593 -2.3931
   43MOL    H8712771   2.883   5.256   5.503  1.2151 -0.5794  1.9709
   43MOL    H8812772   3.011   5.208   5.404  0.5097  1.0636  0.1224
   43MOL    H8912773   3.034   5.343   5.520 -1.1995  0.1822 -0.3760
   43MOL    H9012774   2.720   5.177   4.986  0.6993  0.7706  2.5352
   43MOL    H9112775   2.616   5.279   4.886 -1.9190 -0.8965  2.6791
   43MOL    C9212776   2.816   5.329   4.861 -1.0453  0.1422  0.1185
   43MOL    O9312777   2.938   5.305   4.930 -0.1150 -0.6290 -0.3791
   43MOL    C9412778   3.037   5.400   4.931  0.4769  0.4950  0.1642
   43MOL    O9512779   3.031   5.509   4.874 -0.1890  0.1250 -0.3384
   43MOL    C9612780   3.156   5.365   5.026  0.2554 -0.0002 -0.4059
   43MOL    C9712781   3.212   5.481   5.101  0.7665 -0.9304 -0.7691
   43MOL    C9812782   2.829   5.265   4.724  0.6032  0.2873 -0.1419
   43MOL    H9912783   2.799   5.436   4.854 -0.3320  0.1585 -1.4597
   43MOL   H10012784   3.111   5.293   5.095  0.9857  0.8741  0.9906
   43MOL   H10112785   3.237   5.320   4.968  1.6821 -1.8696  2.9130
   43MOL   H10212786   3.132   5.535   5.152  0.9368 -0.6097 -0.8368
   43MOL   H10312787   3.292   5.465   5.174 -0.6061 -2.1341  0.5068
   43MOL   H10412788   3.263   5.552   5.035  1.8787  1.2673  2.2962
   43MOL   H10512789   2.922   5.299   4.679 -0.0549  2.3776  0.0344
   43MOL   H10612790   2.833   5.156   4.736 -0.5706  0.0730 -1.5377
   43MOL   C10712791   2.708   5.294   4.624 -0.1830  0.3897  0.7302
   43MOL   O10812792   2.695   5.430   4.596 -0.0195 -0.2202  0.0174
   43MOL   C10912793   2.769   5.508   4.520  0.0296 -0.2584  0.1835
   43MOL   O11012794   2.875   5.490   4.471  0.1506  0.2326  0.1172
   43MOL   C11112795   2.694   5.644   4.498 -0.2398  0.4424  0.5429
   43MOL   C11212796   2.624   5.636   4.359 -0.5164 -0.0215  0.0918
   43MOL   C11312797   2.707   5.212   4.493  0.9595  0.0193 -0.6757
   43MOL   H11412798   2.612   5.270   4.669 -1.4673 -1.2113 -2.7122
   43MOL   H11512799   2.616   5.666   4.570  1.1777 -0.8597  2.5480
   43MOL   H11612800   2.770   5.722   4.494 -0.5816  0.7627  0.2831
   43MOL   H11712801   2.542   5.564   4.362  2.2589 -3.3289 -1.0476
   43MOL   H11812802   2.580   5.734   4.341 -0.9480  0.2402  2.3884
   43MOL   H11912803   2.696   5.613   4.281 -1.1074 -0.2963 -0.3762
   43MOL   H12012804   2.619   5.235   4.432  1.2333  0.5249 -0.8793
   43MOL   H12112805   2.795   5.232   4.432  0.4512  1.6602 -0.9007
   43MOL   C12212806   2.679   5.056   4.498 -0.6639 -0.5963  0.3725
   43MOL   O12312807   2.562   5.027   4.567 -0.0465  0.6214 -0.8775
   43MOL   C12412808   2.573   4.936   4.675 -0.3861 -0.1209 -0.0667
   43MOL   O12512809   2.673   4.879   4.713  0.4538 -0.3588  0.0675
   43MOL   C12612810   2.438   4.924   4.749  0.2809 -0.7951  0.1854
   43MOL   C12712811   2.403   5.043   4.827  0.1764  0.0068  0.1102
   43MOL   C12812812   2.662   5.001   4.352 -0.1237 -0.4764 -0.5057
   43MOL   H12912813   2.770   5.018   4.545 -0.8966 -0.3203  1.0647
   43MOL   H13012814   2.363   4.912   4.671  1.8247 -3.5953 -0.9516
   43MOL   H13112815   2.453   4.830   4.802 -0.3427  0.1080  1.9927
   43MOL   H13212816   2.297   5.057   4.846 -0.2502 -1.4679 -1.1169
   43MOL   H13312817   2.467   5.057   4.915  3.0441 -0.4057 -1.8296
   43MOL   H13412818   2.427   5.128   4.762  2.1629 -0.7243 -0.1393
   43MOL   H13512819   2.558   5.013   4.322 -0.3283 -3.2360 -0.9987
   43MOL   H13612820   2.713   5.062   4.278 -0.7938  1.0165  0.2399
   43MOL   C13712821   2.705   4.855   4.347 -0.4074 -0.6216 -0.0210
   43MOL   O13812822   2.613   4.779   4.268  0.8810  0.7010  0.1113
   43MOL   C13912823   2.520   4.691   4.321  1.2158 -0.1390  0.1247
   43MOL   O14012824   2.489   4.693   4.438  0.2450  0.5460  0.2941
   43MOL   C14112825   2.456   4.592   4.224  1.0129  0.2593 -0.3866
   43MOL   C14212826   2.458   4.450   4.279  0.3016 -0.1443 -0.1161
   43MOL   C14312827   2.842   4.841   4.276  0.9620 -0.0433 -0.4596
   43MOL   H14412828   2.699   4.812   4.447  1.0395 -0.2098  0.2558
   43MOL   H14512829   2.355   4.631   4.235  1.0609 -0.1177  1.6483
   43MOL   H14612830   2.491   4.590   4.121 -1.4223 -0.7443 -1.2269
   43MOL   H14712831   2.440   4.441   4.386  1.1256 -0.7730 -0.0236
   43MOL   H14812832   2.380   4.389   4.234  0.0039 -0.3355  0.6477
   43MOL   H14912833   2.547   4.394   4.251  0.1139 -0.2404 -0.5293
   43MOL   H15012834   2.865   4.735   4.279  0.1843 -0.1913  0.2016
   43MOL   H15112835   2.834   4.861   4.169 -0.0234 -2.4508 -0.8620
   43MOL   C15212836   2.965   4.913   4.321  0.3278  0.8334  0.2912
   43MOL   O15312837   2.978   4.870   4.456 -0.5722 -0.2637  0.4710
   43MOL   C15412838   3.028   4.957   4.551 -0.2343  0.2978  0.0067
   43MOL   O15512839   3.058   5.073   4.529  0.1309  0.0613 -0.2192
   43MOL   C15612840   3.058   4.899   4.691 -0.2193  0.1676 -0.2764
   43MOL   C15712841   3.123   4.995   4.790  0.0931  0.5653  0.1406
   43MOL   C15812842   3.093   4.869   4.245 -0.0400 -0.3723  0.1054
   43MOL   H15912843   2.946   5.021   4.319 -0.3210  0.7256  0.4110
   43MOL   H16012844   2.967   4.855   4.731 -1.0024  1.6082 -0.4677
   43MOL   H16112845   3.128   4.817   4.675  0.0476  0.3966 -0.2862
   43MOL   H16212846   3.054   5.067   4.832  1.2609  0.1698  2.8429
   43MOL   H16312847   3.151   4.942   4.881  1.7012  3.7478  1.5977
   43MOL   H16412848   3.211   5.040   4.744  0.5338 -0.1808  0.2359
   43MOL   H16512849   3.183   4.890   4.303 -0.6069  3.8051 -0.4149
   43MOL   H16612850   3.099   4.760   4.243  1.4685 -0.3287  1.6284
   43MOL   C16712851   3.111   4.921   4.108 -0.0353  0.7641 -0.0367
   43MOL   O16812852   3.123   5.058   4.126 -0.0379  0.4074  0.1621
   43MOL   C16912853   3.058   5.149   4.043 -0.8931 -0.7333 -0.2296
   43MOL   O17012854   2.976   5.132   3.954  0.0284  0.2236 -0.0075
   43MOL   C17112855   3.098   5.289   4.080 -0.0383  1.7054 -0.3066
   43MOL   C17212856   3.066   5.320   4.231 -0.7253 -0.4581  0.2019
   43MOL   C17312857   3.230   4.874   4.017  0.5011 -1.5039 -0.2316
   43MOL   H17412858   3.025   4.887   4.049 -1.2836  0.9144  1.6432
   43MOL   H17512859   3.203   5.307   4.056  0.9749 -1.5001  1.4605
   43MOL   H17612860   3.056   5.370   4.020 -2.4005  1.3618  0.7991
   43MOL   H17712861   3.105   5.417   4.259 -1.2638  0.2732 -1.5023
   43MOL   H17812862   2.959   5.341   4.234 -0.4160  1.3319 -0.6906
   43MOL   H17912863   3.103   5.244   4.300  1.5151 -0.0379 -0.4907
   43MOL   H18012864   3.275   4.936   3.940 -0.7646  0.3026  0.4381
   43MOL   H18112865   3.303   4.873   4.097  0.8050 -1.2756 -0.5036
   43MOL   C18212866   3.212   4.740   3.954  0.5335 -0.2783  0.2337
   43MOL   O18312867   3.100   4.746   3.868  0.1405  0.6670  1.0104
   43MOL   C18412868   3.034   4.634   3.834 -0.3888  0.0202  0.5120
   43MOL   O18512869   3.058   4.528   3.893 -0.3634 -0.2650 -0.3909
   43MOL   C18612870   2.932   4.644   3.725  0.1747  0.0433  1.1279
   43MOL   C18712871   2.939   4.530   3.623  0.1023 -0.3333  0.7419
   43MOL   C18812872   3.339   4.694   3.864  0.0585  0.2566  0.2175
   43MOL   H18912873   3.200   4.664   4.032 -0.0049 -1.1624 -0.6870
   43MOL   H19012874   2.828   4.647   3.757  0.1826  0.3485  1.1212
   43MOL   H19112875   2.967   4.734   3.674  0.3642 -0.8008 -0.2795
   43MOL   H19212876   2.857   4.543   3.552  1.3214  1.2929 -0.3828
   43MOL   H19312877   3.026   4.531   3.558 -0.8767 -0.1990 -0.6038
   43MOL   H19412878   2.919   4.433   3.670  1.4754 -1.4109 -0.8227
   43MOL   H19512879   3.320   4.600   3.812  1.6937  0.5859 -0.9865
   43MOL   H19612880   3.358   4.777   3.796  1.4495  0.2542  0.5961
   43MOL   C19712881   3.466   4.691   3.951 -0.0213  0.4439  0.2657
   43MOL   O19812882   3.442   4.584   4.045  0.1125  0.0997 -0.1967
   43MOL   C19912883   3.488   4.574   4.170  0.6822  0.0770 -0.0955
   43MOL   O20012884   3.564   4.656   4.214 -0.0922 -0.6462  0.6688
   43MOL   C20112885   3.419   4.466   4.255 -0.0474 -0.4301 -0.1201
   43MOL   C20212886   3.481   4.457   4.404  0.3037 -0.3939  0.5498
   43MOL   C20312887   3.602   4.648   3.884 -0.1932 -0.4135  0.0765
   43MOL   H20412888   3.481   4.785   4.005  2.4881 -0.0959  0.6098
   43MOL   H20512889   3.312   4.481   4.256 -0.0068 -0.1514  0.6197
   43MOL   H20612890   3.427   4.366   4.213 -2.9227 -1.2739  1.2248
   43MOL   H20712891   3.398   4.422   4.466 -1.0440 -0.2679 -1.1223
   43MOL   H20812892   3.558   4.382   4.421  1.2371  0.6262  0.7842
   43MOL   H20912893   3.498   4.546   4.464 -2.0081  1.6148 -1.6263
   43MOL   H21012894   3.673   4.609   3.958  0.4424  0.2032 -0.2019
   43MOL   H21112895   3.598   4.574   3.805  0.1019  0.2976 -0.6066
   43MOL   C21212896   3.682   4.763   3.819 -0.0540  0.5491 -0.3461
   43MOL   O21312897   3.596   4.784   3.702  0.1264  0.7804 -0.1391
   43MOL   C21412898   3.647   4.826   3.592 -0.5215 -0.1067  0.3277
   43MOL   O21512899   3.753   4.886   3.577  0.1753  1.0393 -0.2364
   43MOL   C21612900   3.556   4.824   3.463  0.0835 -0.3279 -0.5415
   43MOL   C21712901   3.588   4.946   3.365 -0.1115  0.3094  0.1294
   43MOL   C21812902   3.697   4.891   3.906 -0.0785  0.4795 -0.0387
   43MOL   H21912903   3.782   4.737   3.783  0.3577  1.4243  0.1512
   43MOL   H22012904   3.574   4.730   3.411 -1.7612 -0.0192 -1.7768
   43MOL   H22112905   3.450   4.826   3.491  0.1243  0.8009 -0.4695
   43MOL   H22212906   3.502   4.970   3.304 -0.5129  1.0642  0.9868
   43MOL   H22312907   3.616   5.034   3.423 -3.3793  0.3975  1.6919
   43MOL   H22412908   3.661   4.913   3.292  1.3504  2.0881  0.7485
   43MOL   H22512909   3.739   4.973   3.848  1.0365  0.5884  0.8929
   43MOL   H22612910   3.604   4.930   3.945  0.4641  1.2404  0.5078
   43MOL   C22712911   3.802   4.873   4.017 -0.7671  0.0904  0.1370
   43MOL   O22812912   3.922   4.817   3.965  0.3986 -0.1778 -0.1777
   43MOL   C22912913   3.996   4.719   4.024  1.0999  0.1374 -0.4052
   43MOL   O23012914   3.976   4.680   4.135  0.5942 -0.3003 -0.4217
   43MOL   C23112915   4.128   4.674   3.962  0.0597  0.7588  0.4721
   43MOL   C23212916   4.123   4.532   3.903  0.0645  0.8495  0.1910
   43MOL   C23312917   3.846   5.003   4.092 -0.0215  0.4872  0.6254
   43MOL   H23412918   3.757   4.814   4.097 -1.4418  2.3646  1.4845
   43MOL   H23512919   4.155   4.743   3.882  1.8048 -0.9245 -0.4557
   43MOL   H23612920   4.216   4.671   4.025  0.3868 -0.5513 -0.0112
   43MOL   H23712921   4.220   4.501   3.865 -0.3024  1.3218 -1.1578
   43MOL   H23812922   4.084   4.470   3.984  2.7696 -0.9816  0.1596
   43MOL   H23912923   4.053   4.528   3.820 -0.3532  1.6029  0.5033
   43MOL   H24012924   3.930   4.983   4.158  0.8313  2.0977  0.0370
   43MOL   H24112925   3.893   5.074   4.025  2.3182 -1.2312  0.3901
   43MOL   C24212926   3.741   5.079   4.181  0.2202 -0.4780  0.0708
   43MOL   O24312927   3.700   4.994   4.289  0.6900  0.3758  0.7207
   43MOL   C24412928   3.566   4.957   4.308 -0.1462 -0.3761 -0.1828
   43MOL   O24512929   3.479   4.993   4.231 -0.1938  0.0933 -0.0441
   43MOL   C24612930   3.539   4.859   4.426 -1.0995 -0.6520 -0.2831
   43MOL   C24712931   3.509   4.937   4.559 -0.2258 -0.6225 -0.2851
   43MOL   C24812932   3.789   5.216   4.251 -0.1284 -0.7731  0.7403
   43MOL   H24912933   3.654   5.097   4.118  1.5236  0.9763 -1.3602
   43MOL   H25012934   3.462   4.786   4.399 -0.7307 -0.9309 -0.5813
   43MOL   H25112935   3.632   4.808   4.448 -0.5923  0.4658  0.1828
   43MOL   H25212936   3.546   4.867   4.633 -0.3816 -1.3822 -0.9203
   43MOL   H25312937   3.576   5.024   4.563  0.2583 -0.9436 -1.2430
   43MOL   H25412938   3.402   4.956   4.556 -0.0756  0.2987 -0.0955
   43MOL   H25512939   3.874   5.195   4.315 -0.0985 -0.7774  0.6989
   43MOL   H25612940   3.819   5.281   4.168 -1.9186 -1.2197 -0.2927
   43MOL   C25712941   3.686   5.295   4.341 -0.1399 -0.4925 -0.5131
   43MOL   O25812942   3.748   5.413   4.371 -0.2661 -0.3616 -0.7721
   43MOL   C25912943   3.809   5.435   4.485  0.3797  1.0657 -0.4084
   43MOL   O26012944   3.823   5.355   4.579 -0.6029 -0.1459 -0.0379
   43MOL   C26112945   3.856   5.579   4.496 -0.2417  0.1521  1.1414
   43MOL   C26212946   3.751   5.671   4.556  0.2153 -0.2370  0.4824
   43MOL   C26312947   3.556   5.345   4.265 -0.0594 -0.4173  0.3124
   43MOL   H26412948   3.674   5.235   4.431 -0.0422  1.5190  0.8677
   43MOL   H26512949   3.952   5.587   4.547 -0.3586  2.2219  1.0534
   43MOL   H26612950   3.865   5.617   4.394 -1.5192 -0.1887  0.8991
   43MOL   H26712951   3.783   5.775   4.556  1.2807 -0.5570 -0.8793
   43MOL   H26812952   3.660   5.659   4.497 -0.0775 -0.7330  1.0269
   43MOL   H26912953   3.731   5.639   4.659 -0.2874 -2.7151 -0.3539
   43MOL   H27012954   3.571   5.416   4.183  1.0478  0.5243  1.3129
   43MOL   H27112955   3.524   5.256   4.210 -2.6930 -0.1874  1.4230
   43MOL   C27212956   3.448   5.392   4.358  0.4286 -0.4146  0.4025
   43MOL   O27312957   3.353   5.466   4.282  0.2712  0.1817  0.2585
   43MOL   C27412958   3.362   5.598   4.263 -0.4473  0.5086  1.0141
   43MOL   O27512959   3.451   5.664   4.309  0.1073 -0.5163  0.0145
   43MOL   C27612960   3.237   5.658   4.187 -0.2504 -0.4049 -0.1406
   43MOL   C27712961   3.129   5.708   4.281  0.3905 -0.6290  0.0190
   43MOL   C27812962   3.377   5.276   4.420  0.0874 -0.0098  0.1636
   43MOL   H27912963   3.487   5.457   4.437 -2.3633  0.0858  1.4408
   43MOL   H28012964   3.279   5.733   4.120  0.6317  0.1880  1.0357
   43MOL   H28112965   3.195   5.591   4.113 -0.0187 -0.8130  0.0965
   43MOL   H28212966   3.038   5.726   4.223  0.5610 -0.3230 -0.1564
   43MOL   H28312967   3.114   5.638   4.363  0.9228  1.2921  1.8027
   43MOL   H28412968   3.162   5.805   4.316  0.2316 -0.1056 -1.2325
   43MOL   H28512969   3.302   5.224   4.360  0.3364  1.1051 -1.1342
   43MOL   H28612970   3.458   5.204   4.428 -0.0946 -0.3132 -0.7335
   43MOL   C28712971   3.322   5.291   4.566 -0.3428  0.2411 -0.2123
   43MOL   O28812972   3.432   5.334   4.652 -0.0554 -0.0042 -0.1726
   43MOL   C28912973   3.483   5.266   4.755  0.2905 -0.0525  0.0782
   43MOL   O29012974   3.446   5.153   4.795 -0.4313 -0.4502  0.0168
   43MOL   C29112975   3.592   5.336   4.837 -0.5409  0.5112  0.5242
   43MOL   C29212976   3.540   5.456   4.914 -0.0759  0.0977  0.4611
   43MOL   C29312977   3.203   5.380   4.586  0.0643  0.2375  0.1806
   43MOL   H29412978   3.297   5.190   4.598 -0.1016 -0.1565 -1.2705
   43MOL   H29512979   3.629   5.257   4.902 -0.2167  0.8825  0.7920
   43MOL   H29612980   3.667   5.370   4.766 -1.6359  0.4616 -0.6796
   43MOL   H29712981   3.490   5.424   5.006 -1.3563 -0.2304 -0.3386
   43MOL   H29812982   3.625   5.519   4.940  1.1714 -0.6448 -1.7210
   43MOL   H29912983   3.475   5.520   4.854  1.1193  0.7803 -0.1103
   43MOL   H30012984   3.225   5.470   4.530  0.6393 -0.7174 -1.1386
   43MOL   H30112985   3.117   5.342   4.531  0.8969 -0.6629 -0.5241
   43MOL   H30212986   3.169   5.400   4.688 -1.5222 -2.8893  0.3450
   44MOL     C112987   6.225   5.759   2.917 -1.1786 -0.1759 -0.8373
   44MOL     O212988   6.304   5.777   3.039 -0.0410  0.0282  0.3002
   44MOL     C312989   6.247   5.829   3.158 -0.1911  0.2004  0.1352
   44MOL     O412990   6.125   5.852   3.162  0.5214 -0.3406 -0.2663
   44MOL     C512991   6.347   5.825   3.274  0.5567 -0.2237 -0.4955
   44MOL     C612992   6.473   5.902   3.262  0.1902 -0.0041 -0.0649
   44MOL     C712993   6.302   5.796   2.789  0.4690 -0.4607 -0.4536
   44MOL     H812994   6.133   5.818   2.920  0.1366  1.9062 -0.1062
   44MOL     H912995   6.305   5.870   3.364  0.5720  0.4569 -0.8237
   44MOL    H1012996   6.368   5.721   3.301 -3.3415 -0.8372  0.4157
   44MOL    H1112997   6.560   5.842   3.234 -0.3421 -1.0359  0.4619
   44MOL    H1212998   6.474   5.982   3.188 -0.3172  0.0439 -0.0250
   44MOL    H1312999   6.512   5.947   3.353  1.6131 -0.1706 -0.5827
   44MOL    H1413000   6.224   5.790   2.713 -0.2853 -1.0934  0.3635
   44MOL    H1513001   6.331   5.901   2.792  0.8030 -0.5051 -1.7188
   44MOL    H1613002   6.195   5.654   2.920 -3.4401  0.4744  1.1719
   44MOL    C1713003   6.411   5.702   2.743  0.6566  0.9276  0.2188
   44MOL    O1813004   6.431   5.737   2.602 -0.6304  0.7603 -0.1692
   44MOL    C1913005   6.429   5.649   2.501 -0.8920  0.0895  0.0993
   44MOL    O2013006   6.396   5.533   2.499  0.1720 -0.4882  0.2336
   44MOL    C2113007   6.479   5.710   2.369  0.2207 -0.0974  0.5068
   44MOL    C2213008   6.638   5.696   2.357 -0.3141  0.6937  0.2715
   44MOL    C2313009   6.536   5.731   2.819  0.0429  0.1417  0.5227
   44MOL    H2413010   6.386   5.596   2.739  0.4287  1.0289 -1.6969
   44MOL    H2513011   6.430   5.667   2.281 -1.3928  0.9965  0.8413
   44MOL    H2613012   6.454   5.816   2.372 -0.1251 -0.1448 -0.5329
   44MOL    H2713013   6.679   5.730   2.262 -1.9795  3.0969  0.3728
   44MOL    H2813014   6.677   5.758   2.438  0.0594 -0.0914  0.6959
   44MOL    H2913015   6.689   5.602   2.377  2.1159  1.8941  0.0059
   44MOL    H3013016   6.553   5.838   2.807  0.3046  0.0219 -0.2295
   44MOL    H3113017   6.520   5.720   2.926 -1.3621 -0.0020  0.3044
   44MOL    C3213018   6.660   5.674   2.764 -0.3663 -0.5109 -0.3210
   44MOL    O3313019   6.764   5.710   2.857 -0.5768 -0.1198  0.6781
   44MOL    C3413020   6.826   5.837   2.853 -0.3108 -0.4253  0.0932
   44MOL    O3513021   6.832   5.914   2.754 -0.4094  0.4434  0.5588
   44MOL    C3613022   6.905   5.867   2.973 -0.1270  0.0414 -0.1468
   44MOL    C3713023   6.815   5.920   3.083 -0.0519 -0.3198 -0.2901
   44MOL    C3813024   6.646   5.517   2.778  0.1523  0.3959 -0.3190
   44MOL    H3913025   6.679   5.711   2.663  1.8807  0.4083  0.4106
   44MOL    H4013026   6.945   5.773   3.010  0.8086  1.1858  1.8510
   44MOL    H4113027   6.973   5.946   2.942 -2.6928  2.1649 -0.4695
   44MOL    H4213028   6.834   6.022   3.114 -1.7642  0.3653 -1.3738
   44MOL    H4313029   6.710   5.929   3.053 -0.6168 -2.2886  0.9507
   44MOL    H4413030   6.821   5.853   3.169  1.0655 -1.1581 -1.0099
   44MOL    H4513031   6.604   5.501   2.877  0.6411  0.3306 -0.1258
   44MOL    H4613032   6.567   5.484   2.710  1.1154  0.4192 -1.4612
   44MOL    C4713033   6.771   5.431   2.768 -0.0230  0.0028  0.2178
   44MOL    O4813034   6.734   5.295   2.788 -0.0868  0.2259  0.2220
   44MOL    C4913035   6.801   5.220   2.878 -0.1160  0.0711 -0.0932
   44MOL    O5013036   6.881   5.265   2.963 -0.1511  0.2665 -0.2736
   44MOL    C5113037   6.748   5.079   2.878  0.5874  0.0988 -0.4224
   44MOL    C5213038   6.851   4.991   2.952  0.6413  0.2785 -0.1187
   44MOL    C5313039   6.849   5.441   2.633  0.2091  0.1969 -0.4026
   44MOL    H5413040   6.826   5.467   2.854 -0.1336  1.3316 -0.2432
   44MOL    H5513041   6.650   5.094   2.923  0.1599 -0.4957 -1.1550
   44MOL    H5613042   6.735   5.044   2.775 -1.9384 -0.1247 -0.0568
   44MOL    H5713043   6.796   4.901   2.980 -0.7179  0.8497 -0.8835
   44MOL    H5813044   6.934   4.971   2.886  0.8464  0.3298  0.1243
   44MOL    H5913045   6.906   5.033   3.037  0.2555 -0.1979  0.3706
   44MOL    H6013046   6.787   5.397   2.554  1.2738 -1.6101 -0.2650
   44MOL    H6113047   6.868   5.546   2.610  0.9432  0.7052  2.3948
   44MOL    C6213048   6.985   5.365   2.642  0.3677  0.0680  0.2329
   44MOL    O6313049   7.029   5.342   2.511  0.0391 -0.1750  0.4783
   44MOL    C6413050   7.102   5.234   2.480  0.0743  0.3992  0.1639
   44MOL    O6513051   7.105   5.140   2.553 -0.4074  0.1526  0.4541
   44MOL    C6613052   7.176   5.232   2.343 -0.3219  0.0976 -0.6520
   44MOL    C6713053   7.329   5.235   2.364  0.6737  0.0703  0.1953
   44MOL    C6813054   7.088   5.449   2.719  0.6044 -1.2416 -0.5326
   44MOL    H6913055   6.961   5.265   2.680  0.9771  0.0123  0.4708
   44MOL    H7013056   7.144   5.138   2.300  0.0421 -0.4188  0.1964
   44MOL    H7113057   7.139   5.319   2.288 -0.7962  1.3999  1.6329
   44MOL    H7213058   7.364   5.334   2.394  3.3448 -0.4718 -0.9602
   44MOL    H7313059   7.373   5.160   2.429 -1.5240 -0.4886  1.0872
   44MOL    H7413060   7.378   5.243   2.267 -0.4963  1.8220 -0.2739
   44MOL    H7513061   7.106   5.541   2.663  3.3236 -1.6841 -0.4528
   44MOL    H7613062   7.041   5.476   2.813  1.8704  1.3855 -0.6094
   44MOL    C7713063   7.225   5.385   2.746  0.0549  0.2565  0.3592
   44MOL    O7813064   7.305   5.488   2.793 -0.5507  0.4441  0.0475
   44MOL    C7913065   7.409   5.527   2.732 -0.4416 -0.8246 -0.6393
   44MOL    O8013066   7.443   5.494   2.619 -0.0990 -0.5072  0.7124
   44MOL    C8113067   7.473   5.637   2.811 -0.0974 -0.0165  0.2812
   44MOL    C8213068   7.609   5.676   2.766  0.7145 -0.0268 -0.0912
   44MOL    C8313069   7.229   5.270   2.849  0.4204 -0.3132  0.0148
   44MOL    H8413070   7.250   5.344   2.648 -1.1099  2.3165 -0.8338
   44MOL    H8513071   7.408   5.722   2.794 -0.4693 -0.7784 -2.3754
   44MOL    H8613072   7.482   5.606   2.915  3.6401 -0.1187  0.0228
   44MOL    H8713073   7.668   5.714   2.850  0.2570 -0.6239  0.5174
   44MOL    H8813074   7.656   5.581   2.738  0.4190 -0.2051  0.0105
   44MOL    H8913075   7.613   5.740   2.679  1.3731 -0.7449 -0.6022
   44MOL    H9013076   7.225   5.313   2.950  1.0005  0.7171 -0.3895
   44MOL    H9113077   7.131   5.223   2.847  0.4739 -0.4018 -0.5602
   44MOL    C9213078   7.341   5.171   2.824  0.0127 -0.1859 -0.0250
   44MOL    O9313079   7.465   5.227   2.867 -0.1193  0.3899  0.1308
   44MOL    C9413080   7.575   5.213   2.782 -0.1050  0.7393  0.0177
   44MOL    O9513081   7.583   5.162   2.671 -0.2087 -0.0946  0.2570
   44MOL    C9613082   7.695   5.294   2.836 -0.5032 -1.0066 -0.0115
   44MOL    C9713083   7.750   5.231   2.962  0.1771  0.3459  0.8163
   44MOL    C9813084   7.325   5.041   2.909 -0.5870 -0.6294 -0.8385
   44MOL    H9913085   7.339   5.143   2.718 -1.5449 -1.9191  0.4343
   44MOL   H10013086   7.776   5.279   2.765  0.5031 -1.5100  1.2077
   44MOL   H10113087   7.678   5.402   2.835  2.9691 -0.4113  0.5947
   44MOL   H10213088   7.677   5.228   3.043 -0.8811 -0.9058 -0.1588
   44MOL   H10313089   7.767   5.123   2.956  1.8987  0.5825  1.4115
   44MOL   H10413090   7.844   5.277   2.989  1.1952 -2.0205  1.3818
   44MOL   H10513091   7.367   5.071   3.006  1.3408 -2.1742 -1.1636
   44MOL   H10613092   7.224   5.017   2.942 -0.5457 -1.2597 -1.1631
   44MOL   C10713093   7.392   4.915   2.866 -0.5318  0.1198 -0.0430
   44MOL   O10813094   7.404   4.831   2.982 -0.5518 -0.7880  0.5779
   44MOL   C10913095   7.528   4.807   3.032  0.0853 -0.4036  0.5124
   44MOL   O11013096   7.633   4.870   3.018 -0.1959 -0.4597  0.8014
   44MOL   C11113097   7.526   4.688   3.125 -0.5954  0.0204  0.0732
   44MOL   C11213098   7.658   4.632   3.172  0.1468 -0.0160  0.7236
   44MOL   C11313099   7.316   4.835   2.752  0.3061 -0.0136 -0.2564
   44MOL   H11413100   7.486   4.949   2.823 -1.2180  0.1635 -1.5534
   44MOL   H11513101   7.465   4.723   3.208 -1.5836  0.7682 -0.9631
   44MOL   H11613102   7.466   4.616   3.070 -2.2989  0.6828  1.0282
   44MOL   H11713103   7.696   4.667   3.268  1.1654 -1.5963  0.9080
   44MOL   H11813104   7.655   4.523   3.178  2.1247 -0.1589 -0.6021
   44MOL   H11913105   7.740   4.650   3.102  0.6980 -2.8566  0.5980
   44MOL   H12013106   7.220   4.802   2.791  0.3805  1.1747  0.9776
   44MOL   H12113107   7.303   4.913   2.677  3.0137  0.5002 -0.2266
   44MOL   C12213108   7.401   4.725   2.701 -0.2657 -0.4812  0.1990
   44MOL   O12313109   7.404   4.613   2.788  0.3481  0.6470 -0.4914
   44MOL   C12413110   7.504   4.518   2.785 -0.0235  0.0585  0.6565
   44MOL   O12513111   7.605   4.533   2.711  0.1868  0.2420  0.1245
   44MOL   C12613112   7.474   4.408   2.887  0.4087 -0.0311  0.6214
   44MOL   C12713113   7.321   4.388   2.906  0.7998  0.8812  0.0768
   44MOL   C12813114   7.364   4.684   2.552  0.7623  0.0287 -0.2784
   44MOL   H12913115   7.504   4.759   2.691 -0.9928  1.7203  0.0610
   44MOL   H13013116   7.525   4.325   2.838  1.2258  0.7694  0.1099
   44MOL   H13113117   7.508   4.439   2.986 -2.9267  1.7433  1.2963
   44MOL   H13213118   7.299   4.303   2.970  0.5044 -0.3822 -1.6612
   44MOL   H13313119   7.292   4.475   2.965  0.9585 -0.0568  1.5744
   44MOL   H13413120   7.271   4.376   2.810  0.1612 -3.9756  0.9160
   44MOL   H13513121   7.376   4.779   2.500  2.9365  0.2875  0.6708
   44MOL   H13613122   7.430   4.610   2.505 -1.0785 -2.0024  0.2349
   44MOL   C13713123   7.222   4.618   2.528 -0.0112  0.2395  0.2372
   44MOL   O13813124   7.119   4.716   2.531  0.0358  0.2065  0.7159
   44MOL   C13913125   7.004   4.702   2.603 -0.2163 -0.1152 -0.1290
   44MOL   O14013126   6.970   4.605   2.662  0.0856 -0.4905  0.2270
   44MOL   C14113127   6.917   4.826   2.606 -0.1350 -0.1481  0.1209
   44MOL   C14213128   6.910   4.896   2.470 -0.0391 -0.5776  0.3352
   44MOL   C14313129   7.212   4.543   2.394 -0.4919 -0.4703 -0.3547
   44MOL   H14413130   7.202   4.537   2.598 -1.0536  0.2842 -0.0026
   44MOL   H14513131   6.817   4.800   2.640 -0.2418  1.0894  0.7699
   44MOL   H14613132   6.958   4.892   2.682  0.7038  1.7832 -1.9191
   44MOL   H14713133   7.000   4.902   2.410 -0.1213  2.3262  0.4039
   44MOL   H14813134   6.840   4.840   2.408 -0.5489  0.2944  0.1013
   44MOL   H14913135   6.874   4.999   2.472  2.7565  0.4224  2.1619
   44MOL   H15013136   7.112   4.561   2.355 -0.5492  1.8600  0.7338
   44MOL   H15113137   7.267   4.606   2.324  1.2893 -0.8953  0.6395
   44MOL   C15213138   7.241   4.388   2.398  0.6250  0.2218 -0.7554
   44MOL   O15313139   7.130   4.329   2.467  0.1338 -0.3389  0.1141
   44MOL   C15413140   7.167   4.246   2.566 -0.5722  0.4678  0.1503
   44MOL   O15513141   7.281   4.203   2.594  0.1996 -0.3858 -0.2574
   44MOL   C15613142   7.042   4.178   2.632 -0.6513  0.1303 -0.0644
   44MOL   C15713143   7.088   4.065   2.722 -0.1970 -0.5254 -0.2347
   44MOL   C15813144   7.268   4.335   2.259 -0.6751 -0.5729  0.0001
   44MOL   H15913145   7.333   4.384   2.455 -1.1244 -0.6723  2.1110
   44MOL   H16013146   7.000   4.256   2.697  3.7350  2.0854  0.5881
   44MOL   H16113147   6.976   4.144   2.552 -0.4857  1.5002 -0.8012
   44MOL   H16213148   7.173   4.010   2.683  0.8583  1.5852 -1.0032
   44MOL   H16313149   7.115   4.115   2.815  1.2908  1.6014 -1.7643
   44MOL   H16413150   7.005   3.999   2.750 -0.6609  1.0209  2.2255
   44MOL   H16513151   7.346   4.396   2.214 -1.0498  0.1146  0.2759
   44MOL   H16613152   7.320   4.240   2.272 -2.4668 -1.3786  1.5559
   44MOL   C16713153   7.144   4.333   2.172 -0.3764 -0.6892  0.9317
   44MOL   O16813154   7.172   4.338   2.033 -0.2890 -0.2810  0.0531
   44MOL   C16913155   7.204   4.460   1.980 -0.0276 -0.6013  0.5172
   44MOL   O17013156   7.202   4.564   2.043  0.0136 -0.4217 -0.4269
   44MOL   C17113157   7.235   4.458   1.831 -0.0180  0.0594  0.8319
   44MOL   C17213158   7.291   4.326   1.790 -0.5458 -0.0623  0.3469
   44MOL   C17313159   7.063   4.199   2.181  0.2395 -0.2029  0.2215
   44MOL   H17413160   7.082   4.417   2.203  0.8335  0.0350  1.4410
   44MOL   H17513161   7.147   4.478   1.770 -0.9637 -0.6925  1.9138
   44MOL   H17613162   7.298   4.545   1.813  0.5502 -0.6500 -0.7179
   44MOL   H17713163   7.319   4.324   1.685  1.8375  2.6265  0.8689
   44MOL   H17813164   7.371   4.280   1.848 -2.2217 -3.0174  0.4223
   44MOL   H17913165   7.214   4.250   1.801  2.3353 -2.9933  0.7449
   44MOL   H18013166   7.122   4.118   2.138  1.2615  0.3722  0.5421
   44MOL   H18113167   7.052   4.161   2.283  1.2237 -0.5458  0.2042
   44MOL   C18213168   6.921   4.218   2.116  0.5776 -0.0461  0.8445
   44MOL   O18313169   6.870   4.091   2.073 -0.4229  0.6705  0.2215
   44MOL   C18413170   6.910   4.032   1.960  0.0001  0.0817  0.0770
   44MOL   O18513171   7.010   4.060   1.893 -0.2721  0.0578  1.4254
   44MOL   C18613172   6.828   3.912   1.921 -0.0981  0.2734 -0.6977
   44MOL   C18713173   6.796   3.819   2.046  0.2608 -0.7363  1.2295
   44MOL   C18813174   6.823   4.289   2.217  0.0061 -0.1002 -0.5503
   44MOL   H18913175   6.938   4.292   2.037  2.5790 -0.4166  0.9074
   44MOL   H19013176   6.738   3.939   1.864 -0.6314 -0.7377 -0.3369
   44MOL   H19113177   6.886   3.861   1.844  0.2520  1.9129 -1.5567
   44MOL   H19213178   6.749   3.866   2.133  1.0972  1.1236  0.7184
   44MOL   H19313179   6.724   3.740   2.025 -0.3965  0.0753  0.3968
   44MOL   H19413180   6.892   3.776   2.076  1.4825 -1.0409 -2.7514
   44MOL   H19513181   6.755   4.216   2.261  0.7755  0.6503  1.9697
   44MOL   H19613182   6.889   4.323   2.297  0.5598 -2.6056  0.1149
   44MOL   C19713183   6.735   4.402   2.150 -0.0575  1.1766 -0.0196
   44MOL   O19813184   6.814   4.490   2.074  0.0947 -0.8518 -0.1381
   44MOL   C19913185   6.860   4.605   2.118 -0.0111 -0.1678  0.0698
   44MOL   O20013186   6.897   4.627   2.237 -0.0929 -0.1329 -0.8359
   44MOL   C20113187   6.874   4.704   1.997 -0.2006 -0.7078 -0.1755
   44MOL   C20213188   6.809   4.842   2.022 -0.0023 -0.3121  0.1842
   44MOL   C20313189   6.616   4.356   2.065 -0.7445 -0.3913 -0.1937
   44MOL   H20413190   6.683   4.455   2.230  0.7618 -2.4217  3.0466
   44MOL   H20513191   6.974   4.708   1.956  0.2611 -1.8373  0.8184
   44MOL   H20613192   6.811   4.659   1.920 -2.6533  2.2428 -0.0032
   44MOL   H20713193   6.843   4.877   2.120 -2.7180  1.3581  0.5772
   44MOL   H20813194   6.844   4.919   1.954 -1.2107  0.7640  0.7685
   44MOL   H20913195   6.700   4.847   2.023  0.0149  0.5840  2.4195
   44MOL   H21013196   6.569   4.427   1.997 -1.8096 -0.9312 -0.0236
   44MOL   H21113197   6.644   4.272   2.001 -2.4140  0.0224 -1.4818
   44MOL   C21213198   6.508   4.288   2.147 -0.2887 -0.1672 -0.3886
   44MOL   O21313199   6.454   4.373   2.245  0.1086  0.0584 -0.3794
   44MOL   C21413200   6.470   4.350   2.377  0.0195  0.1012 -0.6963
   44MOL   O21513201   6.513   4.252   2.430  0.6771  0.6879  0.2576
   44MOL   C21613202   6.409   4.465   2.457  0.1576 -0.6538  0.2021
   44MOL   C21713203   6.282   4.518   2.381 -0.2193  0.1909 -0.1268
   44MOL   C21813204   6.397   4.231   2.066  0.2025  0.5361  0.8151
   44MOL   H21913205   6.553   4.204   2.201  0.7617  0.9901  0.5540
   44MOL   H22013206   6.386   4.409   2.549 -1.7738  0.6229  0.5300
   44MOL   H22113207   6.480   4.543   2.484  3.4886 -2.4254 -3.0098
   44MOL   H22213208   6.222   4.434   2.347  0.0098 -0.0083 -0.0344
   44MOL   H22313209   6.213   4.566   2.451 -0.5356  0.3720 -0.5601
   44MOL   H22413210   6.308   4.597   2.311 -1.4495  0.1015 -0.6997
   44MOL   H22513211   6.349   4.311   2.010  0.9913  2.2030  2.4536
   44MOL   H22613212   6.444   4.176   1.985  0.8876 -1.5465  2.5976
   44MOL   C22713213   6.296   4.139   2.139 -0.3305  0.2647 -0.2526
   44MOL   O22813214   6.206   4.081   2.046 -0.1989 -0.1576 -0.1868
   44MOL   C22913215   6.080   4.121   2.036  0.0157  0.3505  0.1229
   44MOL   O23013216   6.024   4.204   2.111  0.0539 -0.4273  0.0422
   44MOL   C23113217   6.003   4.042   1.932 -0.1007  0.0642  0.0408
   44MOL   C23213218   6.060   4.047   1.792  0.1813 -0.5189 -0.9912
   44MOL   C23313219   6.379   4.013   2.197  0.0916 -0.2999  0.0985
   44MOL   H23413220   6.243   4.186   2.222  1.8234 -0.0104  1.3268
   44MOL   H23513221   5.989   3.944   1.977 -2.3188 -0.2002 -1.1217
   44MOL   H23613222   5.901   4.083   1.928  0.2509  1.1937  2.0565
   44MOL   H23713223   6.152   4.105   1.778  0.6547 -0.3450  2.3686
   44MOL   H23813224   6.074   3.947   1.752 -0.9306 -0.5279 -1.3650
   44MOL   H23913225   5.992   4.093   1.720 -1.3986  1.8068  1.8836
   44MOL   H24013226   6.438   3.968   2.117  0.3985 -0.4037  0.3797
   44MOL   H24113227   6.455   4.037   2.272 -1.3792  3.1872  0.5541
   44MOL   C24213228   6.294   3.904   2.269 -0.1638  0.3051 -0.1779
   44MOL   O24313229   6.258   3.803   2.180  0.3555  0.4086 -0.2811
   44MOL   C24413230   6.126   3.776   2.154  0.1691  0.3871  0.4003
   44MOL   O24513231   6.038   3.811   2.226  0.6788  0.1931 -0.3152
   44MOL   C24613232   6.116   3.680   2.040 -0.0490  0.5712 -0.3531
   44MOL   C24713233   6.191   3.548   2.060 -0.0107 -0.6014  0.5990
   44MOL   C24813234   6.369   3.846   2.393 -0.0979 -0.6622 -1.1061
   44MOL   H24913235   6.206   3.956   2.307 -1.5911 -1.6794 -0.6908
   44MOL   H25013236   6.011   3.671   2.009 -0.7560  2.4716  1.3593
   44MOL   H25113237   6.162   3.726   1.953 -0.9754 -0.6589 -1.5166
   44MOL   H25213238   6.177   3.503   2.158 -1.9307 -1.4233 -0.0461
   44MOL   H25313239   6.188   3.472   1.983 -2.0535  1.4629 -1.4287
   44MOL   H25413240   6.295   3.580   2.073 -1.1610  3.4480  0.7346
   44MOL   H25513241   6.380   3.927   2.465  2.1259  0.0381 -2.1950
   44MOL   H25613242   6.297   3.777   2.437  0.0647  0.2700  0.7103
   44MOL   C25713243   6.497   3.777   2.370 -0.2241 -0.0304  0.2872
   44MOL   O25813244   6.592   3.797   2.471  0.1141 -0.0007  0.0948
   44MOL   C25913245   6.677   3.905   2.472  0.3706 -0.2447 -0.5006
   44MOL   O26013246   6.687   3.992   2.385  0.6728 -0.0159  0.4543
   44MOL   C26113247   6.777   3.891   2.583 -0.4368 -0.2881 -0.1161
   44MOL   C26213248   6.881   3.785   2.549 -0.0128  0.0632 -0.2311
   44MOL   C26313249   6.472   3.624   2.345 -0.5933  0.1991  0.0434
   44MOL   H26413250   6.535   3.816   2.275  0.6302 -2.5118 -0.4285
   44MOL   H26513251   6.820   3.991   2.590 -0.5974 -0.0934 -1.7640
   44MOL   H26613252   6.731   3.878   2.681 -0.7305  3.0223  0.2484
   44MOL   H26713253   6.940   3.751   2.634  0.3280  1.7745  0.2308
   44MOL   H26813254   6.834   3.692   2.515 -2.1328  0.7305  0.7450
   44MOL   H26913255   6.953   3.823   2.477  0.3270  0.0088  0.0779
   44MOL   H27013256   6.400   3.602   2.266 -0.1101  1.5544 -0.7839
   44MOL   H27113257   6.566   3.587   2.304 -1.8850 -1.5677 -1.3807
   44MOL   C27213258   6.430   3.546   2.467  0.3330  0.9423  0.1621
   44MOL   O27313259   6.294   3.514   2.453 -0.2199 -0.3120  0.5311
   44MOL   C27413260   6.209   3.524   2.562  0.5644  0.0417  0.8681
   44MOL   O27513261   6.246   3.556   2.676 -0.4773  0.4406 -0.1642
   44MOL   C27613262   6.070   3.469   2.543  0.4406 -0.7808  0.0703
   44MOL   C27713263   5.963   3.524   2.631  0.2800 -0.2500 -0.5130
   44MOL   C27813264   6.512   3.415   2.502 -0.0034 -0.7787  0.0363
   44MOL   H27913265   6.445   3.619   2.546 -3.4442  0.2878  1.6268
   44MOL   H28013266   6.038   3.500   2.443  0.5095 -1.0491 -0.0368
   44MOL   H28113267   6.089   3.362   2.539  0.5012 -0.7332 -1.1996
   44MOL   H28213268   5.950   3.475   2.727  0.7540  0.6492  0.0153
   44MOL   H28313269   5.980   3.629   2.653 -3.3951  0.0782  1.1758
   44MOL   H28413270   5.867   3.533   2.579 -0.3195  0.6123  0.7007
   44MOL   H28513271   6.455   3.327   2.474 -0.5872 -0.0358 -1.1863
   44MOL   H28613272   6.608   3.412   2.451  2.3069  4.6040  3.5811
   44MOL   C28713273   6.543   3.417   2.653  0.4779  0.3787  0.5555
   44MOL   O28813274   6.603   3.298   2.698 -0.2974  0.3937 -0.6889
   44MOL   C28913275   6.533   3.181   2.710 -0.5636 -0.1988  0.9381
   44MOL   O29013276   6.414   3.169   2.684  0.3647  0.4462  0.4878
   44MOL   C29113277   6.622   3.057   2.746  0.2326 -0.8154  0.0481
   44MOL   C29213278   6.540   2.925   2.751  0.4050 -0.2310 -0.4755
   44MOL   C29313279   6.625   3.542   2.692  0.0745 -0.3528  0.6698
   44MOL   H29413280   6.453   3.431   2.714 -1.0663 -0.7398 -1.3981
   44MOL   H29513281   6.711   3.060   2.683  0.6958  0.4763  0.7391
   44MOL   H29613282   6.659   3.072   2.848 -1.5820 -0.2557  0.6397
   44MOL   H29713283   6.443   2.938   2.702 -0.4992 -4.6710 -0.1189
   44MOL   H29813284   6.589   2.840   2.704  1.7345  0.9076 -1.1483
   44MOL   H29913285   6.514   2.900   2.854  0.8101 -2.1571 -0.8171
   44MOL   H30013286   6.691   3.507   2.772  0.6398 -1.8358 -0.4179
   44MOL   H30113287   6.683   3.590   2.614  0.6079  1.8515  2.3657
   44MOL   H30213288   6.562   3.622   2.730 -0.0900 -1.8253  3.6773
   45MOL     C113289   6.541   7.102   5.766  0.5740  0.5500  0.2471
   45MOL     O213290   6.500   6.995   5.847  0.3367  0.1328  0.1823
   45MOL     C313291   6.413   7.018   5.948 -0.5897  0.6856  0.4084
   45MOL     O413292   6.369   7.128   5.988  0.1399 -0.3073 -0.1960
   45MOL     C513293   6.369   6.889   6.005 -0.2199  0.6329 -0.4403
   45MOL     C613294   6.253   6.901   6.102  0.9318  0.1678 -0.1241
   45MOL     C713295   6.694   7.104   5.769  0.2294  0.6343  0.1208
   45MOL     H813296   6.504   7.195   5.810  0.8939  1.4180 -1.2973
   45MOL     H913297   6.334   6.814   5.934 -2.5984 -0.6162  1.9406
   45MOL    H1013298   6.451   6.845   6.063 -1.7776  0.6604  1.8385
   45MOL    H1113299   6.172   6.959   6.059 -1.3948 -1.6496  1.6589
   45MOL    H1213300   6.212   6.802   6.124  1.7105 -0.3403 -0.9533
   45MOL    H1313301   6.276   6.943   6.200 -1.4342  1.9616 -0.3117
   45MOL    H1413302   6.734   7.120   5.869  2.3572  0.2753 -0.6465
   45MOL    H1513303   6.721   7.002   5.742  0.3660  0.3698  1.2307
   45MOL    H1613304   6.512   7.077   5.664  1.9191  0.0680 -0.0225
   45MOL    C1713305   6.734   7.211   5.664  0.0903  0.1287 -0.0989
   45MOL    O1813306   6.698   7.342   5.712 -0.0369  0.0929 -0.7263
   45MOL    C1913307   6.593   7.414   5.671  0.2128  0.2609  0.0561
   45MOL    O2013308   6.503   7.368   5.606 -0.4461 -1.0825 -0.4186
   45MOL    C2113309   6.592   7.564   5.716  0.4611 -0.3408 -0.0272
   45MOL    C2213310   6.578   7.573   5.867  0.0891  0.5709  0.5876
   45MOL    C2313311   6.884   7.204   5.629  0.5449  0.2630  0.4469
   45MOL    H2413312   6.680   7.203   5.570  0.7968 -1.1163 -0.4048
   45MOL    H2513313   6.680   7.615   5.675  0.4329  0.0134  0.3534
   45MOL    H2613314   6.511   7.624   5.675 -0.4073 -1.7184 -0.3524
   45MOL    H2713315   6.552   7.677   5.889 -0.6551  0.6992 -0.7773
   45MOL    H2813316   6.500   7.505   5.900  1.4280 -1.0081  0.5450
   45MOL    H2913317   6.671   7.553   5.920  1.1700 -1.2605 -1.8684
   45MOL    H3013318   6.943   7.209   5.721  3.4688 -0.6127 -1.3038
   45MOL    H3113319   6.905   7.108   5.583  1.6459  0.8215 -0.2433
   45MOL    C3213320   6.916   7.314   5.526 -0.6891  0.1969  0.1938
   45MOL    O3313321   7.057   7.326   5.515 -0.3239  0.1490 -0.0445
   45MOL    C3413322   7.124   7.424   5.589  0.2168 -0.0003 -0.8033
   45MOL    O3513323   7.069   7.500   5.665  0.2320 -0.2009 -0.3331
   45MOL    C3613324   7.278   7.417   5.561 -0.3071 -0.2931 -0.2886
   45MOL    C3713325   7.343   7.300   5.627  0.1315  0.0331 -0.3029
   45MOL    C3813326   6.872   7.271   5.392 -0.0764 -0.5052 -0.2895
   45MOL    H3913327   6.879   7.412   5.556  0.7190  1.2109 -1.3279
   45MOL    H4013328   7.282   7.416   5.452  3.2721  1.1731 -0.2438
   45MOL    H4113329   7.317   7.511   5.599  0.0950 -1.2199  1.6164
   45MOL    H4213330   7.294   7.266   5.717  0.3748  0.5995  0.0459
   45MOL    H4313331   7.356   7.218   5.555  0.5538  0.1235 -0.3313
   45MOL    H4413332   7.442   7.330   5.662 -0.9299  1.7788  1.2653
   45MOL    H4513333   6.942   7.199   5.350 -0.8834 -0.8568 -1.0247
   45MOL    H4613334   6.780   7.213   5.399 -0.0102 -0.7280 -1.2088
   45MOL    C4713335   6.873   7.399   5.304 -0.0216  0.7279 -0.6057
   45MOL    O4813336   6.870   7.363   5.170  0.2965  0.3131  0.1898
   45MOL    C4913337   6.970   7.373   5.089 -0.8803  0.9661 -0.1891
   45MOL    O5013338   7.087   7.406   5.119 -0.3190 -0.0044  0.2303
   45MOL    C5113339   6.931   7.315   4.948  0.6266 -0.2351 -0.4323
   45MOL    C5213340   7.045   7.304   4.851  0.4377 -0.6722  0.3736
   45MOL    C5313341   6.749   7.485   5.335 -0.5972 -0.3073 -0.2817
   45MOL    H5413342   6.957   7.467   5.319 -0.2302  1.3082 -2.0210
   45MOL    H5513343   6.880   7.224   4.978  0.5589  0.0059  0.1805
   45MOL    H5613344   6.851   7.376   4.907 -1.6492 -2.5887  0.4199
   45MOL    H5713345   7.095   7.395   4.819  1.4347 -0.6890  1.7783
   45MOL    H5813346   7.118   7.231   4.886  0.9100  0.0106  0.8220
   45MOL    H5913347   7.002   7.252   4.766  0.3404 -1.0009  0.6207
   45MOL    H6013348   6.661   7.422   5.330 -0.2178 -0.8515 -0.1775
   45MOL    H6113349   6.762   7.513   5.439 -0.3426 -2.9124  0.4342
   45MOL    C6213350   6.743   7.622   5.262 -0.0101  0.5481 -0.3843
   45MOL    O6313351   6.872   7.678   5.237 -0.3813 -0.1365 -0.6421
   45MOL    C6413352   6.943   7.740   5.328 -0.5070  0.7956 -0.0559
   45MOL    O6513353   6.920   7.765   5.445 -0.1465 -0.4870 -0.2235
   45MOL    C6613354   7.071   7.796   5.263 -0.0499  0.0882 -0.5595
   45MOL    C6713355   7.045   7.857   5.126 -0.0082  0.0907 -0.2268
   45MOL    C6813356   6.676   7.620   5.125  0.1066 -0.4739  0.1729
   45MOL    H6913357   6.685   7.691   5.323 -1.3373  0.5234 -1.5874
   45MOL    H7013358   7.103   7.870   5.336  1.4479  0.3984 -1.5093
   45MOL    H7113359   7.142   7.714   5.266  0.1044  0.2100 -0.9249
   45MOL    H7213360   6.955   7.918   5.132  0.4352  0.8286 -1.0172
   45MOL    H7313361   7.128   7.923   5.099  2.1589 -1.6622  1.8897
   45MOL    H7413362   7.039   7.788   5.043  0.5401  1.5601 -1.5092
   45MOL    H7513363   6.677   7.722   5.087  1.5874 -0.6808 -0.3485
   45MOL    H7613364   6.741   7.555   5.066  2.9631  1.5601  0.9730
   45MOL    C7713365   6.525   7.582   5.124 -0.7466 -0.1437  0.4594
   45MOL    O7813366   6.453   7.692   5.179 -0.0218 -0.1896  0.1444
   45MOL    C7913367   6.391   7.685   5.298  0.0202 -1.2713  0.4955
   45MOL    O8013368   6.398   7.594   5.380  0.1661  0.6532 -0.0145
   45MOL    C8113369   6.312   7.809   5.321  0.8752  0.1999  0.1049
   45MOL    C8213370   6.247   7.810   5.460 -0.3145  0.6020 -0.3980
   45MOL    C8313371   6.463   7.566   4.988  0.0901 -0.3912  0.5794
   45MOL    H8413372   6.508   7.493   5.184 -0.8784  1.1371  2.3911
   45MOL    H8513373   6.371   7.901   5.311  3.1337 -1.2701 -0.3110
   45MOL    H8613374   6.239   7.815   5.241  0.3670  0.0572  0.5570
   45MOL    H8713375   6.324   7.805   5.536 -0.3909 -3.6354 -0.4620
   45MOL    H8813376   6.178   7.893   5.445 -0.6848  0.1609 -1.2266
   45MOL    H8913377   6.185   7.721   5.474  2.5791 -1.2491  1.1189
   45MOL    H9013378   6.355   7.556   4.998 -0.0123  0.9652  0.9698
   45MOL    H9113379   6.477   7.655   4.927 -0.9369  0.5771  1.7414
   45MOL    C9213380   6.522   7.447   4.919  1.1296  0.4423  0.7524
   45MOL    O9313381   6.527   7.324   4.990  0.4827 -0.1123  0.3649
   45MOL    C9413382   6.420   7.241   5.018 -0.2101 -0.4839  0.1223
   45MOL    O9513383   6.301   7.267   4.995 -0.1170 -0.6730 -0.3834
   45MOL    C9613384   6.454   7.117   5.108 -0.3820  0.4359  0.2487
   45MOL    C9713385   6.418   7.152   5.252  0.1343  0.5865 -0.9150
   45MOL    C9813386   6.467   7.424   4.778  0.1057  0.0388 -1.4603
   45MOL    H9913387   6.626   7.475   4.904  0.7048  1.8464  0.3990
   45MOL   H10013388   6.400   7.027   5.076  2.5469 -1.3094  0.0446
   45MOL   H10113389   6.558   7.087   5.105 -0.4690 -0.0728  1.8529
   45MOL   H10213390   6.425   7.064   5.316 -0.8964  1.0252 -0.1847
   45MOL   H10313391   6.493   7.217   5.295 -0.8896  1.5284 -0.5296
   45MOL   H10413392   6.318   7.194   5.256 -0.1388 -0.1025 -0.3303
   45MOL   H10513393   6.374   7.366   4.777 -1.0215  1.7555 -0.2231
   45MOL   H10613394   6.458   7.522   4.732 -1.8576  0.3602 -0.4427
   45MOL   C10713395   6.578   7.350   4.705 -0.1452  0.1851 -0.6983
   45MOL   O10813396   6.546   7.214   4.695 -0.0458 -0.3951  0.2569
   45MOL   C10913397   6.639   7.112   4.700  0.5394 -0.2418  0.4688
   45MOL   O11013398   6.760   7.121   4.711  0.1662  0.6813 -0.0557
   45MOL   C11113399   6.572   6.976   4.697  0.0663 -0.3841  0.0183
   45MOL   C11213400   6.534   6.934   4.559  0.3488  0.1352  0.3402
   45MOL   C11313401   6.605   7.391   4.559  0.1971 -0.4075  0.0227
   45MOL   H11413402   6.679   7.367   4.743  0.8531 -0.8096 -2.8106
   45MOL   H11513403   6.636   6.904   4.748 -0.7048  0.5960  2.4555
   45MOL   H11613404   6.478   6.977   4.753  0.0239 -0.2227 -0.0552
   45MOL   H11713405   6.472   7.012   4.515 -0.2809 -1.2041 -1.2152
   45MOL   H11813406   6.625   6.925   4.500 -0.1360  0.3851 -0.4485
   45MOL   H11913407   6.476   6.842   4.572 -1.0791  0.9363 -0.2581
   45MOL   H12013408   6.678   7.320   4.520 -2.2105 -2.1531 -1.4281
   45MOL   H12113409   6.508   7.376   4.512  0.4032 -1.0105 -0.2139
   45MOL   C12213410   6.665   7.536   4.549 -0.3171 -0.4023  0.0504
   45MOL   O12313411   6.766   7.559   4.647  0.4500  0.5777  0.2427
   45MOL   C12413412   6.758   7.651   4.747 -0.7166  0.6328  0.4199
   45MOL   O12513413   6.671   7.733   4.767  0.9687 -0.0267 -0.5547
   45MOL   C12613414   6.886   7.665   4.831  0.4820 -0.2272  1.2011
   45MOL   C12713415   6.998   7.740   4.751 -0.2651  0.6997 -0.1283
   45MOL   C12813416   6.720   7.582   4.410 -0.8501  0.1454  0.5907
   45MOL   H12913417   6.574   7.593   4.570  0.1122  0.7323 -1.1078
   45MOL   H13013418   6.859   7.727   4.917 -0.3020  0.4847  0.4447
   45MOL   H13113419   6.916   7.564   4.859  0.6322  0.3011  2.9874
   45MOL   H13213420   7.069   7.671   4.706 -0.1027  1.5201 -1.1765
   45MOL   H13313421   6.956   7.788   4.662  0.1562 -0.6821 -1.0882
   45MOL   H13413422   7.055   7.817   4.803  0.2932  1.1111 -1.3090
   45MOL   H13513423   6.818   7.539   4.390 -1.2237 -0.0910 -0.7595
   45MOL   H13613424   6.650   7.547   4.334  1.1931 -0.4835 -1.0505
   45MOL   C13713425   6.736   7.732   4.394 -0.5498 -0.0581  0.7631
   45MOL   O13813426   6.782   7.765   4.269  0.0247  1.2810  0.4057
   45MOL   C13913427   6.907   7.815   4.255  0.4320 -0.2724  0.4897
   45MOL   O14013428   6.981   7.850   4.348 -0.2260  0.3500  0.4703
   45MOL   C14113429   6.942   7.842   4.107 -0.3781  0.0909 -0.8783
   45MOL   C14213430   6.979   0.036   4.060  0.2644 -0.2074  0.4219
   45MOL   C14313431   6.601   7.803   4.412 -0.8508  0.4534 -0.5034
   45MOL   H14413432   6.796   7.766   4.479  0.4249  0.8657 -0.2732
   45MOL   H14513433   7.025   7.776   4.081  0.7143  0.8149  0.6685
   45MOL   H14613434   6.859   7.807   4.046  0.3621 -0.9661 -1.3018
   45MOL   H14713435   7.051   0.090   4.122  0.6116 -0.8050  0.5349
   45MOL   H14813436   7.021   0.036   3.960  0.0216  0.9911  0.3087
   45MOL   H14913437   6.894   0.104   4.050  0.2582 -0.5252 -1.9873
   45MOL   H15013438   6.519   7.749   4.364 -0.6973 -1.2716  1.1482
   45MOL   H15113439   6.567   7.799   4.516  1.9156  1.3989  0.4798
   45MOL   C15213440   6.608   0.002   4.368 -0.3210 -0.6966 -0.1360
   45MOL   O15313441   6.547   0.008   4.236  0.0705 -0.2741  0.1756
   45MOL   C15413442   6.581   0.102   4.151  0.8330 -0.1427 -0.0337
   45MOL   O15513443   6.665   0.184   4.170  0.1302 -0.2831  0.1173
   45MOL   C15613444   6.512   0.081   4.015  0.2634  0.3509 -0.3234
   45MOL   C15713445   6.566   7.904   3.942  0.2625 -0.4275 -0.6920
   45MOL   C15813446   6.546   0.095   4.462 -0.3180  0.0100 -0.4612
   45MOL   H15913447   6.712   0.036   4.361 -1.4132  2.8571 -0.2467
   45MOL   H16013448   6.405   0.067   4.029 -0.1454  1.3807 -2.2397
   45MOL   H16113449   6.542   0.167   3.956  0.4740  0.5429  0.0576
   45MOL   H16213450   6.675   7.910   3.942  0.1945  1.1022 -0.8261
   45MOL   H16313451   6.533   7.817   3.998  0.7795  0.0424  0.3513
   45MOL   H16413452   6.524   7.917   3.842 -1.9057 -0.2410  0.2178
   45MOL   H16513453   6.606   0.082   4.552 -0.3466 -0.6148 -0.5286
   45MOL   H16613454   6.559   0.198   4.430 -0.9914  0.3824  0.4399
   45MOL   C16713455   6.392   0.071   4.486  0.2829 -0.2050  0.4753
   45MOL   O16813456   6.361   0.099   4.618  0.0374  0.1501  0.3493
   45MOL   C16913457   6.359   0.001   4.701 -0.5802  0.2723 -0.5521
   45MOL   O17013458   6.370   7.825   4.677  0.4086  0.2482 -0.2567
   45MOL   C17113459   6.327   0.048   4.841 -0.4829  0.0614  0.3633
   45MOL   C17213460   6.203   7.917   4.888 -0.8544 -0.3019  0.0796
   45MOL   C17313461   6.318   0.163   4.394  0.1839 -0.3448 -0.3082
   45MOL   H17413462   6.352   7.925   4.441 -1.2242  2.2433 -3.3670
   45MOL   H17513463   6.411   0.017   4.903  0.6290  1.2603 -0.5085
   45MOL   H17613464   6.311   0.156   4.841 -1.3655 -0.0470  2.2843
   45MOL   H17713465   6.237   7.814   4.879 -0.2383 -0.1612  0.8074
   45MOL   H17813466   6.185   0.005   4.990  0.2740  1.7123 -0.3530
   45MOL   H17913467   6.116   7.934   4.825 -0.3273  0.3297 -0.4730
   45MOL   H18013468   6.340   0.263   4.432 -0.9484 -0.5263  0.8528
   45MOL   H18113469   6.357   0.168   4.292  0.6201  1.4077 -0.0771
   45MOL   C18213470   6.166   0.144   4.388  0.4443 -0.4533  0.1517
   45MOL   O18313471   6.108   0.227   4.491 -0.0405 -0.0241  0.0917
   45MOL   C18413472   6.011   0.166   4.576  0.3262 -0.7174  0.1320
   45MOL   O18513473   5.966   0.057   4.570  0.1602  0.5445 -0.6718
   45MOL   C18613474   5.957   0.268   4.676 -0.3139 -0.3601  0.5790
   45MOL   C18713475   5.956   0.226   4.821 -0.1394  0.1192  0.5572
   45MOL   C18813476   6.104   0.178   4.256 -0.4953 -0.2747 -0.1724
   45MOL   H18913477   6.152   0.036   4.396  0.2412 -0.4380 -0.0037
   45MOL   H19013478   6.021   0.355   4.661 -0.1075 -0.7916 -1.1644
   45MOL   H19113479   5.855   0.288   4.644 -0.1187 -0.1370  0.0787
   45MOL   H19213480   5.904   0.305   4.876 -1.8485 -0.9344  0.5024
   45MOL   H19313481   5.894   0.136   4.829  0.1662 -0.0238  1.3967
   45MOL   H19413482   6.052   0.212   4.870  0.8607 -1.8477 -1.8679
   45MOL   H19513483   6.145   0.113   4.178  0.1197  0.0196 -0.0993
   45MOL   H19613484   5.997   0.159   4.261 -0.6840  0.5937 -0.6978
   45MOL   C19713485   6.113   0.322   4.203  0.1196  0.5243  0.3495
   45MOL   O19813486   6.140   0.323   4.061 -0.0940  0.3110 -0.2576
   45MOL   C19913487   6.262   0.369   4.015  0.6614 -0.3773  0.4035
   45MOL   O20013488   6.363   0.394   4.077 -0.1041  0.0497 -0.1338
   45MOL   C20113489   6.262   0.372   3.858 -0.3397 -0.6080  0.1423
   45MOL   C20213490   6.277   0.232   3.794  0.1454  0.1816 -0.2773
   45MOL   C20313491   5.977   0.401   4.228 -0.3842  0.3849 -0.3565
   45MOL   H20413492   6.188   0.377   4.259  1.0642 -0.1739 -0.2217
   45MOL   H20513493   6.163   0.402   3.825 -0.6020 -1.8478 -0.2210
   45MOL   H20613494   6.332   0.449   3.826  0.7757 -1.0466  1.4820
   45MOL   H20713495   6.261   0.254   3.689  1.7879 -0.4056 -0.6598
   45MOL   H20813496   6.378   0.192   3.796 -1.1084 -3.2187  0.1633
   45MOL   H20913497   6.201   0.158   3.822 -0.2323  0.7975  0.3506
   45MOL   H21013498   5.910   0.360   4.152  0.6911  1.0289 -1.6887
   45MOL   H21113499   5.937   0.372   4.325 -2.8592 -0.2210 -1.5168
   45MOL   C21213500   5.975   0.550   4.215 -0.2586  0.4792 -0.1892
   45MOL   O21313501   5.837   0.593   4.228 -0.6210  0.6219 -0.2246
   45MOL   C21413502   5.757   0.612   4.124 -0.2171  0.1847 -0.4584
   45MOL   O21513503   5.788   0.602   4.003 -0.4317 -0.2500 -0.1530
   45MOL   C21613504   5.619   0.671   4.164  0.3615 -0.3464 -0.6998
   45MOL   C21713505   5.517   0.648   4.055  0.2140 -0.1196  0.7322
   45MOL   C21813506   6.051   0.620   4.334  0.1552 -0.1416  0.0480
   45MOL   H21913507   6.027   0.572   4.122  0.5650  1.3216  0.4615
   45MOL   H22013508   5.580   0.619   4.251  1.3611  0.2491  0.1181
   45MOL   H22113509   5.620   0.778   4.185  0.2575 -0.2573 -1.1373
   45MOL   H22213510   5.537   0.713   3.970  3.7422  0.2314  1.7500
   45MOL   H22313511   5.509   0.546   4.018 -2.4131  0.4426 -0.3416
   45MOL   H22413512   5.422   0.685   4.092 -0.2886 -1.6982  1.0646
   45MOL   H22513513   5.981   0.646   4.414  0.6739  0.4224  0.3185
   45MOL   H22613514   6.126   0.560   4.385  0.1675 -1.0537 -1.0154
   45MOL   C22713515   6.109   0.755   4.280 -0.1668 -0.9208 -0.5846
   45MOL   O22813516   6.006   0.841   4.235  0.1879  1.5602  0.0937
   45MOL   C22913517   6.001   0.898   4.109 -0.5006  0.1886  0.5442
   45MOL   O23013518   6.070   0.856   4.014  0.1904 -0.0920  0.3385
   45MOL   C23113519   5.884   0.999   4.096  0.0695 -0.3466 -0.2676
   45MOL   C23213520   5.829   0.995   3.958  0.2155 -0.5894  0.1134
   45MOL   C23313521   6.176   0.837   4.389 -0.4134  0.1549 -0.0101
   45MOL   H23413522   6.176   0.726   4.199  2.5065 -0.2620  1.3187
   45MOL   H23513523   5.809   0.977   4.172  1.5362  2.6610  2.1673
   45MOL   H23613524   5.915   1.102   4.112 -0.8413 -0.0805 -0.2445
   45MOL   H23713525   5.765   1.076   3.922  2.3088  0.4788 -1.3158
   45MOL   H23813526   5.907   1.000   3.883 -0.5888 -0.5197 -0.7263
   45MOL   H23913527   5.763   0.909   3.945 -0.6074 -0.1624  1.2993
   45MOL   H24013528   6.194   0.938   4.351 -1.3047  0.5719  0.6674
   45MOL   H24113529   6.100   0.856   4.465  1.2939  0.6408  1.6125
   45MOL   C24213530   6.304   0.768   4.438 -0.1000 -0.4415 -0.1910
   45MOL   O24313531   6.392   0.772   4.327 -0.7450  0.3667 -0.4762
   45MOL   C24413532   6.488   0.678   4.298 -0.5067  0.1474 -0.2189
   45MOL   O24513533   6.518   0.579   4.364  0.5246  0.1058  0.2568
   45MOL   C24613534   6.558   0.712   4.169 -0.8539 -0.0915  0.7483
   45MOL   C24713535   6.467   0.746   4.048  0.0048 -0.7072  0.0646
   45MOL   C24813536   6.363   0.838   4.562 -0.0938  0.2349 -0.5591
   45MOL   H24913537   6.281   0.666   4.469  1.8604 -0.0363  2.7607
   45MOL   H25013538   6.606   0.807   4.192 -0.5811  0.1553 -0.7518
   45MOL   H25113539   6.645   0.650   4.146  0.6111  0.9147  3.3561
   45MOL   H25213540   6.399   0.830   4.059 -1.1657 -1.1470 -3.2790
   45MOL   H25313541   6.525   0.761   3.956 -1.0786 -4.7148 -1.3927
   45MOL   H25413542   6.407   0.663   4.010  0.6707 -0.0776 -2.4947
   45MOL   H25513543   6.463   0.796   4.575 -0.0998  0.3241 -0.2099
   45MOL   H25613544   6.371   0.944   4.537 -1.3068  0.5778  0.4624
   45MOL   C25713545   6.279   0.804   4.690 -0.6567  0.4261 -0.4931
   45MOL   O25813546   6.320   0.675   4.742  0.0254  0.0911  0.2441
   45MOL   C25913547   6.243   0.568   4.710 -0.8489  0.1936 -0.0773
   45MOL   O26013548   6.129   0.576   4.659 -0.0529 -0.5123  0.3832
   45MOL   C26113549   6.301   0.440   4.763 -0.0343 -0.0554  0.0234
   45MOL   C26213550   6.439   0.410   4.716  0.4993 -1.0429  0.3918
   45MOL   C26313551   6.324   0.905   4.797  0.2928  0.0311 -0.2089
   45MOL   H26413552   6.171   0.802   4.696 -0.7093  2.1478 -0.8794
   45MOL   H26513553   6.311   0.439   4.872 -0.9007 -0.8741  0.0997
   45MOL   H26613554   6.225   0.368   4.735  0.7510 -0.7026 -0.4498
   45MOL   H26713555   6.474   0.338   4.790  0.0666 -1.1470  0.4987
   45MOL   H26813556   6.442   0.361   4.619 -1.1339  2.9785 -1.8454
   45MOL   H26913557   6.499   0.501   4.708 -2.0822  0.5219 -2.2857
   45MOL   H27013558   6.432   0.915   4.809  0.3781 -0.7283 -0.3418
   45MOL   H27113559   6.298   1.004   4.760 -1.2524 -0.6387 -0.9677
   45MOL   C27213560   6.246   0.917   4.929  0.5422 -0.3292 -0.2647
   45MOL   O27313561   6.303   0.826   5.028 -0.1826 -0.0303 -0.1608
   45MOL   C27413562   6.233   0.730   5.086  0.0805  0.3932 -0.3628
   45MOL   O27513563   6.123   0.693   5.049  0.1370 -0.5095 -0.2085
   45MOL   C27613564   6.293   0.690   5.222  1.3537  0.2139 -0.1686
   45MOL   C27713565   6.299   0.799   5.320  0.1768 -0.4314  0.4106
   45MOL   C27813566   6.263   1.056   4.977  0.7321  0.9732 -0.0235
   45MOL   H27913567   6.142   0.891   4.907  0.1908  0.8790 -0.0709
   45MOL   H28013568   6.239   0.601   5.252 -0.9734  0.7717 -2.5208
   45MOL   H28113569   6.395   0.662   5.197  1.3022 -0.5762  0.5070
   45MOL   H28213570   6.197   0.820   5.351 -0.2080 -0.3275 -0.9370
   45MOL   H28313571   6.352   0.770   5.411  3.0360 -1.4325 -1.4807
   45MOL   H28413572   6.340   0.896   5.291  0.5506 -0.5473  0.5409
   45MOL   H28513573   6.359   1.078   5.023  0.9689 -2.6399  1.4206
   45MOL   H28613574   6.246   1.132   4.901 -1.2316 -0.1907 -0.7980
   45MOL   C28713575   6.164   1.081   5.092  0.4858  0.4896  0.1785
   45MOL   O28813576   6.180   1.214   5.121 -0.3298  0.5354 -0.7794
   45MOL   C28913577   6.251   1.253   5.227  0.1631 -0.0001  0.9329
   45MOL   O29013578   6.326   1.181   5.296 -0.3669 -0.2882  0.3284
   45MOL   C29113579   6.236   1.404   5.247 -0.2892 -0.0345 -0.1206
   45MOL   C29213580   6.096   1.437   5.309  0.3475  0.1033 -0.6236
   45MOL   C29313581   6.013   1.057   5.063  0.0335 -0.3125  0.0807
   45MOL   H29413582   6.188   1.012   5.172 -2.2709  0.3589  0.9455
   45MOL   H29513583   6.311   1.450   5.312  0.7863  2.2145 -2.8489
   45MOL   H29613584   6.243   1.458   5.153 -0.6574 -0.7653 -0.5679
   45MOL   H29713585   6.021   1.393   5.243  2.8075 -1.3205 -2.6131
   45MOL   H29813586   6.086   1.378   5.400 -0.2357  1.3652  0.1453
   45MOL   H29913587   6.076   1.543   5.327 -1.8376 -0.2489 -0.8281
   45MOL   H30013588   5.959   1.121   4.993 -0.1805 -1.2217 -0.5928
   45MOL   H30113589   5.984   0.957   5.032 -1.6177 -0.8411  3.1736
   45MOL   H30213590   5.965   1.073   5.159 -0.1972 -1.6040  0.1884
   46MOL     C113591   6.490   5.263   7.099  0.4003  0.0126  0.4591
   46MOL     O213592   6.530   5.231   6.970  0.0830 -0.0962 -0.5714
   46MOL     C313593   6.546   5.336   6.884 -1.2485  0.3004  0.8635
   46MOL     O413594   6.524   5.456   6.911  0.5639  0.3273  0.5046
   46MOL     C513595   6.570   5.290   6.738  0.1773  0.0691 -0.2012
   46MOL     C613596   6.713   5.309   6.695  0.4642  0.1651  0.2116
   46MOL     C713597   6.592   5.315   7.201 -0.2669 -0.3251 -0.1093
   46MOL     H813598   6.446   5.170   7.136 -0.5277  0.4038  0.3669
   46MOL     H913599   6.538   5.187   6.723 -0.9438  0.4749 -0.7026
   46MOL    H1013600   6.511   5.354   6.672 -1.5005  0.9569  2.0936
   46MOL    H1113601   6.782   5.249   6.754 -0.2843  0.4283  1.3771
   46MOL    H1213602   6.716   5.284   6.588  0.0662 -0.9083  0.4455
   46MOL    H1313603   6.756   5.408   6.711  1.7377 -0.1864 -0.8847
   46MOL    H1413604   6.657   5.391   7.158 -0.2844 -0.6619 -0.7424
   46MOL    H1513605   6.539   5.350   7.290 -0.6625 -2.2654  0.4636
   46MOL    H1613606   6.404   5.331   7.102  1.2392  1.0567  1.6906
   46MOL    C1713607   6.693   5.198   7.247  0.0278 -0.5486  0.3745
   46MOL    O1813608   6.818   5.233   7.298 -0.2697  0.2573 -0.5010
   46MOL    C1913609   6.923   5.265   7.213  0.2595 -0.1805 -0.6073
   46MOL    O2013610   6.905   5.277   7.093  0.3666 -0.4607  0.2317
   46MOL    C2113611   7.055   5.309   7.278 -0.2209  0.4947  0.2024
   46MOL    C2213612   7.177   5.227   7.243  0.0149  0.2018  0.1017
   46MOL    C2313613   6.632   5.114   7.357 -0.1276 -0.0342 -0.2789
   46MOL    H2413614   6.708   5.132   7.162 -2.2377  0.0410 -0.5117
   46MOL    H2513615   7.071   5.414   7.252  2.9792  0.4039  1.6593
   46MOL    H2613616   7.025   5.298   7.383  3.0333 -0.8257  1.0344
   46MOL    H2713617   7.252   5.246   7.319 -1.1378  0.7793  1.1017
   46MOL    H2813618   7.158   5.120   7.228  1.3058  0.0518 -0.5849
   46MOL    H2913619   7.215   5.263   7.147 -0.1928 -1.3928 -0.6015
   46MOL    H3013620   6.628   5.181   7.442  1.6374 -0.0013 -0.2022
   46MOL    H3113621   6.530   5.102   7.322  0.4219 -0.6281 -1.7236
   46MOL    C3213622   6.707   4.983   7.388 -0.5090 -0.3863 -0.1815
   46MOL    O3313623   6.807   4.986   7.489  0.1107  0.2149 -0.0526
   46MOL    C3413624   6.930   4.941   7.464  0.3952  0.0163  0.3852
   46MOL    O3513625   6.992   4.924   7.354 -0.0468 -0.4572 -0.2046
   46MOL    C3613626   6.996   4.916   7.598 -0.0336  0.2171  0.1829
   46MOL    C3713627   7.013   5.041   7.688  0.3516 -0.5710 -0.1689
   46MOL    C3813628   6.599   4.890   7.435 -0.3972 -0.4472 -0.0971
   46MOL    H3913629   6.744   4.950   7.291 -2.1629  1.8848 -1.6416
   46MOL    H4013630   6.918   4.857   7.646  0.9736 -0.8487  0.5578
   46MOL    H4113631   7.082   4.850   7.590  0.7127  1.0284  1.2364
   46MOL    H4213632   7.059   5.014   7.784  0.3580  2.0336  0.5980
   46MOL    H4313633   7.063   5.124   7.639  0.9097 -1.1739 -0.6235
   46MOL    H4413634   6.920   5.088   7.719  0.5350 -1.8103  2.4549
   46MOL    H4513635   6.544   4.946   7.510 -0.7007 -0.7841 -0.0643
   46MOL    H4613636   6.523   4.879   7.358 -0.8463 -1.1189  0.4239
   46MOL    C4713637   6.624   4.743   7.465  0.1681  0.3230  0.2794
   46MOL    O4813638   6.507   4.699   7.527 -0.2302 -0.4809  0.1715
   46MOL    C4913639   6.505   4.673   7.665  0.2810  0.3679  0.1623
   46MOL    O5013640   6.601   4.680   7.742 -1.0930  0.3022 -0.8362
   46MOL    C5113641   6.363   4.646   7.723  0.1524  0.7483  0.0397
   46MOL    C5213642   6.344   4.523   7.805 -0.1617  0.4611  0.1649
   46MOL    C5313643   6.654   4.651   7.344  0.4035  0.2274  0.9283
   46MOL    H5413644   6.703   4.736   7.541  3.7756  0.9867 -3.2195
   46MOL    H5513645   6.334   4.734   7.779  0.2418  1.0299 -0.3529
   46MOL    H5613646   6.296   4.641   7.637 -0.6058 -1.5247  0.7282
   46MOL    H5713647   6.336   4.448   7.726 -0.0749 -1.8452  2.2585
   46MOL    H5813648   6.419   4.484   7.874 -0.2322 -0.6163 -0.3453
   46MOL    H5913649   6.247   4.533   7.854  0.9541  3.1413  1.9291
   46MOL    H6013650   6.583   4.640   7.261  2.2936 -0.2240 -0.6828
   46MOL    H6113651   6.730   4.696   7.280 -0.8120  0.4015 -0.4305
   46MOL    C6213652   6.705   4.511   7.377  1.0619 -0.6262  0.0979
   46MOL    O6313653   6.590   4.429   7.401 -0.4155  0.0465  0.2948
   46MOL    C6413654   6.606   4.311   7.465  0.0836 -0.3333  0.1675
   46MOL    O6513655   6.711   4.260   7.508  0.0909  0.4062 -0.5526
   46MOL    C6613656   6.468   4.253   7.494  0.1804 -0.5615 -0.2285
   46MOL    C6713657   6.485   4.117   7.559 -0.3172  0.5575 -0.2775
   46MOL    C6813658   6.785   4.459   7.258  0.3467 -0.0856 -0.7076
   46MOL    H6913659   6.772   4.522   7.462 -0.1204 -0.5932  1.0394
   46MOL    H7013660   6.421   4.330   7.554  0.9936  1.5171 -2.1993
   46MOL    H7113661   6.419   4.237   7.398  2.8753  1.7612 -2.0940
   46MOL    H7213662   6.531   4.141   7.655  0.9841 -1.0036 -0.4895
   46MOL    H7313663   6.393   4.064   7.584 -0.3682  0.2694 -1.0389
   46MOL    H7413664   6.554   4.047   7.511  1.3883  0.0483  2.8108
   46MOL    H7513665   6.772   4.351   7.250 -0.6668 -0.2612  2.4466
   46MOL    H7613666   6.734   4.495   7.169 -3.4076 -2.6391  0.2842
   46MOL    C7713667   6.937   4.491   7.267 -0.4151  0.0097 -0.1033
   46MOL    O7813668   6.994   4.428   7.380  0.0321 -0.0320 -0.0075
   46MOL    C7913669   7.046   4.502   7.478 -0.8600 -0.3331 -0.3880
   46MOL    O8013670   7.067   4.627   7.483 -0.4047 -0.0806  0.2465
   46MOL    C8113671   7.082   4.406   7.591  0.2089  0.1231 -0.0666
   46MOL    C8213672   7.172   4.471   7.700  0.6065 -0.1194  0.1348
   46MOL    C8313673   7.026   4.457   7.139  0.3374 -0.0939 -0.5962
   46MOL    H8413674   6.935   4.600   7.279  3.1048 -0.0682  1.8316
   46MOL    H8513675   6.981   4.386   7.625  0.9292 -1.3759  1.2521
   46MOL    H8613676   7.131   4.317   7.550  0.4788  1.0550 -1.8568
   46MOL    H8713677   7.172   4.402   7.785 -0.1252 -0.2211  0.0566
   46MOL    H8813678   7.274   4.481   7.665 -0.0904  1.8025 -1.4372
   46MOL    H8913679   7.144   4.574   7.723  0.9035 -0.0365  0.1255
   46MOL    H9013680   7.048   4.351   7.128  1.4848 -0.0438  0.9722
   46MOL    H9113681   6.967   4.479   7.050  2.4117  0.9694 -1.7309
   46MOL    C9213682   7.154   4.532   7.132  0.1766  0.1628  0.7291
   46MOL    O9313683   7.229   4.495   7.015  0.1685  0.7285  0.2127
   46MOL    C9413684   7.319   4.393   7.031  0.0423 -0.2034 -0.1726
   46MOL    O9513685   7.323   4.316   7.126  0.1513 -0.1205 -0.1817
   46MOL    C9613686   7.414   4.388   6.906  0.8455 -0.8584 -0.0123
   46MOL    C9713687   7.473   4.521   6.866 -0.7765  0.6014 -0.4475
   46MOL    C9813688   7.137   4.682   7.122 -0.4928  0.3729  0.3417
   46MOL    H9913689   7.208   4.511   7.224  2.3704  0.6533 -0.3990
   46MOL   H10013690   7.505   4.331   6.925  1.2916  0.5595  2.3439
   46MOL   H10113691   7.364   4.337   6.824  0.0314  2.1486 -1.4775
   46MOL   H10213692   7.537   4.500   6.780  0.4550 -0.7499  0.7763
   46MOL   H10313693   7.390   4.588   6.845  0.3328  1.5750 -1.8892
   46MOL   H10413694   7.523   4.562   6.954  1.3146  1.3639 -1.9342
   46MOL   H10513695   7.082   4.708   7.031 -1.4232  2.1060  1.3776
   46MOL   H10613696   7.078   4.724   7.203 -0.0051  2.2949 -0.2689
   46MOL   C10713697   7.278   4.753   7.128  0.1559 -0.2966  0.1383
   46MOL   O10813698   7.270   4.885   7.071 -0.1770  0.1308 -0.8485
   46MOL   C10913699   7.326   4.923   6.955  0.0416 -1.0935 -0.3318
   46MOL   O11013700   7.399   4.854   6.881 -1.1230 -0.2015  0.2353
   46MOL   C11113701   7.268   5.057   6.909 -0.2063  0.1833  0.3352
   46MOL   C11213702   7.114   5.070   6.934  0.2024 -0.2426 -0.3071
   46MOL   C11313703   7.336   4.761   7.275  0.2373  0.5922  0.7279
   46MOL   H11413704   7.350   4.697   7.068 -1.5717  0.1337 -2.4272
   46MOL   H11513705   7.314   5.141   6.962  2.2793 -1.2839  0.5473
   46MOL   H11613706   7.286   5.071   6.803 -1.5947  0.6307  0.1408
   46MOL   H11713707   7.094   5.100   7.037  0.1077 -1.3871  0.0120
   46MOL   H11813708   7.060   5.146   6.877  0.6796 -0.3559 -0.9091
   46MOL   H11913709   7.067   4.974   6.914  0.2275 -0.2487 -0.3331
   46MOL   H12013710   7.265   4.809   7.342 -1.1824 -0.8345  0.2919
   46MOL   H12113711   7.338   4.660   7.316  1.9755  0.3568  0.0827
   46MOL   C12213712   7.474   4.826   7.283  0.2118 -0.4093  0.2070
   46MOL   O12313713   7.487   4.882   7.413  0.0389  0.3912  0.3303
   46MOL   C12413714   7.543   5.000   7.432 -0.2175  0.4658 -0.1226
   46MOL   O12513715   7.599   5.074   7.344  0.3325 -0.4048 -0.3911
   46MOL   C12613716   7.521   5.049   7.571 -0.5527 -0.6497  0.8159
   46MOL   C12713717   7.383   5.121   7.585  0.5588  0.6830  0.9030
   46MOL   C12813718   7.590   4.726   7.266  1.4049  0.3458 -0.0304
   46MOL   H12913719   7.482   4.904   7.208  0.4048  1.2821  1.9648
   46MOL   H13013720   7.526   4.964   7.639 -0.2636 -2.2194 -1.1011
   46MOL   H13113721   7.607   5.114   7.587 -0.9647  0.6863 -1.9437
   46MOL   H13213722   7.355   5.212   7.532  0.8574 -0.3108 -1.0234
   46MOL   H13313723   7.307   5.048   7.559  3.8408 -1.8871 -1.9922
   46MOL   H13413724   7.380   5.142   7.692  2.4826  0.9470  0.9324
   46MOL   H13513725   7.601   4.657   7.350 -0.2905  2.0191  1.5998
   46MOL   H13613726   7.568   4.655   7.185 -0.0579 -0.1802  0.8154
   46MOL   C13713727   7.727   4.789   7.237  0.4385 -0.5094  0.2454
   46MOL   O13813728   7.823   4.689   7.259 -0.2175 -0.2602  0.0571
   46MOL   C13913729   7.869   4.646   7.371  0.2069  0.0572 -0.3867
   46MOL   O14013730   7.840   4.691   7.481  0.2115  0.0905  0.2010
   46MOL   C14113731   0.031   4.538   7.352 -0.5707  0.1416 -0.2049
   46MOL   C14213732   0.069   4.471   7.484 -0.4336 -0.4252 -0.3261
   46MOL   C14313733   7.727   4.837   7.084  0.1457  0.7527 -0.5241
   46MOL   H14413734   7.751   4.867   7.308  0.4112 -0.0811 -0.2112
   46MOL   H14513735   7.941   4.463   7.281 -2.8127  1.1611 -0.2137
   46MOL   H14613736   0.122   4.592   7.325  0.6281 -0.7024  2.0492
   46MOL   H14713737   0.079   4.548   7.561 -1.5340  0.7783 -1.3526
   46MOL   H14813738   0.006   4.387   7.514 -1.0291  0.3273  0.5716
   46MOL   H14913739   0.156   4.410   7.462 -1.1581 -1.8630  0.6887
   46MOL   H15013740   7.717   4.747   7.024  0.7914 -0.0637  0.5577
   46MOL   H15113741   7.647   4.904   7.054  0.4724  0.8836 -1.1007
   46MOL   C15213742   7.855   4.919   7.047  0.5206 -0.0690  0.8548
   46MOL   O15313743   7.855   4.931   6.903 -0.0981  0.5842 -0.3550
   46MOL   C15413744   0.020   4.887   6.840  0.3390 -0.2271  0.8670
   46MOL   O15513745   0.130   4.866   6.891 -0.1596  0.2405  0.2773
   46MOL   C15613746   0.004   4.890   6.683  0.3699 -0.0304  0.4340
   46MOL   C15713747   7.849   4.786   6.638  0.1895 -0.1062 -0.7474
   46MOL   C15813748   7.887   5.051   7.121 -0.3527 -0.2261  0.8998
   46MOL   H15913749   7.935   4.851   7.074 -0.7986 -0.9977  2.4938
   46MOL   H16013750   7.916   4.984   6.637 -1.1646 -0.9166 -0.3306
   46MOL   H16113751   0.102   4.873   6.639  0.3044  2.3694 -0.7328
   46MOL   H16213752   7.752   4.820   6.672  1.3191  2.7800 -0.2729
   46MOL   H16313753   7.825   4.795   6.533  1.5842  2.3150 -0.8904
   46MOL   H16413754   7.885   4.688   6.671  1.5204  1.0011  1.1630
   46MOL   H16513755   7.917   5.124   7.045 -0.3196  0.0250  1.1516
   46MOL   H16613756   7.798   5.085   7.173 -0.2469 -0.1063  1.0015
   46MOL   C16713757   0.057   5.048   7.233 -0.3826 -0.2166  0.3821
   46MOL   O16813758   0.177   5.017   7.179 -0.6390 -0.0535  0.5937
   46MOL   C16913759   0.244   4.901   7.203 -0.5138 -0.1869  0.3438
   46MOL   O17013760   0.208   4.805   7.271  0.5047  0.4556  0.4010
   46MOL   C17113761   0.380   4.890   7.141  0.0081  0.2055 -0.6569
   46MOL   C17213762   0.484   4.980   7.216 -0.4894  0.1034 -0.2584
   46MOL   C17313763   0.067   5.163   7.335  0.4690  0.4239  0.4733
   46MOL   H17413764   0.027   4.963   7.295 -1.2162 -0.7050 -0.6627
   46MOL   H17513765   0.403   4.785   7.154 -1.1985  0.2754  2.4437
   46MOL   H17613766   0.379   4.917   7.035 -1.6428  0.8582 -0.4949
   46MOL   H17713767   0.581   4.953   7.176 -0.8824 -0.0870 -1.1021
   46MOL   H17813768   0.457   5.081   7.186 -2.4612  0.3307  2.1172
   46MOL   H17913769   0.470   4.974   7.324 -1.7081  0.5869 -0.3761
   46MOL   H18013770   0.082   5.261   7.290 -1.9358  1.3027  1.4790
   46MOL   H18113771   7.915   5.161   7.386  0.2037  0.6416 -0.0302
   46MOL   C18213772   0.178   5.128   7.443  0.1152 -0.3843 -0.0521
   46MOL   O18313773   0.219   5.245   7.512  0.0938 -0.2497  0.5332
   46MOL   C18413774   0.142   5.303   7.602  0.1009 -0.1824  0.1339
   46MOL   O18513775   0.026   5.272   7.637  0.6981  0.0982 -0.1854
   46MOL   C18613776   0.217   5.412   7.679 -0.8050  0.2769  0.0521
   46MOL   C18713777   0.332   5.354   7.763  0.7727 -0.0528 -0.4579
   46MOL   C18813778   0.144   5.004   7.539  0.7539 -0.1332 -0.2685
   46MOL   H18913779   0.271   5.103   7.391  0.3161  1.1611 -0.4606
   46MOL   H19013780   0.253   5.491   7.613  0.9268 -0.0688  0.5619
   46MOL   H19113781   0.146   5.465   7.743 -0.2438 -0.0279  0.9333
   46MOL   H19213782   0.311   5.254   7.801  1.8761 -0.5197 -1.0349
   46MOL   H19313783   0.433   5.371   7.726  1.6353  0.7111  2.0779
   46MOL   H19413784   0.348   5.410   7.856  2.5852 -0.2048 -0.6478
   46MOL   H19513785   0.088   5.034   7.628  0.3393  0.7688 -0.8291
   46MOL   H19613786   0.080   4.941   7.476  1.3434 -0.9751 -0.0418
   46MOL   C19713787   0.271   4.923   7.577  0.6512 -0.2990  0.4653
   46MOL   O19813788   0.361   5.002   7.663 -0.1110 -0.7647 -0.1217
   46MOL   C19913789   0.491   5.016   7.629 -0.0789 -0.3761  0.1256
   46MOL   O20013790   0.550   4.987   7.524  0.4778  0.6388 -0.0024
   46MOL   C20113791   0.577   5.060   7.753 -0.0314 -0.4195  0.4427
   46MOL   C20213792   0.550   4.984   7.881 -0.0775 -0.3707  0.5235
   46MOL   C20313793   0.247   4.793   7.668  0.7315  0.1202  0.4088
   46MOL   H20413794   0.309   4.898   7.477  0.0674  0.7019 -0.0195
   46MOL   H20513795   0.674   5.027   7.718  1.0084  0.4859  2.3834
   46MOL   H20613796   0.583   5.168   7.768  0.2556 -0.4780  0.7561
   46MOL   H20713797   0.507   5.048   0.014  0.2781  0.6003 -0.0783
   46MOL   H20813798   0.470   4.910   7.873 -0.6495  0.2316  0.5677
   46MOL   H20913799   0.640   4.927   7.902  0.6057  0.8437  0.9262
   46MOL   H21013800   0.238   4.826   7.771  1.5722 -0.5179  0.6890
   46MOL   H21113801   0.150   4.747   7.650 -0.3359  2.1470  0.7970
   46MOL   C21213802   0.350   4.681   7.667 -0.0994 -0.0062 -0.1631
   46MOL   O21313803   0.289   4.572   7.725 -0.2831  0.2978  0.8412
   46MOL   C21413804   0.310   4.536   7.855  0.1714  0.5058 -0.0163
   46MOL   O21513805   0.400   4.577   7.926 -0.5864 -0.5459  0.2911
   46MOL   C21613806   0.216   4.428   7.905 -0.2073  0.0747  0.0567
   46MOL   C21713807   0.081   4.431   7.850 -0.3898 -0.2356 -0.6910
   46MOL   C21813808   0.389   4.645   7.523  0.0160  0.8287  0.2870
   46MOL   H21913809   0.438   4.716   7.720 -1.6864  0.3526  2.3050
   46MOL   H22013810   0.263   4.330   7.896 -0.4088 -0.0077 -0.0887
   46MOL   H22113811   0.207   4.450   0.067  1.9581  1.4130  0.0166
   46MOL   H22213812   0.036   4.529   7.835 -0.4367 -0.0519  0.5710
   46MOL   H22313813   0.097   4.380   7.756  0.5144  0.9267 -1.1768
   46MOL   H22413814   0.015   4.375   7.916  0.1747 -0.6001 -0.4328
   46MOL   H22513815   0.299   4.639   7.461 -0.3134  0.1951  0.8126
   46MOL   H22613816   0.444   4.726   7.475 -0.3489  0.6828 -0.3901
   46MOL   C22713817   0.479   4.523   7.511 -0.1925  0.4466  0.5529
   46MOL   O22813818   0.489   4.482   7.374 -0.0122 -0.3388 -0.2035
   46MOL   C22913819   0.480   4.352   7.343 -0.0644  0.1775 -0.5557
   46MOL   O23013820   0.461   4.262   7.424  0.6130  0.0816 -0.1567
   46MOL   C23113821   0.508   4.330   7.203 -0.6338  0.7605  1.2806
   46MOL   C23213822   0.658   4.301   7.169 -0.4262 -0.6342  0.7482
   46MOL   C23313823   0.622   4.523   7.578 -0.2054  0.2578  0.2759
   46MOL   H23413824   0.436   4.444   7.571  0.6537 -1.0578 -0.7841
   46MOL   H23513825   0.443   4.248   7.174 -0.2376  0.9331 -0.1388
   46MOL   H23613826   0.461   4.416   7.154  1.5871  0.6266 -1.2075
   46MOL   H23713827   0.706   4.231   7.237  2.0286 -1.9749 -2.2421
   46MOL   H23813828   0.671   4.272   7.064 -0.1099  1.4583  0.1824
   46MOL   H23913829   0.715   4.393   7.157 -1.5681 -0.0606 -0.4108
   46MOL   H24013830   0.593   4.539   7.682  1.5955 -1.4337  1.0650
   46MOL   H24113831   0.673   4.427   7.569  3.0476  1.8198  1.1505
   46MOL   C24213832   0.718   4.626   7.528  0.1170 -0.2475  0.3545
   46MOL   O24313833   0.847   4.603   7.597 -0.3798 -0.1334  0.5511
   46MOL   C24413834   0.901   4.702   7.679  0.2607 -1.0328  0.0981
   46MOL   O24513835   0.856   4.814   7.700  0.1461 -0.1932  0.1852
   46MOL   C24613836   1.044   4.660   7.723 -0.5607  0.2083  0.4348
   46MOL   C24713837   1.104   4.738   7.840  0.0549 -0.2425 -0.0076
   46MOL   C24813838   0.746   4.618   7.367  0.8599 -0.1383 -0.1378
   46MOL   H24913839   0.687   4.727   7.554  0.6418  0.3426 -1.3048
   46MOL   H25013840   1.042   4.553   7.741 -1.2709 -0.0428 -1.0443
   46MOL   H25113841   1.109   4.676   7.637 -0.9431 -0.0901  0.0910
   46MOL   H25213842   1.103   4.847   7.827  0.6785  0.0219  1.8807
   46MOL   H25313843   1.064   4.709   7.937 -1.2355  1.4476 -0.0052
   46MOL   H25413844   1.208   4.709   7.851  0.1140  0.1805  0.6389
   46MOL   H25513845   0.755   4.514   7.336 -3.7134 -1.4249  2.3726
   46MOL   H25613846   0.656   4.645   7.312 -1.5532 -1.4310  2.9976
   46MOL   C25713847   0.867   4.704   7.324  0.7033 -0.0291  0.2138
   46MOL   O25813848   0.893   4.667   7.195 -0.7101 -1.0048  0.4331
   46MOL   C25913849   1.005   4.610   7.165  0.9294 -0.2207 -0.6671
   46MOL   O26013850   1.082   4.554   7.244 -0.3775 -0.0755 -0.0160
   46MOL   C26113851   1.028   4.603   7.010 -0.3573  0.0035 -0.4983
   46MOL   C26213852   1.172   4.594   6.961  0.7117  0.6972 -0.0775
   46MOL   C26313853   0.846   4.857   7.323 -0.2372  0.4620  0.3019
   46MOL   H26413854   0.956   4.691   7.386  0.4165  2.2315  1.1607
   46MOL   H26513855   0.963   4.523   6.976  0.1000  0.0748 -1.5572
   46MOL   H26613856   0.984   4.692   6.965  0.5566 -0.5581 -2.5779
   46MOL   H26713857   1.231   4.516   7.010  0.3663  0.4877  0.0073
   46MOL   H26813858   1.171   4.570   6.855 -0.3285  0.1447  0.0564
   46MOL   H26913859   1.226   4.688   6.970  4.0845 -1.1158 -0.2637
   46MOL   H27013860   0.780   4.892   7.245 -0.6200 -0.1853  0.3285
   46MOL   H27113861   0.791   4.872   7.416 -1.1922 -0.9070 -0.0255
   46MOL   C27213862   0.980   4.936   7.331  0.1802  0.1283  0.6246
   46MOL   O27313863   1.029   4.952   7.199 -0.1439  0.4629  0.5679
   46MOL   C27413864   1.160   4.939   7.170 -0.4193  0.2036 -0.8389
   46MOL   O27513865   1.254   4.911   7.246  0.2567 -0.6218  0.2140
   46MOL   C27613866   1.183   4.960   7.019  0.1828 -0.2379  0.2794
   46MOL   C27713867   1.177   5.111   6.978  0.1712  0.2678 -0.0016
   46MOL   C27813868   0.954   5.070   7.401 -0.1584 -0.3150  0.4958
   46MOL   H27913869   1.058   4.881   7.384  1.1133  1.0304  0.2123
   46MOL   H28013870   1.275   4.907   6.994  0.6552  0.6969 -0.0331
   46MOL   H28113871   1.111   4.903   6.962 -0.8383 -0.7407  2.0388
   46MOL   H28213872   1.244   5.176   7.035  0.9949 -1.3839  0.9864
   46MOL   H28313873   1.211   5.130   6.876 -0.5176 -0.5052 -0.3812
   46MOL   H28413874   1.075   5.148   6.988 -0.1942 -0.6035 -0.4433
   46MOL   H28513875   0.924   5.146   7.330 -2.1693 -2.8698 -1.4864
   46MOL   H28613876   0.867   5.054   7.465  0.0330 -1.0820  0.5654
   46MOL   C28713877   1.079   5.112   7.482 -0.1999  0.5741 -0.1059
   46MOL   O28813878   1.085   5.252   7.497  0.6091  0.2015  0.0283
   46MOL   C28913879   1.194   5.322   7.454 -0.2772  0.5757 -0.0876
   46MOL   O29013880   1.291   5.283   7.384  0.8936 -0.0648 -0.3547
   46MOL   C29113881   1.178   5.470   7.487 -0.2262 -0.1764  0.2890
   46MOL   C29213882   1.111   5.540   7.370  0.1740 -0.0825 -0.1258
   46MOL   C29313883   1.091   5.042   7.615 -0.0071 -0.8464 -0.1703
   46MOL   H29413884   1.164   5.073   7.425 -1.2484 -0.9985 -0.6371
   46MOL   H29513885   1.105   5.464   7.568 -1.0157  4.1911  0.0463
   46MOL   H29613886   1.272   5.511   7.523 -0.2320  0.4840 -0.4213
   46MOL   H29713887   1.177   5.541   7.283  0.2934 -0.4393 -0.0414
   46MOL   H29813888   1.023   5.489   7.332  1.2578 -2.0593 -0.0446
   46MOL   H29913889   1.091   5.645   7.391 -0.7472 -0.2249 -0.2844
   46MOL   H30013890   1.104   4.935   7.597 -1.6136 -1.1984  0.5979
   46MOL   H30113891   1.178   5.072   7.674  0.7482  0.8774 -2.0954
   46MOL   H30213892   0.998   5.046   7.672 -0.2834  0.7431 -0.7200
   47MOL     C113893   7.370   3.729   3.369  0.0245 -0.0433 -0.2383
   47MOL     O213894   7.377   3.638   3.267 -0.0581  0.2456  0.0678
   47MOL     C313895   7.286   3.620   3.173  0.6202  0.3969  0.2184
   47MOL     O413896   7.181   3.688   3.159 -0.4292  0.4433  0.1461
   47MOL     C513897   7.325   3.521   3.062 -1.0826  0.0883  0.0701
   47MOL     C613898   7.451   3.562   2.976  0.3699  0.1532  0.2046
   47MOL     C713899   7.501   3.800   3.392  0.2123  0.0812 -0.1348
   47MOL     H813900   7.332   3.671   3.453  1.0962  1.3104  1.2314
   47MOL     H913901   7.329   3.423   3.109 -1.3091  0.0299 -0.0291
   47MOL    H1013902   7.236   3.518   2.998 -0.5498 -0.8090 -0.6370
   47MOL    H1113903   7.430   3.570   2.870  0.4343 -1.8610  0.0098
   47MOL    H1213904   7.493   3.661   2.994  3.6757 -0.8410 -1.4974
   47MOL    H1313905   7.530   3.488   2.994 -0.0312 -0.8180 -1.8734
   47MOL    H1413906   7.486   3.879   3.465 -1.3671 -0.9509  0.6962
   47MOL    H1513907   7.584   3.740   3.427  0.9908  1.5494  0.5570
   47MOL    H1613908   7.292   3.801   3.345 -0.9752 -1.0839 -0.1653
   47MOL    C1713909   7.558   3.875   3.266  0.1461 -0.4444  0.0101
   47MOL    O1813910   7.464   3.969   3.225  0.1357 -0.2469  0.1582
   47MOL    C1913911   7.415   3.976   3.098  0.2475  0.5597  0.7737
   47MOL    O2013912   7.460   3.915   2.998  0.2312  0.4616  0.2248
   47MOL    C2113913   7.299   4.069   3.082  0.8043 -0.3243 -1.0310
   47MOL    C2213914   7.171   4.015   3.140 -0.1092 -0.0261  0.5316
   47MOL    C2313915   7.695   3.947   3.279  0.9096  0.2269 -0.4901
   47MOL    H2413916   7.579   3.804   3.186  0.7305 -0.0152 -0.2270
   47MOL    H2513917   7.322   4.168   3.121  0.4539 -0.2101 -1.1090
   47MOL    H2613918   7.279   4.103   2.981  0.4557  0.6377 -0.6486
   47MOL    H2713919   7.157   3.918   3.094 -1.5749  1.3070 -1.9503
   47MOL    H2813920   7.175   4.012   3.249 -0.3941 -0.4860  0.5266
   47MOL    H2913921   7.088   4.066   3.090 -1.3406 -0.6271  1.9365
   47MOL    H3013922   7.685   4.029   3.350 -2.5441  0.0439 -0.6784
   47MOL    H3113923   7.772   3.888   3.328 -0.4656  0.5325  2.1262
   47MOL    C3213924   7.754   4.005   3.148  0.1507  0.1823 -0.1610
   47MOL    O3313925   7.867   4.081   3.187  0.2331 -0.0518  0.6104
   47MOL    C3413926   7.871   4.218   3.184 -0.0325 -0.2612 -0.0608
   47MOL    O3513927   7.778   4.291   3.152 -0.3483  0.5436 -0.0062
   47MOL    C3613928   0.063   4.274   3.197 -0.1486 -0.1894  0.3557
   47MOL    C3713929   0.090   4.352   3.320 -0.1779  0.4089  0.1618
   47MOL    C3813930   7.808   3.881   3.062  0.1558  0.3192 -0.1943
   47MOL    H3913931   7.690   4.063   3.082  2.3031  2.7350 -0.0682
   47MOL    H4013932   0.137   4.193   3.197 -0.0632 -0.1545 -2.1684
   47MOL    H4113933   0.094   4.333   3.111  0.7607  0.6843  1.2641
   47MOL    H4213934   0.156   4.299   3.388 -1.3410 -2.1274 -0.6439
   47MOL    H4313935   0.156   4.437   3.301  2.4404 -1.9145 -1.4726
   47MOL    H4413936   7.941   4.376   3.370 -0.1415 -1.3272  1.0979
   47MOL    H4513937   7.887   3.834   3.121 -0.7353 -0.8786  0.0509
   47MOL    H4613938   7.747   3.791   3.065  1.9710 -1.0497 -2.7188
   47MOL    C4713939   7.841   3.926   2.921  0.6865 -0.2539  0.9817
   47MOL    O4813940   0.003   3.857   2.865  0.2322 -0.1017  0.2204
   47MOL    C4913941   0.124   3.904   2.848  0.6030  0.6936 -0.1302
   47MOL    O5013942   0.156   4.014   2.892 -0.8194  0.4123 -0.4596
   47MOL    C5113943   0.226   3.821   2.765  0.7270 -0.3815  0.1581
   47MOL    C5213944   0.277   3.710   2.849  0.9137 -0.8146  0.0002
   47MOL    C5313945   7.725   3.895   2.818  0.5101 -0.2951  0.7818
   47MOL    H5413946   7.846   4.035   2.925  0.9967 -0.2339  0.1463
   47MOL    H5513947   0.169   3.783   2.680  0.8155  0.8900 -0.4690
   47MOL    H5613948   0.299   3.886   2.719  1.5053  0.6233  2.7120
   47MOL    H5713949   0.353   3.664   2.786  0.5683 -0.9660 -0.3062
   47MOL    H5813950   0.317   3.744   2.945 -1.3148  0.3330  0.5402
   47MOL    H5913951   0.200   3.639   2.876 -0.9724  0.8939 -0.7627
   47MOL    H6013952   7.705   3.789   2.801  0.1541 -0.2303  0.7854
   47MOL    H6113953   7.629   3.938   2.848  0.3889  0.7149 -1.0027
   47MOL    C6213954   7.757   3.953   2.681 -0.3368  0.1093  0.5512
   47MOL    O6313955   7.817   3.844   2.603 -0.4666 -0.1625 -0.3769
   47MOL    C6413956   7.921   3.867   2.530  0.1285  0.2662  0.0882
   47MOL    O6513957   0.045   3.970   2.530 -0.1122 -0.3082  0.5583
   47MOL    C6613958   0.011   3.743   2.452  0.4480 -0.5098  0.4796
   47MOL    C6713959   7.846   3.721   2.358 -0.6193  0.0715  0.5842
   47MOL    C6813960   7.629   3.991   2.604  0.9684  0.4376 -0.1168
   47MOL    H6913961   7.806   4.050   2.689 -0.5375  0.2732 -0.1340
   47MOL    H7013962   0.105   3.754   2.397 -0.2025  0.7171 -0.4110
   47MOL    H7113963   0.018   3.656   2.517 -0.4585  1.0373  2.7058
   47MOL    H7213964   7.749   3.720   2.407 -0.5778 -1.2032  0.6491
   47MOL    H7313965   7.843   3.803   2.287  2.1011 -0.9779 -0.8190
   47MOL    H7413966   7.858   3.632   2.295 -3.9268  0.6317 -0.9465
   47MOL    H7513967   7.562   3.904   2.598  0.6096  0.6942  0.1377
   47MOL    H7613968   7.566   4.063   2.656  1.9020  2.1641 -1.3609
   47MOL    C7713969   7.651   4.050   2.462 -0.1660 -0.4058  0.2236
   47MOL    O7813970   7.523   4.049   2.396 -0.2867 -0.6607 -0.3777
   47MOL    C7913971   7.499   3.972   2.299  0.4251 -0.0446 -0.3793
   47MOL    O8013972   7.585   3.912   2.236 -0.1029 -0.2338  0.5516
   47MOL    C8113973   7.349   3.973   2.273 -0.2333 -0.5687 -0.3878
   47MOL    C8213974   7.295   3.837   2.223 -0.4134  0.2274  0.2779
   47MOL    C8313975   7.709   4.192   2.469  0.2792 -0.2281  0.1711
   47MOL    H8413976   7.724   3.987   2.409 -2.0572  0.1293 -3.1502
   47MOL    H8513977   7.293   4.004   2.361 -0.5186 -1.8874 -0.0977
   47MOL    H8613978   7.314   4.046   2.200  1.2696 -0.2162 -0.7808
   47MOL    H8713979   7.266   3.776   2.309  1.3775 -1.3073 -0.1702
   47MOL    H8813980   7.210   3.863   2.160 -0.0356  1.8408  0.3982
   47MOL    H8913981   7.359   3.783   2.153  0.9763  2.5222 -0.2687
   47MOL    H9013982   7.647   4.253   2.536 -1.9646 -1.5371 -0.6637
   47MOL    H9113983   7.813   4.184   2.500  0.3562 -0.3935 -0.1274
   47MOL    C9213984   7.731   4.258   2.332  0.1565 -0.0708 -0.1293
   47MOL    O9313985   7.774   4.396   2.352  0.4064  0.9634  0.3440
   47MOL    C9413986   7.727   4.502   2.280  0.3435 -0.6557  0.2129
   47MOL    O9513987   7.632   4.495   2.207 -0.0583 -0.3961 -0.3821
   47MOL    C9613988   7.816   4.622   2.301  0.1625 -0.3143  0.1477
   47MOL    C9713989   7.937   4.627   2.204 -0.0201 -0.3743  0.6589
   47MOL    C9813990   7.837   4.181   2.250  0.0982  0.4438  0.6124
   47MOL    H9913991   7.631   4.271   2.291  0.3241 -1.4640 -1.0138
   47MOL   H10013992   7.752   4.707   2.275 -0.1239 -0.5641  0.0223
   47MOL   H10113993   7.847   4.630   2.405 -0.0095 -0.7235  0.2314
   47MOL   H10213994   0.069   4.567   2.254  0.7064 -0.8916 -1.0185
   47MOL   H10313995   7.917   4.576   2.109 -0.7651  2.9820 -1.0560
   47MOL   H10413996   0.037   4.726   2.196  0.8752 -0.8436 -0.3163
   47MOL   H10513997   7.935   4.193   2.295  0.7928  0.3346 -0.8237
   47MOL   H10613998   7.812   4.074   2.245  1.3212  0.0955  1.8539
   47MOL   C10713999   7.850   4.237   2.105 -0.2546 -0.7651 -0.6819
   47MOL   O10814000   0.036   4.203   2.061 -0.0342  0.7823 -0.8890
   47MOL   C10914001   0.106   4.287   1.984  0.4842  0.4289  0.8476
   47MOL   O11014002   0.066   4.392   1.936  0.3575  0.1428 -0.1102
   47MOL   C11114003   0.253   4.248   1.983 -0.0394  0.2727 -0.5819
   47MOL   C11214004   0.325   4.272   2.119  0.2145  0.1415 -0.1626
   47MOL   C11314005   7.737   4.179   2.012 -0.6474  0.1917 -0.5420
   47MOL   H11414006   7.855   4.346   2.109  1.4999 -0.9118  2.5486
   47MOL   H11514007   0.273   4.146   1.949  0.1651  0.1955 -0.2330
   47MOL   H11614008   0.296   4.315   1.909  2.4303  1.1395  1.6109
   47MOL   H11714009   0.432   4.293   2.117  0.1988  0.4301  1.1778
   47MOL   H11814010   0.291   4.361   2.172 -1.2030 -0.5879  0.1844
   47MOL   H11914011   0.325   4.191   2.192  2.8822 -0.9102 -1.2709
   47MOL   H12014012   7.751   4.071   2.008  1.5857  0.3816  1.2812
   47MOL   H12114013   7.643   4.186   2.067 -1.1474 -0.3081 -1.3190
   47MOL   C12214014   7.722   4.232   1.865 -0.0118  1.0699  0.6481
   47MOL   O12314015   7.621   4.145   1.822  0.5027  0.2901 -0.2023
   47MOL   C12414016   7.636   4.084   1.700  0.2485 -0.2080 -0.6607
   47MOL   O12514017   7.724   4.107   1.616 -0.2680  0.3756  0.0257
   47MOL   C12614018   7.545   3.959   1.690  0.3472 -0.5692  0.2250
   47MOL   C12714019   7.583   3.870   1.805 -0.1889  0.5122  0.5260
   47MOL   C12814020   7.686   4.377   1.844  0.2680 -0.0153 -0.3393
   47MOL   H12914021   7.812   4.221   1.806  0.0275 -1.9470  1.1977
   47MOL   H13014022   7.442   3.991   1.702  0.9945  1.5366  0.2597
   47MOL   H13114023   7.544   3.905   1.595 -0.9010  0.8835 -0.6046
   47MOL   H13214024   7.691   3.851   1.801 -0.2026  0.2086  1.5711
   47MOL   H13314025   7.564   3.891   1.910 -0.0690 -1.3252  0.9243
   47MOL   H13414026   7.531   3.779   1.776 -1.0606  0.2148  2.9274
   47MOL   H13514027   7.594   4.405   1.895  1.8754  2.2716  1.4778
   47MOL   H13614028   7.749   4.435   1.912 -0.3792 -0.1443  0.3793
   47MOL   C13714029   7.703   4.445   1.708  0.6006  0.5144 -0.0349
   47MOL   O13814030   7.648   4.574   1.708 -0.0844 -0.2078  0.4610
   47MOL   C13914031   7.536   4.607   1.641  0.3545  0.5273 -0.0157
   47MOL   O14014032   7.469   4.532   1.572  0.4277 -0.2017  0.4674
   47MOL   C14114033   7.506   4.755   1.630  0.5552  0.6173  0.0627
   47MOL   C14214034   7.637   4.840   1.617 -0.0646  0.1694  0.2501
   47MOL   C14314035   7.842   4.447   1.643 -0.5076 -0.6680 -0.7380
   47MOL   H14414036   7.643   4.378   1.647  1.6784 -2.1155  1.7045
   47MOL   H14514037   7.456   4.777   1.536  0.8418 -1.2754 -0.5648
   47MOL   H14614038   7.437   4.783   1.709  0.6355 -1.3656  0.8860
   47MOL   H14714039   7.678   4.892   1.704  0.5379  0.1635 -0.0291
   47MOL   H14814040   7.724   4.779   1.594 -0.2866  0.3324 -1.0323
   47MOL   H14914041   7.642   4.909   1.533  0.0912  1.3128  1.1880
   47MOL   H15014042   7.903   4.517   1.701  0.2133 -2.9852  1.3979
   47MOL   H15114043   7.891   4.350   1.642  0.9498  0.0152  1.1547
   47MOL   C15214044   7.840   4.486   1.496 -0.3157 -0.3385 -0.2782
   47MOL   O15314045   0.029   4.498   1.449  0.4289  0.3067  0.0567
   47MOL   C15414046   0.098   4.620   1.474  0.2968  0.1252 -0.6593
   47MOL   O15514047   0.042   4.721   1.516  0.1138  0.1565  0.4018
   47MOL   C15614048   0.238   4.609   1.428  0.4555 -0.0968 -1.1086
   47MOL   C15714049   0.334   4.716   1.490  0.0058 -0.1299 -0.6888
   47MOL   C15814050   7.760   4.392   1.401  0.4420  0.6270  0.1177
   47MOL   H15914051   7.786   4.580   1.487  0.5592  0.0388 -1.6924
   47MOL   H16014052   0.267   4.507   1.451  0.9236  0.6593  1.8021
   47MOL   H16114053   0.235   4.614   1.319  1.4773 -0.3085 -1.1523
   47MOL   H16214054   0.323   4.813   1.442  2.9486 -0.5293 -2.2540
   47MOL   H16314055   0.302   4.715   1.595  0.0093  1.4813 -0.6690
   47MOL   H16414056   0.439   4.689   1.485  0.5144  1.9002 -1.3169
   47MOL   H16514057   7.836   4.328   1.355 -0.8834  1.0750 -2.7827
   47MOL   H16614058   7.693   4.324   1.454 -2.7121  1.8322 -2.1856
   47MOL   C16714059   7.679   4.486   1.305 -0.0607 -0.7938 -0.4128
   47MOL   O16814060   7.769   4.589   1.240 -0.0270 -0.3509 -0.1324
   47MOL   C16914061   7.736   4.722   1.236  0.1640 -0.6409  1.2148
   47MOL   O17014062   7.626   4.770   1.261 -0.3818  0.2255 -0.2858
   47MOL   C17114063   7.863   4.806   1.187 -0.1850 -0.0619 -0.6590
   47MOL   C17214064   7.832   4.879   1.060  0.2459 -0.2808 -0.3536
   47MOL   C17314065   7.611   4.411   1.190  0.2879 -0.2257  0.0032
   47MOL   H17414066   7.593   4.519   1.363 -1.9836 -1.1725 -2.9201
   47MOL   H17514067   7.886   4.876   1.267  1.5070 -3.1559  1.6640
   47MOL   H17614068   0.003   4.737   1.187  1.4165  1.8627  1.6243
   47MOL   H17714069   7.817   4.812   0.975  3.2224 -0.2520 -0.9355
   47MOL   H17814070   7.749   4.947   1.081  1.5861  1.2355  0.0948
   47MOL   H17914071   7.915   4.941   1.027  0.0883  0.3839  0.4905
   47MOL   H18014072   7.569   4.466   1.106  1.9811  2.5724  0.9349
   47MOL   H18114073   7.687   4.341   1.158  0.1496  0.3914 -1.7011
   47MOL   C18214074   7.495   4.323   1.240 -0.5758  0.1357 -0.4578
   47MOL   O18314075   7.385   4.421   1.263 -0.4897 -0.2396 -0.0869
   47MOL   C18414076   7.285   4.390   1.340  0.8714  0.0258 -0.3081
   47MOL   O18514077   7.271   4.284   1.403  0.3429 -0.1270  0.0232
   47MOL   C18614078   7.183   4.503   1.351 -0.8568  0.5505 -0.1081
   47MOL   C18714079   7.042   4.453   1.370  0.0582 -0.2467  0.0188
   47MOL   C18814080   7.440   4.221   1.140  0.6302  0.0786  0.2583
   47MOL   H18914081   7.529   4.275   1.332 -1.4111 -1.3318 -0.8934
   47MOL   H19014082   7.215   4.539   1.449  0.1717 -1.6538  0.3840
   47MOL   H19114083   7.192   4.582   1.276 -0.7073 -0.6002 -1.3246
   47MOL   H19214084   6.978   4.508   1.438 -0.3767 -1.3422  0.5068
   47MOL   H19314085   6.993   4.450   1.273  2.2460 -0.6090 -1.1109
   47MOL   H19414086   7.034   4.350   1.404  0.2896 -0.2373  0.1066
   47MOL   H19514087   7.335   4.239   1.116  0.7106 -2.2789 -1.9860
   47MOL   H19614088   7.483   4.245   1.043  2.3092 -2.1488  0.4161
   47MOL   C19714089   7.488   4.079   1.171 -0.8855 -0.4600  0.0222
   47MOL   O19814090   7.631   4.097   1.196  0.2422  0.2312 -0.3955
   47MOL   C19914091   7.726   4.014   1.150 -0.3285  0.2601 -0.0842
   47MOL   O20014092   7.714   3.908   1.094  0.2463 -0.2039  0.6038
   47MOL   C20114093   7.866   4.074   1.180  0.8815  0.1934  0.1842
   47MOL   C20214094   7.924   4.004   1.302 -0.1992  0.2187  0.3481
   47MOL   C20314095   7.416   4.002   1.288 -0.0460 -0.4337  0.8013
   47MOL   H20414096   7.463   4.018   1.085 -1.1277  0.4262 -0.5516
   47MOL   H20514097   7.921   4.051   1.089  1.7683  0.4387  0.6522
   47MOL   H20614098   7.866   4.182   1.195 -1.4106  0.5805 -2.2886
   47MOL   H20714099   0.056   4.057   1.357 -0.3774  0.1906  0.6276
   47MOL   H20814100   7.842   3.984   1.371 -0.3112  0.1255  0.1894
   47MOL   H20914101   0.006   3.901   1.277  0.0705  0.2003  0.7123
   47MOL   H21014102   7.465   3.905   1.287 -2.0584 -1.4783 -0.8120
   47MOL   H21114103   7.443   4.044   1.384 -0.5360 -0.2408  0.8585
   47MOL   C21214104   7.264   3.985   1.267  0.0530 -0.3446  0.0868
   47MOL   O21314105   7.235   3.919   1.144  0.4162  0.4328 -0.2092
   47MOL   C21414106   7.132   3.962   1.063  0.0148 -1.2200 -0.1899
   47MOL   O21514107   7.083   4.074   1.069  0.2338  0.5719  0.5309
   47MOL   C21614108   7.074   3.853   0.968 -0.1253 -0.8257  0.0744
   47MOL   C21714109   7.013   3.732   1.048 -0.4467 -0.4980  0.1811
   47MOL   C21814110   7.196   3.903   1.385  0.2866 -1.1204  0.3890
   47MOL   H21914111   7.219   4.083   1.259 -1.7868 -1.1000  0.9074
   47MOL   H22014112   6.997   3.892   0.901 -1.3104 -1.7972  0.8426
   47MOL   H22114113   7.157   3.817   0.908  0.0802  0.2680 -0.3065
   47MOL   H22214114   6.995   3.647   0.983 -2.2613 -0.6394  0.8301
   47MOL   H22314115   7.075   3.713   1.135  0.0329  1.5228  0.3077
   47MOL   H22414116   6.915   3.759   1.088 -0.9160 -1.1279 -0.5442
   47MOL   H22514117   7.208   3.795   1.374  0.1103 -1.2998  1.9566
   47MOL   H22614118   7.234   3.942   1.479 -0.2553  0.1778  0.0836
   47MOL   C22714119   7.043   3.918   1.396  0.6787 -0.2296  0.1420
   47MOL   O22814120   6.992   3.838   1.504 -0.0078 -0.0409 -0.0655
   47MOL   C22914121   6.954   3.713   1.478  0.9282 -0.3596  0.1069
   47MOL   O23014122   6.948   3.661   1.368 -0.2112 -0.3470  0.1630
   47MOL   C23114123   6.918   3.639   1.605  0.6843 -0.5015 -0.6575
   47MOL   C23214124   6.831   3.511   1.579  0.2637 -0.1110 -1.0414
   47MOL   C23314125   7.005   4.065   1.438 -0.3051  0.3306 -0.3281
   47MOL   H23414126   7.006   3.898   1.296 -1.3188  0.6543  0.6817
   47MOL   H23514127   7.015   3.600   1.636  0.6820 -0.0201 -0.0178
   47MOL   H23614128   6.872   3.698   1.685  3.6855 -0.6470  1.2907
   47MOL   H23714129   6.797   3.477   1.676  2.1744  3.2147  0.9076
   47MOL   H23814130   6.744   3.526   1.516 -1.5914 -0.7890  1.2850
   47MOL   H23914131   6.881   3.426   1.534 -0.6266 -1.1472 -0.0911
   47MOL   H24014132   7.042   4.094   1.537  0.0843 -0.3779 -0.2662
   47MOL   H24114133   7.047   4.145   1.377 -1.0059  1.4589  0.6245
   47MOL   C24214134   6.850   4.090   1.448  0.3296  0.4403  0.6127
   47MOL   O24314135   6.824   4.202   1.528  0.7120 -0.3270 -0.1591
   47MOL   C24414136   6.737   4.204   1.624  0.2553  0.5662 -0.7894
   47MOL   O24514137   6.660   4.117   1.665  0.2074 -0.1121  0.5176
   47MOL   C24614138   6.733   4.339   1.700  0.0001  0.0722 -0.1050
   47MOL   C24714139   6.867   4.372   1.762 -0.5296  0.1281  0.0520
   47MOL   C24814140   6.793   4.110   1.308 -0.3756  0.7544 -0.4617
   47MOL   H24914141   6.810   3.996   1.486 -0.7651 -0.0833 -1.7632
   47MOL   H25014142   6.689   4.424   1.647 -0.2986  0.0095  0.0404
   47MOL   H25114143   6.667   4.334   1.787  0.9911 -1.4237  0.5871
   47MOL   H25214144   6.851   4.370   1.870  1.3764  0.2705  0.3660
   47MOL   H25314145   6.941   4.294   1.740  0.3088  0.2050  2.4428
   47MOL   H25414146   6.893   4.468   1.717  0.8760  0.0613  0.6938
   47MOL   H25514147   6.815   4.209   1.270  0.5488  1.2749  1.4014
   47MOL   H25614148   6.835   4.034   1.241 -2.9196 -0.4690 -0.7527
   47MOL   C25714149   6.644   4.076   1.310  0.2433  0.1105 -0.4935
   47MOL   O25814150   6.604   4.121   1.183  0.6326  0.6647  0.7743
   47MOL   C25914151   6.552   4.253   1.168  0.5898  0.6155  0.0243
   47MOL   O26014152   6.533   4.337   1.254  0.2510 -0.1202  0.2119
   47MOL   C26114153   6.515   4.271   1.018 -0.2425  0.1474  0.3074
   47MOL   C26214154   6.485   4.417   0.973  0.0422  0.0503 -0.4192
   47MOL   C26314155   6.620   3.929   1.311 -0.2945 -0.1242  0.1197
   47MOL   H26414156   6.597   4.138   1.386 -1.4260  0.1107 -1.5086
   47MOL   H26514157   6.601   4.228   0.967  1.3418  1.2931  1.9705
   47MOL   H26614158   6.438   4.197   0.994  0.0786  0.1991 -0.8793
   47MOL   H26714159   6.569   4.487   0.977  0.5839 -0.5031 -1.8699
   47MOL   H26814160   6.457   4.413   0.868 -0.2324  0.2094 -0.3531
   47MOL   H26914161   6.416   4.466   1.041 -1.1209  0.2046 -1.6958
   47MOL   H27014162   6.643   3.868   1.223 -0.2122 -0.9871  0.7372
   47MOL   H27114163   6.684   3.883   1.386  1.8090 -0.7037 -1.9657
   47MOL   C27214164   6.475   3.903   1.353 -0.2143 -0.0854 -0.1309
   47MOL   O27314165   6.440   3.963   1.476  0.1247 -0.0113 -0.2903
   47MOL   C27414166   6.445   3.879   1.579 -0.7276 -0.1320 -0.0413
   47MOL   O27514167   6.482   3.765   1.582 -0.0984  0.2810  0.3784
   47MOL   C27614168   6.375   3.949   1.693 -0.0841 -0.4195  0.4584
   47MOL   C27714169   6.383   3.881   1.826  0.4967  0.5423  0.0840
   47MOL   C27814170   6.369   3.945   1.245  1.3398  0.3732  1.9720
   47MOL   H27914171   6.460   3.796   1.363  1.9192 -0.4708 -0.8300
   47MOL   H28014172   6.403   4.053   1.710  2.3921 -1.2673  1.9549
   47MOL   H28114173   6.269   3.936   1.673 -0.0872 -1.8096  1.2727
   47MOL   H28214174   6.483   3.867   1.865  0.5629 -0.6401 -0.4759
   47MOL   H28314175   6.328   3.936   1.903  0.4042 -0.9195  1.0823
   47MOL   H28414176   6.336   3.783   1.820  1.9319 -0.0726 -1.3773
   47MOL   H28514177   6.360   4.053   1.233 -0.7771  0.0352  0.1732
   47MOL   H28614178   6.413   3.902   1.155  0.1170  0.5012  1.2985
   47MOL   C28714179   6.218   3.899   1.273 -0.8098 -0.2601 -0.5281
   47MOL   O28814180   6.138   3.938   1.164 -0.1294  0.2999  0.2953
   47MOL   C28914181   6.038   4.018   1.180  1.1498 -0.6146  0.4190
   47MOL   O29014182   5.997   4.067   1.282 -0.1215 -0.6113 -0.1555
   47MOL   C29114183   5.971   4.063   1.048  0.0599 -0.2224 -0.4613
   47MOL   C29214184   6.066   4.147   0.954 -0.5183 -0.3869  0.1960
   47MOL   C29314185   6.204   3.751   1.293  0.4453 -0.4883 -0.4996
   47MOL   H29414186   6.197   3.938   1.373  0.3941  0.3695 -0.5092
   47MOL   H29514187   5.937   3.972   0.998  2.7785 -1.0078 -1.0021
   47MOL   H29614188   5.890   4.131   1.073 -0.1383  0.1087 -1.9759
   47MOL   H29714189   6.082   4.244   1.001  1.3026 -0.6774  0.1982
   47MOL   H29814190   6.149   4.083   0.927  0.6116  0.1631  2.2946
   47MOL   H29914191   6.011   4.168   0.862 -0.2777 -2.0723 -0.3514
   47MOL   H30014192   6.273   3.716   1.369  0.3154 -2.3224 -1.1966
   47MOL   H30114193   6.107   3.728   1.337  2.2708 -2.7403  2.5449
   47MOL   H30214194   6.217   3.697   1.199  2.2299 -0.2316 -0.4215
   48MOL     C114195   5.046   6.303   4.721  0.3849  0.1734  0.3306
   48MOL     O214196   5.155   6.199   4.701  0.2111 -0.4732  0.0017
   48MOL     C314197   5.246   6.178   4.792 -0.3418 -0.1417 -0.2748
   48MOL     O414198   5.258   6.254   4.890 -0.2690  0.0965  0.1562
   48MOL     C514199   5.344   6.063   4.767  0.1324 -0.1276  0.3906
   48MOL     C614200   5.381   6.005   4.901  0.0369  0.4577 -0.7492
   48MOL     C714201   5.078   6.419   4.623  0.3119 -0.3457  0.1607
   48MOL     H814202   5.044   6.346   4.821  2.7817 -0.7823  0.8371
   48MOL     H914203   5.305   5.982   4.705 -1.9442 -0.4807  2.1126
   48MOL    H1014204   5.430   6.104   4.714 -0.8856  1.2669 -0.2175
   48MOL    H1114205   5.400   6.075   4.982  1.8160 -1.3423  0.4341
   48MOL    H1214206   5.285   5.962   4.931 -0.3565 -1.7708 -4.7976
   48MOL    H1314207   5.456   5.926   4.902 -0.3349  0.1070  0.9054
   48MOL    H1414208   5.176   6.458   4.652  0.4807 -0.9037  0.3368
   48MOL    H1514209   5.092   6.384   4.521  1.3014 -1.1278  0.5636
   48MOL    H1614210   4.945   6.265   4.709 -0.9446  3.6229  0.1087
   48MOL    C1714211   4.964   6.526   4.623  0.3589  0.6265 -0.1007
   48MOL    O1814212   4.986   6.595   4.748 -0.6501  0.0486  0.0753
   48MOL    C1914213   4.891   6.662   4.815 -0.4694 -0.0738 -0.1843
   48MOL    O2014214   4.769   6.658   4.786  0.1539 -0.4286 -0.3183
   48MOL    C2114215   4.934   6.729   4.944  0.0321  0.3402 -0.1919
   48MOL    C2214216   5.055   6.667   5.011  0.8887  0.4976  0.3771
   48MOL    C2314217   4.970   6.626   4.506  0.2439 -0.0601  0.7886
   48MOL    H2414218   4.865   6.481   4.625 -0.4877  2.2469 -2.9701
   48MOL    H2514219   4.948   6.837   4.932 -1.9966  0.6684  0.2697
   48MOL    H2614220   4.857   6.720   5.020  0.2527 -0.6171 -0.0717
   48MOL    H2714221   5.037   6.567   5.049 -0.8197  0.4285 -0.5512
   48MOL    H2814222   5.151   6.674   4.960  0.4586 -0.9139 -0.6563
   48MOL    H2914223   5.071   6.722   5.103  0.0807  1.3448  0.0145
   48MOL    H3014224   4.912   6.718   4.517  1.0305  0.6255 -0.7065
   48MOL    H3114225   5.073   6.663   4.506  0.2403 -0.0331 -0.6557
   48MOL    C3214226   4.930   6.574   4.367  0.3138  0.5622  0.2454
   48MOL    O3314227   4.792   6.535   4.364 -0.1835 -0.5034 -0.4071
   48MOL    C3414228   4.757   6.410   4.323 -0.5278 -0.6902  0.2433
   48MOL    O3514229   4.834   6.320   4.287  0.2012  0.1525  0.9637
   48MOL    C3614230   4.604   6.384   4.335 -0.2806 -0.1085 -0.0268
   48MOL    C3714231   4.547   6.369   4.480 -0.1756  0.0348  0.6482
   48MOL    C3814232   4.947   6.674   4.255 -0.3413 -0.0184  0.2874
   48MOL    H3914233   4.988   6.484   4.351  0.3158  0.3469  1.4066
   48MOL    H4014234   4.543   6.457   4.283 -1.6397 -0.4821  1.0232
   48MOL    H4114235   4.576   6.289   4.288 -1.3600  0.3690 -0.3487
   48MOL    H4214236   4.465   6.439   4.494 -0.4769 -0.4666  1.4337
   48MOL    H4314237   4.498   6.276   4.508 -1.2141 -0.1167 -1.5816
   48MOL    H4414238   4.615   6.386   4.564 -1.0163  0.5369  1.2336
   48MOL    H4514239   4.872   6.647   4.180 -2.4487  1.9859  1.5900
   48MOL    H4614240   4.937   6.779   4.286  0.6307 -0.2174  1.2832
   48MOL    C4714241   5.088   6.671   4.203  0.2893  0.5920  1.0215
   48MOL    O4814242   5.098   6.562   4.109 -0.1073 -0.2138  0.8306
   48MOL    C4914243   5.155   6.449   4.134  0.5205  0.1030  0.3879
   48MOL    O5014244   5.197   6.423   4.244  0.7243  0.7296 -0.4535
   48MOL    C5114245   5.161   6.358   4.016  0.5568  0.3624  0.4419
   48MOL    C5214246   5.246   6.412   3.895  0.2414 -0.3870 -0.2839
   48MOL    C5314247   5.131   6.811   4.146  0.1389  0.0525  0.2271
   48MOL    H5414248   5.159   6.662   4.285  1.5085 -0.2700 -0.0874
   48MOL    H5514249   5.194   6.263   4.058  1.0774 -0.0779 -0.9495
   48MOL    H5614250   5.062   6.334   3.976  1.6979 -0.8715 -1.7314
   48MOL    H5714251   5.246   6.344   3.809 -3.2732 -0.9702  0.1144
   48MOL    H5814252   5.196   6.503   3.862  1.1358  0.1463 -0.1870
   48MOL    H5914253   5.352   6.428   3.916 -0.0385 -0.5072  1.2604
   48MOL    H6014254   5.064   6.841   4.065 -0.1558 -0.9962  0.0747
   48MOL    H6114255   5.124   6.879   4.232 -1.1370  0.4651 -0.1842
   48MOL    C6214256   5.273   6.807   4.090  0.0084 -0.4909  0.5569
   48MOL    O6314257   5.298   6.930   4.030  0.4073 -0.2781  0.3181
   48MOL    C6414258   5.256   6.968   3.905  0.1316  0.5743 -0.4680
   48MOL    O6514259   5.167   6.917   3.843 -0.0598  0.1434  0.0589
   48MOL    C6614260   5.333   7.089   3.852  0.4998  0.5545 -0.3824
   48MOL    C6714261   5.291   7.140   3.715 -0.3753 -0.4384  0.0504
   48MOL    C6814262   5.381   6.792   4.196  0.2990  0.5545 -0.0172
   48MOL    H6914263   5.285   6.738   4.006 -1.1848  2.4900 -2.1375
   48MOL    H7014264   5.334   7.155   3.939  2.0363  1.3505 -0.9922
   48MOL    H7114265   5.438   7.064   3.840  0.6198 -0.6682  2.7115
   48MOL    H7214266   5.351   7.222   3.675  1.4421 -0.9574  1.6337
   48MOL    H7314267   5.282   7.059   3.642 -0.8391  0.9285 -1.4379
   48MOL    H7414268   5.187   7.170   3.708 -0.8626 -2.4037 -1.7235
   48MOL    H7514269   5.393   6.888   4.245  3.4868  0.3242 -0.2427
   48MOL    H7614270   5.341   6.720   4.268  0.0743 -0.3372 -1.0195
   48MOL    C7714271   5.519   6.741   4.164  0.5688 -0.6185  0.7465
   48MOL    O7814272   5.575   6.824   4.059  0.0937  0.4561  0.0075
   48MOL    C7914273   5.579   6.786   3.935 -0.3055  0.4246 -0.2147
   48MOL    O8014274   5.531   6.678   3.890 -0.1504 -0.0797  0.5486
   48MOL    C8114275   5.635   6.897   3.851  0.3719 -0.0712  0.3984
   48MOL    C8214276   5.595   6.871   3.708 -0.8807  0.5151 -0.1230
   48MOL    C8314277   5.623   6.756   4.281 -0.4276 -0.5918  0.9975
   48MOL    H8414278   5.503   6.639   4.127  0.2042 -1.0283  2.0138
   48MOL    H8514279   5.601   6.992   3.890 -0.3101 -0.4023  0.6192
   48MOL    H8614280   5.742   6.901   3.872  0.6344 -2.7382 -0.1379
   48MOL    H8714281   5.623   6.957   3.647  0.2237 -0.6672 -1.2929
   48MOL    H8814282   5.634   6.778   3.668  2.4207  1.2710  1.1522
   48MOL    H8914283   5.487   6.864   3.705 -0.9808  1.5195  0.7520
   48MOL    H9014284   5.704   6.685   4.262 -0.5938 -0.1205 -1.7312
   48MOL    H9114285   5.667   6.855   4.279  0.7590 -1.0725  2.3520
   48MOL    C9214286   5.574   6.721   4.418  0.1246 -0.0244 -1.0905
   48MOL    O9314287   5.543   6.582   4.410 -0.2187 -0.0673  0.0208
   48MOL    C9414288   5.426   6.534   4.446  0.1617  0.3262  0.0202
   48MOL    O9514289   5.322   6.599   4.467 -0.4523  0.2194  0.1802
   48MOL    C9614290   5.427   6.380   4.436  0.2435  0.5454 -0.2156
   48MOL    C9714291   5.545   6.307   4.507  0.3590 -0.3384  0.5120
   48MOL    C9814292   5.683   6.750   4.528  1.0902 -0.0272 -0.1023
   48MOL    H9914293   5.493   6.789   4.444  1.5023  1.1217  0.2910
   48MOL   H10014294   5.330   6.350   4.475  0.7714 -0.3147  0.4668
   48MOL   H10114295   5.425   6.358   4.330 -2.7973  1.1510 -0.3062
   48MOL   H10214296   5.633   6.370   4.524 -0.2333  0.3471  1.1052
   48MOL   H10314297   5.511   6.282   4.608 -1.5674 -0.9704 -0.2817
   48MOL   H10414298   5.573   6.222   4.446 -0.2029  1.3171 -2.1070
   48MOL   H10514299   5.746   6.663   4.544  0.8271  0.1215  1.8920
   48MOL   H10614300   5.735   6.837   4.487  0.0070  1.2117  1.0803
   48MOL   C10714301   5.620   6.772   4.669 -0.4727 -0.3720 -0.4098
   48MOL   O10814302   5.580   6.645   4.712 -0.3028  0.1371  0.0332
   48MOL   C10914303   5.486   6.629   4.804 -0.7842  0.5864  0.0309
   48MOL   O11014304   5.414   6.716   4.847  0.0320  1.1083 -0.1777
   48MOL   C11114305   5.485   6.495   4.864  0.1083  0.3009  0.1400
   48MOL   C11214306   5.626   6.444   4.899  0.3605 -0.3059 -0.2059
   48MOL   C11314307   5.732   6.828   4.763 -0.0333 -0.0643 -0.3070
   48MOL   H11414308   5.537   6.843   4.669 -1.1951 -1.2161 -0.3271
   48MOL   H11514309   5.420   6.489   4.951 -0.9130 -0.6783 -0.6788
   48MOL   H11614310   5.446   6.434   4.783  0.0863 -0.3769  0.6611
   48MOL   H11714311   5.618   6.343   4.940  0.3636 -0.9032 -1.6382
   48MOL   H11814312   5.699   6.435   4.819  3.1137 -2.5601  2.3900
   48MOL   H11914313   5.673   6.508   4.974  0.8644  2.5314 -2.8876
   48MOL   H12014314   5.818   6.763   4.755 -0.1436 -0.1551 -0.7872
   48MOL   H12114315   5.762   6.923   4.717  0.3307 -0.4769 -0.9238
   48MOL   C12214316   5.713   6.845   4.912  0.5116  0.3273 -0.4108
   48MOL   O12314317   5.836   6.860   4.979  0.1515  0.0357 -0.4212
   48MOL   C12414318   5.873   6.791   5.090  0.4178 -0.0219 -0.1058
   48MOL   O12514319   5.811   6.696   5.135 -0.2235  0.3140 -0.0117
   48MOL   C12614320   6.010   6.822   5.141 -0.3614 -0.2130  0.5444
   48MOL   C12714321   6.027   6.963   5.195 -0.1505 -0.3905  0.2537
   48MOL   C12814322   5.614   6.954   4.958 -0.1950 -0.0543  0.5916
   48MOL   H12914323   5.669   6.751   4.948  2.1387  0.2111  1.3638
   48MOL   H13014324   6.033   6.756   5.224  2.3306 -0.5150 -0.3664
   48MOL   H13114325   6.081   6.798   5.061 -0.8928  0.5117 -0.1470
   48MOL   H13214326   5.939   6.988   5.254 -1.7657  0.9644 -2.6548
   48MOL   H13314327   6.119   6.960   5.253 -0.0562  0.6336  0.1635
   48MOL   H13414328   6.029   7.030   5.109 -2.2334  0.0239  0.4966
   48MOL   H13514329   5.646   7.050   4.917 -1.0570 -0.7840 -1.8701
   48MOL   H13614330   5.515   6.945   4.912 -0.6052 -1.9274  1.7658
   48MOL   C13714331   5.591   6.952   5.106  0.7029  0.1965  0.0397
   48MOL   O13814332   5.560   7.081   5.162 -0.0733 -0.0408 -0.4420
   48MOL   C13914333   5.651   7.172   5.191  0.1084  0.0429  0.4670
   48MOL   O14014334   5.772   7.152   5.185 -0.4442  0.1824  0.3375
   48MOL   C14114335   5.584   7.298   5.242  0.2284 -0.7237  0.4820
   48MOL   C14214336   5.484   7.364   5.145  0.0726 -0.5532  0.1024
   48MOL   C14314337   5.489   6.842   5.151 -0.3519 -0.3007  0.4643
   48MOL   H14414338   5.680   6.916   5.158  0.4969  0.2381  0.4225
   48MOL   H14514339   5.542   7.262   5.335  1.5148  0.7564  1.6868
   48MOL   H14614340   5.655   7.372   5.280  0.1174 -0.3474 -0.0365
   48MOL   H14714341   5.389   7.377   5.197  0.3566  2.8189 -0.0911
   48MOL   H14814342   5.517   7.465   5.119  0.6161  0.1853  3.4543
   48MOL   H14914343   5.457   7.304   5.058 -1.2404 -0.2048  0.2522
   48MOL   H15014344   5.385   6.875   5.139  0.8924  3.0625 -1.6489
   48MOL   H15114345   5.507   6.759   5.083  1.4305  1.1647 -0.8945
   48MOL   C15214346   5.507   6.780   5.293 -0.8087  0.1073 -0.4871
   48MOL   O15314347   5.515   6.887   5.384 -0.0426  0.2186 -0.5727
   48MOL   C15414348   5.626   6.901   5.455 -0.0202  0.3578  0.2618
   48MOL   O15514349   5.741   6.864   5.418 -0.2084 -0.4669 -0.8149
   48MOL   C15614350   5.590   6.967   5.589 -0.3832  0.4946  0.0751
   48MOL   C15714351   5.601   7.116   5.583 -0.1079  0.0057  1.0089
   48MOL   C15814352   5.399   6.685   5.338  0.6992 -0.6779 -0.0097
   48MOL   H15914353   5.604   6.731   5.285 -0.6446 -0.2268  2.9133
   48MOL   H16014354   5.493   6.936   5.625 -0.1631  1.6936  1.7612
   48MOL   H16114355   5.660   6.941   5.668  0.6875 -0.5155 -1.1736
   48MOL   H16214356   5.559   7.170   5.499 -0.5856  0.0428  1.2732
   48MOL   H16314357   5.549   7.156   5.670 -2.4118 -0.0906 -0.3031
   48MOL   H16414358   5.704   7.149   5.595  0.0893 -0.5957  1.0293
   48MOL   H16514359   5.336   6.736   5.410 -0.8701 -0.4956 -1.4979
   48MOL   H16614360   5.340   6.663   5.249  3.2153 -0.1476 -1.8907
   48MOL   C16714361   5.457   6.555   5.387  0.6246  0.3990 -0.6774
   48MOL   O16814362   5.355   6.494   5.461  0.4386  0.0209 -0.2444
   48MOL   C16914363   5.350   6.519   5.599  0.8773  0.0813  0.1499
   48MOL   O17014364   5.432   6.588   5.660  0.9039 -0.7139  0.5167
   48MOL   C17114365   5.248   6.426   5.666 -0.2600 -0.0737  0.2545
   48MOL   C17214366   5.242   6.461   5.813 -0.0601 -0.3248  0.8459
   48MOL   C17314367   5.502   6.450   5.282  0.0696 -0.3066 -0.3599
   48MOL   H17414368   5.548   6.569   5.446  0.1510  0.4798  0.0492
   48MOL   H17514369   5.152   6.439   5.617 -0.8236 -0.7647  1.1626
   48MOL   H17614370   5.272   6.321   5.644  0.0122 -0.1869  1.0650
   48MOL   H17714371   5.337   6.454   5.866  0.6250 -3.6185 -0.6597
   48MOL   H17814372   5.197   6.558   5.830 -1.9655 -0.7974 -1.3262
   48MOL   H17914373   5.176   6.383   5.851 -3.1819  1.9007  0.1285
   48MOL   H18014374   5.417   6.409   5.226 -0.5423  2.0248 -1.2143
   48MOL   H18114375   5.563   6.507   5.211  0.0710  1.6768  1.2065
   48MOL   C18214376   5.576   6.339   5.348 -0.2623  0.6308  0.0745
   48MOL   O18314377   5.480   6.238   5.371 -0.6007  0.8810  0.2696
   48MOL   C18414378   5.490   6.165   5.483  0.2332  0.6302 -0.2702
   48MOL   O18514379   5.576   6.173   5.569  0.0281 -0.2632  0.6188
   48MOL   C18614380   5.369   6.069   5.494  0.1399 -0.4648 -0.1888
   48MOL   C18714381   5.307   6.026   5.361 -0.0339 -0.1869 -0.2685
   48MOL   C18814382   5.689   6.284   5.253  0.1497  0.0545  0.1462
   48MOL   H18914383   5.627   6.360   5.442 -1.5032 -2.3565  1.4981
   48MOL   H19014384   5.414   5.992   5.557  0.3711 -1.0865 -1.0931
   48MOL   H19114385   5.288   6.124   5.542  1.3141  3.2732 -2.2867
   48MOL   H19214386   5.271   6.115   5.311  1.1187  0.9360  0.8684
   48MOL   H19314387   5.370   5.981   5.285 -0.3725  0.1348 -0.7457
   48MOL   H19414388   5.219   5.962   5.376 -0.3191 -0.1519 -1.7663
   48MOL   H19514389   5.648   6.276   5.152  0.6351 -2.4327  0.1263
   48MOL   H19614390   5.770   6.355   5.238  0.9890 -1.5479 -3.4080
   48MOL   C19714391   5.751   6.147   5.278 -0.5335  0.3587 -0.4835
   48MOL   O19814392   5.830   6.119   5.162  0.6834 -0.1224  0.2879
   48MOL   C19914393   5.782   6.040   5.062 -1.2925  0.2095  0.5349
   48MOL   O20014394   5.673   5.984   5.064  0.2454  0.2986 -0.5244
   48MOL   C20114395   5.881   6.044   4.944  0.6002  0.1424 -0.3924
   48MOL   C20214396   5.809   6.055   4.804 -0.0290  0.1667  0.3712
   48MOL   C20314397   5.834   6.153   5.401 -0.2406  0.2099  0.2751
   48MOL   H20414398   5.661   6.088   5.298 -1.5028  1.3975 -1.7427
   48MOL   H20514399   5.951   6.123   4.970  0.3695 -1.1517  4.7603
   48MOL   H20614400   5.929   5.946   4.942  1.7631  0.6617  0.9611
   48MOL   H20714401   5.853   5.980   4.737  0.1019  1.0276 -0.5224
   48MOL   H20814402   5.707   6.019   4.815  1.5958 -4.2086  2.4108
   48MOL   H20914403   5.814   6.157   4.765 -0.1019 -0.7604 -2.1857
   48MOL   H21014404   5.930   6.200   5.380  0.2180 -0.9377 -0.2530
   48MOL   H21114405   5.792   6.214   5.481 -1.1892  1.8411 -1.4443
   48MOL   C21214406   5.865   6.018   5.458  0.1550 -0.7093 -1.0495
   48MOL   O21314407   5.991   5.976   5.399  0.6960 -0.2425 -0.1206
   48MOL   C21414408   6.010   5.859   5.339 -0.3738 -0.0205 -0.4534
   48MOL   O21514409   5.931   5.766   5.322  0.3809 -0.2115  0.3641
   48MOL   C21614410   6.148   5.848   5.273 -0.5777  0.4515 -0.9403
   48MOL   C21714411   6.187   5.987   5.218 -0.4293  0.6679 -1.0434
   48MOL   C21814412   5.874   6.009   5.610 -0.1558  0.0981  0.6501
   48MOL   H21914413   5.788   5.948   5.423  2.8603 -3.6826 -1.2717
   48MOL   H22014414   6.208   5.822   5.360 -1.4923 -1.3278 -0.8253
   48MOL   H22114415   6.150   5.767   5.200  0.3081 -0.7884  0.4134
   48MOL   H22214416   6.215   6.060   5.294  1.2425 -1.6776  0.6837
   48MOL   H22314417   6.272   5.987   5.150 -1.9714  0.1342 -3.0304
   48MOL   H22414418   6.105   6.034   5.162 -0.7777  0.3021 -0.8433
   48MOL   H22514419   5.976   5.985   5.639  0.1689  0.4407 -0.2043
   48MOL   H22614420   5.839   6.097   5.664  0.4822  1.7401 -1.5511
   48MOL   C22714421   5.769   5.906   5.669  0.9288 -0.1466 -0.0757
   48MOL   O22814422   5.844   5.785   5.667 -0.1424  0.2568  0.6776
   48MOL   C22914423   5.789   5.676   5.620  1.0077  0.3551  0.4277
   48MOL   O23014424   5.672   5.654   5.580  0.5291 -0.0767  0.3467
   48MOL   C23114425   5.892   5.559   5.613 -0.0808  0.3100  0.5123
   48MOL   C23214426   5.876   5.446   5.723 -1.6402 -1.1077  0.0512
   48MOL   C23314427   5.726   5.943   5.812  0.1606  0.1233  0.4896
   48MOL   H23414428   5.688   5.909   5.596  0.9574  2.5434 -0.0372
   48MOL   H23514429   5.885   5.512   5.514 -1.0716  0.2492  0.6095
   48MOL   H23614430   5.994   5.597   5.619 -0.1474  0.3194  1.6036
   48MOL   H23714431   5.976   5.404   5.732 -0.3299  1.6763 -0.7033
   48MOL   H23814432   5.840   5.488   5.817  2.0907  0.4552  0.8974
   48MOL   H23914433   5.818   5.359   5.692 -0.6803 -1.8832  0.4022
   48MOL   H24014434   5.806   5.980   5.876  0.2871  0.9443 -0.1272
   48MOL   H24114435   5.665   6.034   5.811 -0.6343 -0.4140 -0.4855
   48MOL   C24214436   5.665   5.829   5.901 -0.5540  0.3255 -0.7463
   48MOL   O24314437   5.660   5.872   6.043 -0.2608  0.0669 -0.1245
   48MOL   C24414438   5.687   5.798   6.150 -0.2696 -0.0446 -0.3028
   48MOL   O24514439   5.709   5.679   6.141 -0.1664  0.5850 -0.1180
   48MOL   C24614440   5.693   5.862   6.284  0.0821 -0.5147 -0.4147
   48MOL   C24714441   5.840   5.921   6.316  1.1036 -0.2009 -0.3790
   48MOL   C24814442   5.519   5.790   5.854 -1.2309  0.3768 -0.6728
   48MOL   H24914443   5.737   5.747   5.903 -1.6466 -0.6534 -0.3467
   48MOL   H25014444   5.616   5.939   6.293 -1.0831 -1.8307  1.2971
   48MOL   H25114445   5.674   5.789   6.363  0.2550  0.6345  0.6966
   48MOL   H25214446   5.903   5.919   6.227  0.8117 -3.3270 -0.5868
   48MOL   H25314447   5.824   6.024   6.347  2.3460  0.5465 -2.1112
   48MOL   H25414448   5.890   5.869   6.398 -0.0834 -0.6214  0.0818
   48MOL   H25514449   5.452   5.873   5.877 -1.2365  0.5000 -1.1364
   48MOL   H25614450   5.507   5.769   5.747  2.8186 -1.4400 -0.8557
   48MOL   C25714451   5.469   5.668   5.920  0.1715  0.2145  0.6775
   48MOL   O25814452   5.324   5.677   5.924 -0.0136 -0.2932 -0.1122
   48MOL   C25914453   5.265   5.708   6.039 -0.0049 -1.0508  0.6443
   48MOL   O26014454   5.329   5.761   6.132 -0.4926  0.0361  0.7467
   48MOL   C26114455   5.117   5.672   6.060  0.5218  1.2516  1.0145
   48MOL   C26214456   5.085   5.534   6.113  0.0980  0.4246  0.1379
   48MOL   C26314457   5.508   5.536   5.850  0.3943 -0.8099 -0.1937
   48MOL   H26414458   5.515   5.651   6.017  1.3666 -2.6543 -0.3091
   48MOL   H26514459   5.065   5.748   6.119 -1.8523  0.0075  0.5721
   48MOL   H26614460   5.066   5.690   5.966 -0.2746 -1.0710  0.9651
   48MOL   H26714461   5.066   5.463   6.033  1.6793  1.1025 -0.8684
   48MOL   H26814462   5.160   5.487   6.177 -0.9016  0.8034  1.6364
   48MOL   H26914463   4.988   5.541   6.162 -0.6476  0.0554 -1.2787
   48MOL   H27014464   5.452   5.530   5.756 -1.6570  0.5815  0.9064
   48MOL   H27114465   5.609   5.526   5.810 -0.2901 -0.0131 -2.1894
   48MOL   C27214466   5.476   5.410   5.937  0.0394 -0.0765 -0.2502
   48MOL   O27314467   5.476   5.298   5.850  0.1439 -0.0268  0.4899
   48MOL   C27414468   5.365   5.255   5.794 -0.4808 -0.5934 -0.6245
   48MOL   O27514469   5.254   5.275   5.843  0.3663  0.1051  0.3552
   48MOL   C27614470   5.388   5.169   5.670  0.0552  0.1367 -0.0843
   48MOL   C27714471   5.473   5.253   5.571  0.2435 -0.2413 -0.4322
   48MOL   C27814472   5.593   5.388   6.045  0.5472  0.2043 -1.3516
   48MOL   H27914473   5.380   5.427   5.987 -0.2408 -0.4735 -0.6490
   48MOL   H28014474   5.444   5.085   5.710 -0.7579 -0.1866  0.3774
   48MOL   H28114475   5.302   5.125   5.620  1.1427  0.0586 -1.9556
   48MOL   H28214476   5.417   5.345   5.552  0.3728 -0.2270 -0.7525
   48MOL   H28314477   5.563   5.295   5.615 -0.8728  0.8573  0.8699
   48MOL   H28414478   5.505   5.195   5.484 -0.2604 -1.2870  0.0622
   48MOL   H28514479   5.686   5.415   5.995  1.1727 -0.4156 -0.5223
   48MOL   H28614480   5.582   5.452   6.133 -0.3518 -0.2767 -1.1112
   48MOL   C28714481   5.598   5.246   6.100  0.0751  0.2842  0.2874
   48MOL   O28814482   5.710   5.233   6.189 -0.0526 -0.2529  0.1717
   48MOL   C28914483   5.846   5.226   6.148  0.0867 -0.3403 -0.5206
   48MOL   O29014484   5.886   5.228   6.033 -0.0789  0.3677  0.2636
   48MOL   C29114485   5.947   5.212   6.273 -0.0361 -0.3637  0.3750
   48MOL   C29214486   6.093   5.235   6.220  0.6278 -0.4065 -0.4685
   48MOL   C29314487   5.479   5.193   6.171  0.3014  0.9419  0.2697
   48MOL   H29414488   5.610   5.180   6.015  0.1799 -0.2396  0.7113
   48MOL   H29514489   5.918   5.297   6.334 -1.0196  1.2345 -2.2106
   48MOL   H29614490   5.929   5.114   6.317  1.0994 -0.8926 -0.3076
   48MOL   H29714491   6.175   5.228   6.291  1.4199  2.8118 -0.9860
   48MOL   H29814492   6.115   5.172   6.133  0.7406 -2.2356  0.8755
   48MOL   H29914493   6.111   5.334   6.178  1.1066 -1.3883 -2.6608
   48MOL   H30014494   5.448   5.256   6.255  2.4738  0.3282  1.5829
   48MOL   H30114495   5.397   5.190   6.100 -0.2465 -3.5778  0.9659
   48MOL   H30214496   5.497   5.101   6.227 -0.8861  0.4263 -0.1787
   49MOL     C114497   1.491   1.273   4.017 -0.2578 -0.1594 -0.3041
   49MOL     O214498   1.555   1.202   4.124 -0.7429  0.0544 -0.4691
   49MOL     C314499   1.485   1.123   4.215 -0.4696  0.0140  0.3288
   49MOL     O414500   1.367   1.093   4.210 -0.0958  0.0803 -0.5926
   49MOL     C514501   1.581   1.084   4.326 -1.3572  0.1714  0.3634
   49MOL     C614502   1.518   1.007   4.439  0.3221  0.4046 -0.0329
   49MOL     C714503   1.469   1.185   3.893 -0.1604  0.7336 -0.0824
   49MOL     H814504   1.541   1.364   3.985  0.5767 -0.1232  1.0985
   49MOL     H914505   1.647   1.016   4.272 -0.9162 -0.9704  2.2882
   49MOL    H1014506   1.644   1.168   4.356 -1.0779  0.5825 -1.3091
   49MOL    H1114507   1.445   1.068   4.493  1.2226  0.3298  1.3176
   49MOL    H1214508   1.475   0.925   4.382 -1.6596  1.4614 -0.1042
   49MOL    H1314509   1.593   0.973   4.510 -1.4461 -1.9910  0.7501
   49MOL    H1414510   1.428   1.086   3.911  0.7650  0.5052  0.7956
   49MOL    H1514511   1.396   1.244   3.837 -0.6040 -0.8889 -1.2537
   49MOL    H1614512   1.401   1.322   4.054  1.4683  2.6896  0.2377
   49MOL    C1714513   1.592   1.176   3.799 -0.8575  0.2423 -0.4807
   49MOL    O1814514   1.684   1.092   3.870  0.8338  0.2116  0.5705
   49MOL    C1914515   1.815   1.122   3.881  0.2285  0.8636 -0.0115
   49MOL    O2014516   1.878   1.218   3.837 -0.0891  0.0142 -0.4130
   49MOL    C2114517   1.883   1.027   3.980 -0.4157  0.6694  0.7222
   49MOL    C2214518   1.932   0.908   3.903  0.0717  0.2774 -0.4822
   49MOL    C2314519   1.553   1.108   3.664 -0.0363 -0.5539 -0.4258
   49MOL    H2414520   1.628   1.279   3.794 -0.5331  0.4116  3.5852
   49MOL    H2514521   1.965   1.067   4.040 -1.3280  0.5490  2.0531
   49MOL    H2614522   1.810   0.997   4.055 -1.0164  0.6228  0.1212
   49MOL    H2714523   1.992   0.843   3.966 -1.9257 -1.5219 -0.4035
   49MOL    H2814524   1.846   0.842   3.890  1.4686 -2.1061  1.9540
   49MOL    H2914525   1.980   0.927   3.807  1.7323 -1.8780 -0.0968
   49MOL    H3014526   1.528   1.003   3.679  1.1939 -0.5659  1.7354
   49MOL    H3114527   1.460   1.150   3.626 -0.2812 -1.6668 -1.0704
   49MOL    C3214528   1.663   1.119   3.550  0.2875  0.2057  0.1151
   49MOL    O3314529   1.717   0.988   3.532 -0.1166  0.3073  0.1725
   49MOL    C3414530   1.840   0.974   3.506  0.0381  1.3131  0.0865
   49MOL    O3514531   1.927   1.056   3.483  0.4182  0.1692  0.2040
   49MOL    C3614532   1.882   0.826   3.511  0.5586 -0.7621 -0.2703
   49MOL    C3714533   2.029   0.786   3.519 -0.0766 -0.5119  0.3327
   49MOL    C3814534   1.601   1.166   3.420 -0.8408 -0.2263  0.2075
   49MOL    H3914535   1.735   1.188   3.593 -1.1927  1.5598  0.4778
   49MOL    H4014536   1.823   0.786   3.593  2.4099 -0.5084  1.2277
   49MOL    H4114537   1.833   0.778   3.427 -0.3395  0.7828 -0.6426
   49MOL    H4214538   2.078   0.787   3.617 -0.5311 -0.6333  0.5642
   49MOL    H4314539   2.028   0.684   3.481 -1.0222 -0.7513  0.9681
   49MOL    H4414540   2.084   0.854   3.454 -0.9456  1.1679  1.3150
   49MOL    H4514541   1.680   1.141   3.349 -1.5465 -3.2329  0.4359
   49MOL    H4614542   1.514   1.104   3.402 -1.1825  0.0110  1.0256
   49MOL    C4714543   1.553   1.311   3.403 -0.0029  0.0404 -0.1320
   49MOL    O4814544   1.675   1.387   3.415 -0.1056 -0.0992 -0.2541
   49MOL    C4914545   1.691   1.464   3.528  0.3058  0.4115  0.9774
   49MOL    O5014546   1.604   1.473   3.618  0.2339  0.1226 -0.3636
   49MOL    C5114547   1.825   1.533   3.526 -0.4315 -0.3660  0.6677
   49MOL    C5214548   1.946   1.441   3.541  0.8637 -0.4317  0.2246
   49MOL    C5314549   1.495   1.347   3.264 -0.0303 -0.0300 -0.1901
   49MOL    H5414550   1.465   1.328   3.466  1.6546  2.7863  1.5362
   49MOL    H5514551   1.835   1.591   3.435  0.6760 -2.5370 -0.6469
   49MOL    H5614552   1.824   1.607   3.606  4.4508  0.3680  0.1714
   49MOL    H5714553   2.033   1.503   3.560 -0.5467  1.1352  1.6555
   49MOL    H5814554   1.927   1.370   3.622  0.8715 -1.0072 -0.2726
   49MOL    H5914555   1.952   1.380   3.450 -1.8657 -0.4353 -0.0077
   49MOL    H6014556   1.477   1.453   3.277  1.9986  0.3585 -0.4268
   49MOL    H6114557   1.580   1.335   3.197 -0.0988  2.0174 -0.6650
   49MOL    C6214558   1.369   1.269   3.227 -0.5313  0.0387  0.2968
   49MOL    O6314559   1.260   1.303   3.317 -0.0476  0.3513 -0.2969
   49MOL    C6414560   1.205   1.210   3.400  0.1476  0.2653  0.5788
   49MOL    O6514561   1.247   1.093   3.423 -0.3224  0.0587 -0.2053
   49MOL    C6614562   1.070   1.252   3.460 -0.2885 -0.2330 -0.2064
   49MOL    C6714563   0.954   1.261   3.356 -0.0098  0.1899 -0.4457
   49MOL    C6814564   1.310   1.306   3.087 -0.5852  0.6086  0.3282
   49MOL    H6914565   1.383   1.161   3.229  1.6950  0.1524 -3.6687
   49MOL    H7014566   1.046   1.173   3.530  2.2387 -0.1714  0.7699
   49MOL    H7114567   1.078   1.348   3.512 -0.0553 -1.2381  1.6412
   49MOL    H7214568   0.859   1.254   3.408  0.4255  0.7753  0.4548
   49MOL    H7314569   0.955   1.359   3.309 -1.6905  1.1175  1.3646
   49MOL    H7414570   0.949   1.178   3.286 -0.1751 -0.0826 -0.1131
   49MOL    H7514571   1.210   1.266   3.069 -0.2985  1.1392 -2.6125
   49MOL    H7614572   1.317   1.415   3.080  1.3766  0.4539 -0.4444
   49MOL    C7714573   1.392   1.252   2.972 -0.3856  0.9992  0.6627
   49MOL    O7814574   1.358   1.120   2.956  0.0310  0.9941  0.3467
   49MOL    C7914575   1.445   1.028   2.930  0.6660 -0.3084 -0.4513
   49MOL    O8014576   1.564   1.054   2.912 -0.0683  0.0927 -0.3252
   49MOL    C8114577   1.381   0.893   2.943 -0.2057  0.6498  0.4304
   49MOL    C8214578   1.489   0.773   2.948  0.0158  0.6569  0.1197
   49MOL    C8314579   1.368   1.326   2.836  0.3257  0.2630 -0.3033
   49MOL    H8414580   1.492   1.276   3.008  0.0001  3.2867 -1.7683
   49MOL    H8514581   1.307   0.875   3.021  0.5783 -1.2292  0.7666
   49MOL    H8614582   1.329   0.884   2.848  0.0001  1.2421  0.2595
   49MOL    H8714583   1.537   0.754   3.044 -0.3029  0.6141  0.2726
   49MOL    H8814584   1.433   0.683   2.925  0.0617  0.6667 -0.0289
   49MOL    H8914585   1.556   0.782   2.863  1.3770  0.9808  1.2237
   49MOL    H9014586   1.268   1.298   2.804 -0.1042 -0.9184  1.9487
   49MOL    H9114587   1.383   1.432   2.858 -0.9446  0.4160 -0.1762
   49MOL    C9214588   1.468   1.294   2.721  0.3356  0.0658  0.4880
   49MOL    O9314589   1.422   1.361   2.606  0.0475 -0.2980  0.5635
   49MOL    C9414590   1.350   1.316   2.502  0.6023 -0.4613 -0.4149
   49MOL    O9514591   1.289   1.211   2.496  0.4213  0.2174 -0.0894
   49MOL    C9614592   1.357   1.411   2.382 -0.1148 -1.1142 -0.4759
   49MOL    C9714593   1.493   1.433   2.319 -0.4368 -0.0979 -0.1868
   49MOL    C9814594   1.610   1.342   2.749 -0.2288  1.0133  0.3924
   49MOL    H9914595   1.453   1.187   2.704  1.7020 -0.2926  1.5246
   49MOL   H10014596   1.294   1.366   2.304 -0.4427  0.9359 -1.4194
   49MOL   H10114597   1.308   1.502   2.416 -1.9473 -2.3806  0.3624
   49MOL   H10214598   1.501   1.376   2.226 -0.5085 -1.2908  0.5343
   49MOL   H10314599   1.518   1.538   2.305  2.0336 -0.3373  2.0143
   49MOL   H10414600   1.569   1.401   2.390  0.4416  0.1230 -1.0238
   49MOL   H10514601   1.636   1.445   2.725 -2.5610  1.4983 -0.1895
   49MOL   H10614602   1.638   1.332   2.854 -1.1551 -1.1517  0.4505
   49MOL   C10714603   1.708   1.250   2.680  0.7026 -0.2766 -0.3823
   49MOL   O10814604   1.656   1.218   2.554 -0.0776 -0.0077 -0.0981
   49MOL   C10914605   1.681   1.098   2.507 -0.4309  0.0199  0.0440
   49MOL   O11014606   1.727   1.007   2.569 -0.0306 -0.3534 -0.0016
   49MOL   C11114607   1.618   1.083   2.364 -0.1354 -0.0065 -0.3731
   49MOL   C11214608   1.605   0.941   2.307 -0.1422 -0.6087 -0.1113
   49MOL   C11314609   1.844   1.318   2.669  0.4646 -0.4060 -0.7368
   49MOL   H11414610   1.720   1.157   2.736  1.0849  0.3247  0.5388
   49MOL   H11514611   1.518   1.125   2.358  0.2240  0.7942 -0.8895
   49MOL   H11614612   1.679   1.134   2.289  0.5472 -2.9244 -1.9013
   49MOL   H11714613   1.555   0.880   2.383 -0.4857  1.1446  1.1149
   49MOL   H11814614   1.547   0.944   2.215  1.9923 -2.8772 -1.5821
   49MOL   H11914615   1.706   0.906   2.288  0.1629  0.4564 -0.4925
   49MOL   H12014616   1.913   1.236   2.648  0.2233 -0.2974 -2.0222
   49MOL   H12114617   1.845   1.374   2.575 -1.2311  0.0239 -0.5150
   49MOL   C12214618   1.906   1.395   2.788  0.5763 -0.2656  0.1842
   49MOL   O12314619   1.932   1.298   2.896  0.4168 -0.4568 -0.2870
   49MOL   C12414620   1.933   1.338   3.024  0.3874 -0.3194  0.1071
   49MOL   O12514621   1.889   1.444   3.070 -0.3225  0.5988  0.3832
   49MOL   C12614622   1.990   1.229   3.116  0.6609  0.0562 -0.1635
   49MOL   C12714623   1.902   1.105   3.095 -0.0558 -0.2636 -0.1940
   49MOL   C12814624   2.032   1.482   2.746  0.5087 -0.7515 -0.4633
   49MOL   H12914625   1.838   1.476   2.816  0.9699  0.8924 -2.0329
   49MOL   H13014626   2.093   1.216   3.083  0.3982  0.1735 -1.0614
   49MOL   H13114627   1.989   1.260   3.220 -1.1293 -1.5346  0.3270
   49MOL   H13214628   1.796   1.116   3.070 -0.0329  2.9035  0.8637
   49MOL   H13314629   1.951   1.054   3.011  1.7659  0.5551  0.3449
   49MOL   H13414630   1.904   1.033   3.176 -2.0314 -0.1571 -0.0281
   49MOL   H13514631   2.064   1.541   2.833  1.5713 -0.0150 -1.3383
   49MOL   H13614632   2.111   1.412   2.720  0.5674  0.1693 -2.8333
   49MOL   C13714633   2.013   1.587   2.628 -0.3033  0.9156  0.7083
   49MOL   O13814634   1.905   1.674   2.661 -0.3480  0.0575  0.5327
   49MOL   C13914635   1.818   1.716   2.565  0.2563  0.1097 -0.2721
   49MOL   O14014636   1.812   1.665   2.454 -1.3084  0.3965 -0.1983
   49MOL   C14114637   1.718   1.822   2.609  0.3004 -1.3581 -0.0600
   49MOL   C14214638   1.782   1.932   2.702 -0.9265  0.1203  0.0679
   49MOL   C14314639   2.136   1.666   2.598 -0.3766 -0.3003 -0.5943
   49MOL   H14414640   1.991   1.534   2.535 -0.3722  2.1279  0.0243
   49MOL   H14514641   1.668   1.863   2.522  0.9447  3.0014  1.4988
   49MOL   H14614642   1.636   1.772   2.661 -0.7766  1.4686  1.0354
   49MOL   H14714643   1.844   2.004   2.648 -0.7068  0.0595  0.2374
   49MOL   H14814644   1.707   1.995   2.751  0.9495  1.6190  1.0990
   49MOL   H14914645   1.851   1.896   2.779 -0.6613  0.6467  0.0827
   49MOL   H15014646   2.112   1.753   2.537 -1.7812 -0.2752 -0.0275
   49MOL   H15114647   2.173   1.708   2.692  0.1050 -0.6629 -0.6199
   49MOL   C15214648   2.244   1.584   2.533  0.5226 -1.1347  0.5247
   49MOL   O15314649   2.201   1.539   2.407  0.0463  0.2573  0.0088
   49MOL   C15414650   2.214   1.406   2.381 -0.4388  0.0833 -0.3079
   49MOL   O15514651   2.264   1.313   2.452 -0.3399  0.1687  0.2873
   49MOL   C15614652   2.161   1.380   2.240  0.1654  0.4539  0.6931
   49MOL   C15714653   2.013   1.406   2.235 -0.2864 -0.1516 -0.5922
   49MOL   C15814654   2.380   1.663   2.521 -0.6788 -0.2639 -0.0666
   49MOL   H15914655   2.281   1.504   2.598  1.4600 -0.2074  1.1515
   49MOL   H16014656   2.218   1.445   2.173  0.9611  2.2295  3.0249
   49MOL   H16114657   2.186   1.277   2.214 -1.6861  0.3151 -0.6141
   49MOL   H16214658   1.982   1.508   2.253  1.6246  0.1539  1.0477
   49MOL   H16314659   1.985   1.392   2.130 -1.5607  0.2528 -0.3129
   49MOL   H16414660   1.947   1.336   2.286  1.0734 -1.8216 -1.0537
   49MOL   H16514661   2.416   1.689   2.620  0.8508 -1.1873 -0.3699
   49MOL   H16614662   2.461   1.598   2.489  2.2078  3.2139 -0.0274
   49MOL   C16714663   2.395   1.793   2.438  0.7723 -0.0016 -0.5990
   49MOL   O16814664   2.509   1.865   2.477 -0.2568  0.4684  0.6560
   49MOL   C16914665   2.512   1.999   2.506 -0.8967 -0.6574  0.2995
   49MOL   O17014666   2.412   2.071   2.512  0.3241  0.3813 -0.5297
   49MOL   C17114667   2.653   2.061   2.520  0.2393  0.6409  0.0465
   49MOL   C17214668   2.762   1.960   2.531 -0.3627 -0.3396  0.1714
   49MOL   C17314669   2.391   1.787   2.278  0.3985 -0.5487 -0.2073
   49MOL   H17414670   2.314   1.854   2.477  0.2100 -0.3720 -1.1900
   49MOL   H17514671   2.671   2.124   2.432  1.8011  0.7389  0.4092
   49MOL   H17614672   2.655   2.128   2.606  0.5021  0.4274  0.2082
   49MOL   H17714673   2.754   1.885   2.452  0.8171  0.7479 -1.0035
   49MOL   H17814674   2.856   2.014   2.531 -0.0658 -0.8312 -1.0944
   49MOL   H17914675   2.757   1.904   2.624 -3.8317  0.9007  0.7878
   49MOL   H18014676   2.476   1.838   2.232 -1.2586  1.9115 -0.6355
   49MOL   H18114677   2.404   1.685   2.243  0.6341 -0.5433 -0.1377
   49MOL   C18214678   2.247   1.827   2.236  0.1074 -0.0334 -0.9853
   49MOL   O18314679   2.231   1.963   2.268 -0.1548 -0.4699  0.1214
   49MOL   C18414680   2.114   2.005   2.332 -0.0838  0.2789  0.8822
   49MOL   O18514681   2.031   1.929   2.374 -0.2804  0.0147 -0.1633
   49MOL   C18614682   2.110   2.159   2.346  0.0755  0.6337 -0.2664
   49MOL   C18714683   2.043   2.211   2.471 -1.1204  0.1391 -0.0661
   49MOL   C18814684   2.227   1.819   2.081 -0.1040 -0.2154 -0.5562
   49MOL   H18914685   2.172   1.757   2.275 -1.1738 -0.0433 -3.3473
   49MOL   H19014686   2.206   2.210   2.342  0.8626 -0.7549  0.6609
   49MOL   H19114687   2.047   2.202   2.268  0.3759  0.5848 -0.5368
   49MOL   H19214688   2.035   2.319   2.456 -0.0684  0.5167  1.9835
   49MOL   H19314689   1.944   2.169   2.490 -0.7242 -1.2670 -1.0345
   49MOL   H19414690   2.101   2.193   2.561  2.8042  2.2192 -2.0578
   49MOL   H19514691   2.314   1.876   2.049  0.8490 -0.7482  1.0265
   49MOL   H19614692   2.230   1.717   2.043  1.7269  0.1619 -1.4762
   49MOL   C19714693   2.091   1.880   2.031 -0.8236  0.6988  0.2643
   49MOL   O19814694   2.095   1.920   1.890  0.3408 -0.2675  0.0003
   49MOL   C19914695   2.132   2.048   1.855  0.6864  0.0949  0.5690
   49MOL   O20014696   2.164   2.129   1.944  0.1225  0.2708 -0.1853
   49MOL   C20114697   2.141   2.064   1.705  0.0787  0.7962 -0.5224
   49MOL   C20214698   2.187   2.210   1.682 -0.4622  0.4360 -0.3704
   49MOL   C20314699   1.984   1.766   2.047  0.0713 -0.9188 -0.3764
   49MOL   H20414700   2.067   1.975   2.079  3.0218  2.9992 -2.0806
   49MOL   H20514701   2.210   1.998   1.652 -1.1768  0.2481 -1.5091
   49MOL   H20614702   2.048   2.057   1.647  1.1755 -1.9715 -2.0116
   49MOL   H20714703   2.141   2.288   1.743  0.6863 -0.7168  2.0555
   49MOL   H20814704   2.295   2.220   1.698 -0.5652 -0.0391  0.7152
   49MOL   H20914705   2.177   2.229   1.576  1.9876  1.9553 -0.3676
   49MOL   H21014706   2.005   1.669   2.000  0.5010 -1.1253  0.2330
   49MOL   H21114707   1.991   1.743   2.153 -0.2577  3.7462  0.7444
   49MOL   C21214708   1.834   1.815   2.029 -0.1306 -0.3864  0.2342
   49MOL   O21314709   1.803   1.826   1.885  0.5520 -0.5713  0.1088
   49MOL   C21414710   1.788   1.944   1.834  0.8437 -0.5725 -0.0667
   49MOL   O21514711   1.774   2.054   1.895  0.3875  0.5415 -0.3199
   49MOL   C21614712   1.756   1.940   1.690  0.4375  0.1379  0.4463
   49MOL   C21714713   1.614   1.993   1.659 -0.0370  0.5859  0.0036
   49MOL   C21814714   1.725   1.718   2.091  0.4381  0.5236  0.3045
   49MOL   H21914715   1.824   1.907   2.086 -2.3738 -0.2483 -0.3306
   49MOL   H22014716   1.839   1.983   1.634  0.2971 -0.8145 -0.5139
   49MOL   H22114717   1.753   1.833   1.667 -0.6814  0.1239  0.6250
   49MOL   H22214718   1.542   1.926   1.706  1.6924 -0.9329  0.5256
   49MOL   H22314719   1.604   2.090   1.707  0.4541  0.7026 -0.1270
   49MOL   H22414720   1.607   2.001   1.550 -2.0378  0.5202  0.0976
   49MOL   H22514721   1.748   1.620   2.047  1.1906  0.5594  0.6100
   49MOL   H22614722   1.744   1.707   2.198  2.6871  2.0406  0.1011
   49MOL   C22714723   1.580   1.755   2.060  0.1334  0.0992  0.3729
   49MOL   O22814724   1.503   1.640   2.053 -0.0023 -0.4971  0.0579
   49MOL   C22914725   1.449   1.596   1.933 -0.5579  0.3379 -0.4951
   49MOL   O23014726   1.458   1.658   1.827 -0.0270 -1.3462  0.1388
   49MOL   C23114727   1.365   1.468   1.951 -0.5169 -0.1536  0.0555
   49MOL   C23214728   1.240   1.508   2.034 -0.7330  0.1164 -0.0930
   49MOL   C23314729   1.521   1.853   2.166  0.2981  0.0244  0.0728
   49MOL   H23414730   1.576   1.801   1.962  1.5968 -1.2163 -0.3218
   49MOL   H23514731   1.337   1.448   1.847 -0.3779 -0.6647  0.1156
   49MOL   H23614732   1.421   1.384   1.992 -1.1669 -2.7142 -4.0187
   49MOL   H23714733   1.155   1.476   1.973 -0.2265 -1.1221 -0.1726
   49MOL   H23814734   1.229   1.447   2.124 -2.8590  0.0714 -0.3584
   49MOL   H23914735   1.224   1.614   2.053 -0.1853  0.0126  0.9570
   49MOL   H24014736   1.511   1.796   2.259 -1.1610 -1.8953 -1.2210
   49MOL   H24114737   1.597   1.925   2.196 -0.6232  0.3308  1.7759
   49MOL   C24214738   1.389   1.927   2.124  0.6538  0.2128  0.5844
   49MOL   O24314739   1.330   1.986   2.240 -0.1903 -0.0800 -0.3403
   49MOL   C24414740   1.245   1.923   2.318 -0.7023 -0.3647 -1.0195
   49MOL   O24514741   1.201   1.807   2.308  0.0396 -0.4344 -0.3476
   49MOL   C24614742   1.182   2.004   2.435 -0.4228 -0.3113 -0.3535
   49MOL   C24714743   1.106   2.127   2.393 -0.3641  0.4393  0.0507
   49MOL   C24814744   1.424   2.033   2.024 -0.2257  0.1856  0.4846
   49MOL   H24914745   1.323   1.859   2.070 -0.4652  1.5219  0.2555
   49MOL   H25014746   1.109   1.943   2.489  0.0606 -0.3747  0.2302
   49MOL   H25114747   1.259   2.030   2.507  1.5094 -2.3027 -1.6230
   49MOL   H25214748   1.145   2.180   2.307  0.4529  0.8437  0.6654
   49MOL   H25314749   1.005   2.107   2.357  0.4143  2.9721 -3.7562
   49MOL   H25414750   1.074   2.191   2.476  0.7727  1.5739 -0.3680
   49MOL   H25514751   1.512   2.086   2.059 -0.0495 -0.7381  1.4407
   49MOL   H25614752   1.454   2.000   1.925  0.5057  0.7181  0.5269
   49MOL   C25714753   1.299   2.126   1.991 -0.4702  0.9127  0.1491
   49MOL   O25814754   1.353   2.244   1.931  0.1675  0.6881 -0.4148
   49MOL   C25914755   1.329   2.366   1.986  0.2461 -0.1223 -0.2044
   49MOL   O26014756   1.279   2.384   2.096 -0.2096 -0.3544 -0.7690
   49MOL   C26114757   1.363   2.483   1.900  0.2229 -0.2789  0.4738
   49MOL   C26214758   1.353   2.469   1.751 -0.0141  0.8384 -0.2858
   49MOL   C26314759   1.204   2.052   1.888 -0.1923 -0.9242  0.2439
   49MOL   H26414760   1.250   2.152   2.084  0.2468 -0.4330  0.9202
   49MOL   H26514761   1.294   2.560   1.934  1.5582 -0.0583  2.7880
   49MOL   H26614762   1.466   2.509   1.925 -0.4160  1.9054  0.9092
   49MOL   H26714763   1.252   2.449   1.715  1.1323  0.5066 -3.4933
   49MOL   H26814764   1.383   2.559   1.697  0.3336  0.4918 -0.6766
   49MOL   H26914765   1.401   2.384   1.703 -1.1130 -0.1946  0.4077
   49MOL   H27014766   1.267   2.040   1.800  0.1159 -0.1181  0.3573
   49MOL   H27114767   1.166   1.960   1.933  0.2981 -0.7401  1.0455
   49MOL   C27214768   1.090   2.147   1.845 -0.1198 -0.3217  0.0450
   49MOL   O27314769   1.021   2.080   1.745  0.3127  1.0131 -0.1844
   49MOL   C27414770   0.990   2.140   1.626  0.1201 -0.2678 -1.0169
   49MOL   O27514771   1.018   2.255   1.593 -0.2359  0.0519  0.1784
   49MOL   C27614772   0.921   2.041   1.534 -0.3578 -0.6978 -0.2426
   49MOL   C27714773   1.021   1.961   1.441  0.1381 -0.7153 -0.4152
   49MOL   C27814774   0.990   2.187   1.958 -1.0081 -0.1943 -0.1591
   49MOL   H27914775   1.135   2.238   1.808 -0.3575  0.9483  2.7681
   49MOL   H28014776   0.855   1.976   1.591 -0.9568 -0.1093 -0.2690
   49MOL   H28114777   0.864   2.116   1.480  0.2127  0.1781  0.3716
   49MOL   H28214778   1.052   1.864   1.480 -0.3857 -1.2570 -1.3156
   49MOL   H28314779   0.971   1.934   1.348  0.3504  0.2571 -0.8233
   49MOL   H28414780   1.099   2.033   1.413  0.3517 -0.1176  1.6818
   49MOL   H28514781   0.959   2.095   2.008 -0.2689 -0.2557  0.1892
   49MOL   H28614782   1.037   2.249   2.035 -1.8447  0.4792 -0.1867
   49MOL   C28714783   0.875   2.283   1.913 -0.4581 -0.1369  0.5969
   49MOL   O28814784   0.783   2.277   2.027 -0.0721 -0.6165 -0.2611
   49MOL   C28914785   0.694   2.185   2.048  0.5286 -0.2432 -0.0470
   49MOL   O29014786   0.674   2.093   1.972  0.5439  0.1730 -0.1508
   49MOL   C29114787   0.603   2.213   2.167  0.7340 -0.6949  0.2187
   49MOL   C29214788   0.478   2.289   2.130 -0.4742 -0.2191  0.1430
   49MOL   C29314789   0.917   2.428   1.892 -0.4758  0.4873 -0.2357
   49MOL   H29414790   0.824   2.251   1.822 -0.1010 -1.8216  0.9715
   49MOL   H29514791   0.576   2.114   2.203  0.0928 -0.2400  1.0041
   49MOL   H29614792   0.649   2.271   2.247 -0.4449  0.1477  0.2943
   49MOL   H29714793   0.433   2.258   2.035  0.1284 -1.7407  0.3526
   49MOL   H29814794   0.398   2.282   2.203 -0.6229  1.4130  0.1717
   49MOL   H29914795   0.501   2.395   2.114 -1.4538  0.1885  1.3515
   49MOL   H30014796   0.955   2.473   1.984 -0.0970  1.5188 -0.8878
   49MOL   H30114797   0.993   2.441   1.815  0.4463 -1.4214  0.3163
   49MOL   H30214798   0.833   2.478   1.845 -0.2534  1.3194  0.2429
   50MOL     C114799   1.534   7.045   6.067  0.1881 -0.4520  0.1150
   50MOL     O214800   1.536   7.185   6.101  0.2197 -0.5071  0.2389
   50MOL     C314801   1.639   7.263   6.053  0.2240  0.3061 -0.1244
   50MOL     O414802   1.741   7.223   5.992 -0.1752 -0.3667  0.5742
   50MOL     C514803   1.606   7.407   6.077 -0.0597  0.4519  0.0808
   50MOL     C614804   1.726   7.490   6.044 -0.6434  0.0173  0.2364
   50MOL     C714805   1.530   6.962   6.191  0.1355 -0.2939 -0.0333
   50MOL     H814806   1.614   7.015   6.000 -1.1497 -1.8348 -0.9040
   50MOL     H914807   1.535   7.439   6.001 -0.8850  0.0215  0.6616
   50MOL    H1014808   1.576   7.424   6.181  1.7086  0.7244  0.5609
   50MOL    H1114809   1.763   7.480   5.942  0.2189 -0.6496  0.6005
   50MOL    H1214810   1.695   7.593   6.056 -0.8178  0.2198 -1.8484
   50MOL    H1314811   1.810   7.469   6.111 -0.3667 -0.2782 -0.2020
   50MOL    H1414812   1.635   6.947   6.217  0.1389 -0.0615  0.0791
   50MOL    H1514813   1.470   7.010   6.267 -1.8987 -1.2612 -0.9967
   50MOL    H1614814   1.452   7.032   5.996 -0.2961 -0.6832  0.7123
   50MOL    C1714815   1.478   6.817   6.158  0.1705 -0.1865  0.1252
   50MOL    O1814816   1.485   6.745   6.280  0.6251  0.6650 -0.4259
   50MOL    C1914817   1.568   6.648   6.307  0.2705  0.2758 -0.1844
   50MOL    O2014818   1.645   6.601   6.226  0.2229  0.3079  0.0567
   50MOL    C2114819   1.563   6.589   6.445  0.4576  0.0539 -0.7158
   50MOL    C2214820   1.578   6.681   6.573  0.2009  0.1073 -0.0999
   50MOL    C2314821   1.327   6.805   6.116 -0.2126 -0.4877  0.2378
   50MOL    H2414822   1.536   6.775   6.076  1.0372  1.4207 -0.0984
   50MOL    H2514823   1.463   6.549   6.457 -0.0814  1.0524 -1.8571
   50MOL    H2614824   1.646   6.519   6.457  0.0614 -0.0143  2.0017
   50MOL    H2714825   1.492   6.746   6.581 -0.0076 -0.3011  1.0336
   50MOL    H2814826   1.571   6.620   6.663  0.7785  0.7979  0.4187
   50MOL    H2914827   1.670   6.740   6.577 -0.2292  0.6837  1.5021
   50MOL    H3014828   1.260   6.849   6.189  1.0847  0.6459  0.7787
   50MOL    H3114829   1.324   6.867   6.026  2.5604 -1.3436 -0.5114
   50MOL    C3214830   1.272   6.669   6.077 -0.0892  0.2978 -0.6976
   50MOL    O3314831   1.136   6.681   6.020 -0.2054  0.2194 -0.6790
   50MOL    C3414832   1.022   6.686   6.091  0.6889  0.5776  0.3862
   50MOL    O3514833   1.019   6.697   6.212 -0.2145 -0.1933  0.3160
   50MOL    C3614834   0.899   6.686   6.004  0.1477  0.0551 -0.3220
   50MOL    C3714835   0.758   6.644   6.061  0.1527 -0.1872 -0.8390
   50MOL    C3814836   1.360   6.581   5.981  0.6297  0.1231 -0.0223
   50MOL    H3914837   1.264   6.612   6.170 -0.5614  1.5471  0.0281
   50MOL    H4014838   0.880   6.781   5.954 -1.3382 -2.1437 -4.1417
   50MOL    H4114839   0.924   6.625   5.917 -3.5094  0.3104 -1.6442
   50MOL    H4214840   0.686   6.644   5.980 -1.2337  2.2665  0.3410
   50MOL    H4314841   0.764   6.544   6.104 -1.5941 -0.9840 -2.3774
   50MOL    H4414842   0.716   6.702   6.143 -1.6858  1.1383 -2.6714
   50MOL    H4514843   1.343   6.618   5.879 -3.0781 -0.5380  0.2876
   50MOL    H4614844   1.467   6.581   6.003  0.9411  1.0084 -1.4487
   50MOL    C4714845   1.328   6.431   5.980  0.1603  0.2135 -0.1110
   50MOL    O4814846   1.352   6.375   6.108 -0.4205 -0.0016 -0.2438
   50MOL    C4914847   1.448   6.291   6.136 -0.6694  0.2246  0.1844
   50MOL    O5014848   1.520   6.228   6.061  0.0427 -0.1671 -0.0111
   50MOL    C5114849   1.466   6.273   6.294 -0.8933  0.4317 -0.0846
   50MOL    C5214850   1.609   6.219   6.322 -0.2944  0.4493 -0.4498
   50MOL    C5314851   1.184   6.404   5.943  0.1266  0.2693 -0.3542
   50MOL    H5414852   1.390   6.391   5.899  0.0009 -1.5085  0.6041
   50MOL    H5514853   1.464   6.373   6.338 -0.7842  1.4335 -2.2821
   50MOL    H5614854   1.388   6.218   6.347 -1.4002  0.6943 -0.5550
   50MOL    H5714855   1.653   6.240   6.420 -0.3656 -2.4245  0.2375
   50MOL    H5814856   1.624   6.113   6.302 -0.8708  0.1112  0.8413
   50MOL    H5914857   1.679   6.273   6.258  1.4883 -0.3842  0.7607
   50MOL    H6014858   1.125   6.437   6.029  0.1302 -1.4453  0.3182
   50MOL    H6114859   1.160   6.461   5.853  0.1194 -0.4050 -0.7843
   50MOL    C6214860   1.151   6.263   5.901  0.5619  0.0078 -0.5528
   50MOL    O6314861   1.009   6.253   5.921  0.4057  0.4531 -0.9012
   50MOL    C6414862   0.953   6.148   5.971 -0.0681 -0.5523 -0.5099
   50MOL    O6514863   1.018   6.044   6.005 -0.4515  0.2350 -0.2388
   50MOL    C6614864   0.805   6.167   5.986  0.2648  0.1165  0.3670
   50MOL    C6714865   0.762   6.087   6.103 -0.4951 -0.5411  0.2016
   50MOL    C6814866   1.199   6.223   5.767 -0.1564  0.1183  0.5626
   50MOL    H6914867   1.196   6.199   5.977  3.8424  2.9798  0.1794
   50MOL    H7014868   0.778   6.272   6.002 -1.0786 -0.0239 -0.8284
   50MOL    H7114869   0.761   6.145   5.889  2.2878 -1.3178 -0.2505
   50MOL    H7214870   0.653   6.092   6.107 -0.4301  0.0797  1.7440
   50MOL    H7314871   0.775   5.980   6.090 -1.0899 -0.6142  0.1715
   50MOL    H7414872   0.805   6.118   6.199  0.0687  0.3565 -0.3341
   50MOL    H7514873   1.137   6.279   5.696 -0.5151 -0.7543  0.1778
   50MOL    H7614874   1.304   6.252   5.758  0.2293 -1.8671 -1.6758
   50MOL    C7714875   1.178   6.085   5.723  0.2069  0.6088 -0.5227
   50MOL    O7814876   1.212   6.093   5.584  0.0075  0.2124 -0.1221
   50MOL    C7914877   1.128   6.061   5.495 -0.1859  0.1100 -0.1205
   50MOL    O8014878   1.004   6.047   5.510 -0.2034 -0.1706  0.2307
   50MOL    C8114879   1.196   6.055   5.362 -0.3843 -0.8913  0.4496
   50MOL    C8214880   1.259   5.916   5.348  0.1460 -0.1379 -0.5001
   50MOL    C8314881   1.287   6.000   5.787  0.8375  0.4890  0.2251
   50MOL    H8414882   1.078   6.048   5.747 -0.3680  1.7317 -1.1891
   50MOL    H8514883   1.111   6.057   5.294 -0.7166  2.7394  0.9068
   50MOL    H8614884   1.257   6.143   5.349 -2.5546  0.6717  0.4866
   50MOL    H8714885   1.186   5.841   5.379 -1.0396  0.7145 -1.1739
   50MOL    H8814886   1.287   5.896   5.244 -1.4977 -3.5744 -0.3812
   50MOL    H8914887   1.339   5.896   5.418  1.8423  0.4914 -2.2280
   50MOL    H9014888   1.389   6.028   5.758  0.7962  0.1626 -0.2341
   50MOL    H9114889   1.287   6.010   5.895 -0.3449 -1.2742  0.4055
   50MOL    C9214890   1.260   5.851   5.753 -0.0503 -0.5275 -0.3476
   50MOL    O9314891   1.380   5.788   5.806  0.6553 -0.3368 -0.1243
   50MOL    C9414892   1.481   5.754   5.717  0.1219 -0.4200 -0.1031
   50MOL    O9514893   1.479   5.711   5.603  0.1872  0.2025 -0.1464
   50MOL    C9614894   1.612   5.755   5.787 -0.0580 -0.2452  0.5263
   50MOL    C9714895   1.609   5.663   5.895  0.2155 -0.5518 -0.4919
   50MOL    C9814896   1.125   5.787   5.809 -0.2879  0.4480  0.7713
   50MOL    H9914897   1.263   5.839   5.645 -1.1399 -0.1194 -0.4286
   50MOL   H10014898   1.691   5.722   5.719 -0.8198 -0.6741 -0.1700
   50MOL   H10114899   1.639   5.850   5.832 -1.3357  0.5938 -0.4127
   50MOL   H10214900   1.530   5.690   5.965  0.3398 -3.2897  0.7627
   50MOL   H10314901   1.588   5.561   5.862 -2.4621 -0.0245 -0.5848
   50MOL   H10414902   1.704   5.660   5.947 -0.1221 -1.1950  0.0999
   50MOL   H10514903   1.118   5.798   5.917 -0.6885 -1.9672  1.0051
   50MOL   H10614904   1.039   5.840   5.768 -0.5699  0.4568  1.3736
   50MOL   C10714905   1.105   5.640   5.777  0.5997 -0.2794  0.1843
   50MOL   O10814906   1.209   5.572   5.844 -0.0472 -0.4454  0.2630
   50MOL   C10914907   1.242   5.454   5.794 -0.5290  0.1042  0.9079
   50MOL   O11014908   1.204   5.407   5.686  0.1420 -0.0270  0.2687
   50MOL   C11114909   1.340   5.376   5.878 -0.3409 -0.5456 -0.3143
   50MOL   C11214910   1.268   5.289   5.978 -0.1102  0.0824 -0.1065
   50MOL   C11314911   0.976   5.585   5.845  0.0392 -0.2768 -0.0549
   50MOL   H11414912   1.118   5.610   5.673  1.0422 -0.1719  0.2100
   50MOL   H11514913   1.407   5.315   5.816 -1.0145 -1.2107 -0.3943
   50MOL   H11614914   1.405   5.440   5.938 -0.6719 -1.1331  0.6619
   50MOL   H11714915   1.321   5.195   5.991 -0.2308  0.0004 -0.2002
   50MOL   H11814916   1.260   5.336   6.076  2.1073 -0.7032  0.4886
   50MOL   H11914917   1.171   5.253   5.943 -0.8489  0.2137  1.7741
   50MOL   H12014918   0.988   5.478   5.855  0.0513 -0.0153  3.0346
   50MOL   H12114919   0.967   5.619   5.948  2.1044 -0.6122  0.2570
   50MOL   C12214920   0.838   5.599   5.766 -0.0661 -0.1866 -0.0300
   50MOL   O12314921   0.826   5.742   5.744 -0.1517  0.6269 -0.4373
   50MOL   C12414922   0.712   5.807   5.790  0.0434 -0.3615  0.7519
   50MOL   O12514923   0.632   5.766   5.873  0.1286 -0.1294 -0.5059
   50MOL   C12614924   0.697   5.937   5.720  0.2126 -0.2488 -0.2445
   50MOL   C12714925   0.662   5.919   5.567  0.0499  0.4654  0.4414
   50MOL   C12814926   0.845   5.546   5.617  0.2268  0.5181  0.1645
   50MOL   H12914927   0.759   5.554   5.827  1.9500 -0.4978  2.4378
   50MOL   H13014928   0.619   5.986   5.778  1.5721 -0.9933  2.3078
   50MOL   H13114929   0.778   6.010   5.723  0.3175 -0.3663 -0.2154
   50MOL   H13214930   0.569   5.863   5.559 -0.7918  1.7495  0.9823
   50MOL   H13314931   0.668   6.017   5.520 -0.3578 -0.2743 -1.1613
   50MOL   H13414932   0.737   5.851   5.526 -0.2037  1.5738 -1.9354
   50MOL   H13514933   0.744   5.569   5.582  0.0078  0.3261  0.6650
   50MOL   H13614934   0.918   5.592   5.552  2.1634 -2.6398  0.0003
   50MOL   C13714935   0.855   5.391   5.602  0.0100  0.0397 -0.5003
   50MOL   O13814936   0.769   5.329   5.702  0.1894 -0.0287 -0.2794
   50MOL   C13914937   0.813   5.234   5.782  0.3601 -0.5461 -0.2886
   50MOL   O14014938   0.925   5.212   5.813 -0.0489 -0.5790 -0.4937
   50MOL   C14114939   0.704   5.145   5.839  0.2729  0.1377  0.1097
   50MOL   C14214940   0.685   5.020   5.758  0.3995 -0.0664  0.7124
   50MOL   C14314941   0.808   5.336   5.468 -0.0378  0.5411  0.5685
   50MOL   H14414942   0.954   5.355   5.627 -0.5040 -1.2417 -0.2358
   50MOL   H14514943   0.719   5.111   5.941  1.2353  1.8518  0.5647
   50MOL   H14614944   0.614   5.206   5.831  0.6330  0.6046 -0.4478
   50MOL   H14714945   0.644   4.953   5.834 -1.8546  0.7881  0.2786
   50MOL   H14814946   0.605   5.034   5.686  0.7596  0.7537  0.4631
   50MOL   H14914947   0.778   4.976   5.721  0.7839  0.5758  0.9075
   50MOL   H15014948   0.803   5.227   5.468  3.9665  0.2781 -0.0290
   50MOL   H15114949   0.705   5.373   5.461  0.0052  0.5735  0.0504
   50MOL   C15214950   0.892   5.384   5.340 -0.4188 -0.4362 -0.1343
   50MOL   O15314951   1.018   5.322   5.338  0.0755  0.0659 -0.5326
   50MOL   C15414952   1.133   5.391   5.370  0.1024 -0.6143 -0.3200
   50MOL   O15514953   1.144   5.511   5.387 -0.1811 -0.0757 -0.3341
   50MOL   C15614954   1.258   5.302   5.354  0.0739  0.2892  0.4942
   50MOL   C15714955   1.344   5.329   5.223 -0.1325 -0.7823 -0.0770
   50MOL   C15814956   0.819   5.346   5.214 -0.2101  0.0510 -0.1267
   50MOL   H15914957   0.913   5.489   5.362  0.7902 -0.8019  0.5461
   50MOL   H16014958   1.310   5.310   5.450  0.8672 -2.9509  0.4065
   50MOL   H16114959   1.218   5.200   5.355  2.7073 -0.7863  0.6550
   50MOL   H16214960   1.372   5.233   5.179 -0.2316  0.8783 -3.9004
   50MOL   H16314961   1.291   5.395   5.156 -1.0506  0.0013  1.3928
   50MOL   H16414962   1.434   5.385   5.249 -0.9518 -0.1827  1.5632
   50MOL   H16514963   0.884   5.369   5.130  0.7369  2.0738  1.1277
   50MOL   H16614964   0.817   5.237   5.211  0.1982  0.0314  0.3148
   50MOL   C16714965   0.684   5.407   5.194 -0.0034 -0.1141 -0.4794
   50MOL   O16814966   0.709   5.542   5.160 -0.7049  0.3262 -0.8336
   50MOL   C16914967   0.691   5.634   5.257  0.1930 -0.5718 -0.8638
   50MOL   O17014968   0.634   5.603   5.362 -0.0970  0.0475 -0.0092
   50MOL   C17114969   0.774   5.764   5.238 -0.1721  0.5009 -0.0857
   50MOL   C17214970   0.916   5.782   5.276 -0.0838  0.1560  0.2114
   50MOL   C17314971   0.615   5.359   5.062 -0.2574  0.2661  0.1279
   50MOL   H17414972   0.613   5.388   5.274  1.1805  1.3920  0.9618
   50MOL   H17514973   0.777   5.793   5.133  1.3134  0.5047 -0.0441
   50MOL   H17614974   0.718   5.845   5.286  0.4700  1.4755 -0.9552
   50MOL   H17714975   0.920   5.808   5.382  0.2292 -1.2675  0.5531
   50MOL   H17814976   0.979   5.694   5.269 -0.2005  0.1557 -0.9737
   50MOL   H17914977   0.975   5.849   5.213 -0.2516  0.3814  0.2918
   50MOL   H18014978   0.516   5.404   5.057 -0.0654  0.7177  0.3264
   50MOL   H18114979   0.680   5.389   4.980 -1.2303  2.6509  0.1686
   50MOL   C18214980   0.590   5.205   5.065 -0.6954  0.2945 -0.3172
   50MOL   O18314981   0.484   5.164   5.155  0.0590 -0.3602  0.1576
   50MOL   C18414982   0.517   5.107   5.279  0.2387 -0.5212 -0.2979
   50MOL   O18514983   0.630   5.071   5.316 -0.8186  0.1923  0.0695
   50MOL   C18614984   0.401   5.081   5.374  0.2857 -0.3974 -0.2655
   50MOL   C18714985   0.300   4.983   5.314  0.7147 -0.3477 -0.3725
   50MOL   C18814986   0.560   5.130   4.936  0.5458  0.1968  0.1308
   50MOL   H18914987   0.685   5.157   5.087 -1.3168 -0.6279  0.4468
   50MOL   H19014988   0.432   5.032   5.467 -1.7541  0.8224  1.1107
   50MOL   H19114989   0.365   5.181   5.400  1.3499 -0.0692 -0.0316
   50MOL   H19214990   0.234   4.941   5.390  0.9042 -2.6571 -1.4493
   50MOL   H19314991   0.247   5.035   5.235  1.1617  0.2214 -0.3032
   50MOL   H19414992   0.343   4.902   5.256 -1.2979 -0.6292 -1.5292
   50MOL   H19514993   0.535   5.026   4.956 -1.0635  0.5257 -0.0556
   50MOL   H19614994   0.468   5.172   4.893 -0.3334  0.1582  1.9293
   50MOL   C19714995   0.669   5.146   4.839 -0.5428 -0.1394  0.0391
   50MOL   O19814996   0.788   5.081   4.881 -0.4421  0.5868 -0.3522
   50MOL   C19914997   0.907   5.144   4.899 -0.1965 -0.2092  0.2222
   50MOL   O20014998   0.920   5.269   4.894 -0.0384 -0.2894 -0.6403
   50MOL   C20114999   1.021   5.045   4.941 -0.4806  0.2059 -0.1915
   50MOL   C20215000   1.115   5.097   5.048 -0.4314  0.6021 -0.4122
   50MOL   C20315001   0.632   5.079   4.704  0.0199 -0.1871  0.1018
   50MOL   H20415002   0.674   5.255   4.828 -0.0624 -0.2541 -0.9180
   50MOL   H20515003   0.976   4.950   4.971  0.5558 -0.3898 -0.4713
   50MOL   H20615004   1.088   5.026   4.857 -1.8318  0.4733 -1.3320
   50MOL   H20715005   1.208   5.041   5.036 -1.9436 -2.0968  0.1202
   50MOL   H20815006   1.130   5.204   5.036 -1.4877  0.7820 -0.1900
   50MOL   H20915007   1.079   5.072   5.148 -0.7226 -1.6594 -1.0592
   50MOL   H21015008   0.626   4.970   4.713 -0.0193 -0.1674  0.2914
   50MOL   H21115009   0.532   5.086   4.661 -0.8998 -0.1218  2.1995
   50MOL   C21215010   0.728   5.102   4.584 -0.4456 -0.3901  0.2342
   50MOL   O21315011   0.687   5.019   4.469 -0.6663 -0.2845  0.7776
   50MOL   C21415012   0.765   4.952   4.384 -0.2252  1.1921  0.3210
   50MOL   O21515013   0.891   4.964   4.375  0.2716  0.1724  0.1303
   50MOL   C21615014   0.684   4.870   4.289  0.5035 -0.3220 -0.4646
   50MOL   C21715015   0.730   4.724   4.288  0.1228  0.2213  0.3078
   50MOL   C21815016   0.744   5.253   4.541  0.0989  0.3732 -0.4696
   50MOL   H21915017   0.832   5.073   4.599 -0.0550 -0.4461 -2.3504
   50MOL   H22015018   0.578   4.880   4.314  1.0444  1.6056  1.2028
   50MOL   H22115019   0.697   4.919   4.192  0.8078  0.0368 -0.2415
   50MOL   H22215020   0.735   4.684   4.389 -0.6572 -2.5285 -0.7030
   50MOL   H22315021   0.651   4.662   4.244 -1.8912  0.9485  2.8078
   50MOL   H22415022   0.831   4.712   4.250 -0.7854  0.8342 -2.4510
   50MOL   H22515023   0.666   5.277   4.469 -1.6447 -1.6060  0.6921
   50MOL   H22615024   0.734   5.313   4.631 -0.2379 -1.6939  0.9086
   50MOL   C22715025   0.879   5.286   4.469  0.6333  0.4955  0.0649
   50MOL   O22815026   0.878   5.416   4.412  0.1646  0.2779 -0.4861
   50MOL   C22915027   0.838   5.440   4.289 -0.1912  0.1874  0.3563
   50MOL   O23015028   0.792   5.359   4.212  0.0752  0.6249  0.7241
   50MOL   C23115029   0.860   5.583   4.248  0.9088 -0.4695  0.0987
   50MOL   C23215030   0.822   5.608   4.102  0.6759 -0.4009  0.4665
   50MOL   C23315031   0.999   5.287   4.576 -0.5582 -0.2370 -0.3452
   50MOL   H23415032   0.906   5.216   4.391  1.4167  1.3429 -0.4329
   50MOL   H23515033   0.805   5.646   4.318  0.8128 -1.3319  0.8037
   50MOL   H23615034   0.967   5.597   4.266  1.4527 -1.1994 -2.3510
   50MOL   H23715035   0.719   5.583   4.074  0.8317 -0.5426  0.0134
   50MOL   H23815036   0.840   5.715   4.089  0.0213 -0.4947 -1.5040
   50MOL   H23915037   0.886   5.557   4.030 -0.7045 -0.8297 -0.4937
   50MOL   H24015038   0.975   5.370   4.643 -0.1857 -1.6696  1.6015
   50MOL   H24115039   1.015   5.196   4.634 -0.9734 -0.3919 -0.4741
   50MOL   C24215040   1.133   5.297   4.519 -0.2577 -0.5755 -0.2801
   50MOL   O24315041   1.221   5.365   4.613  0.4619  0.4313  0.0873
   50MOL   C24415042   1.276   5.313   4.719  0.7683 -0.2364  0.0691
   50MOL   O24515043   1.260   5.192   4.754  0.1396 -0.2627 -0.7664
   50MOL   C24615044   1.359   5.407   4.808 -0.5128  0.0482  0.1079
   50MOL   C24715045   1.486   5.327   4.858 -0.1235 -0.1557 -0.6923
   50MOL   C24815046   1.178   5.168   4.449 -0.4455 -0.4207  0.0800
   50MOL   H24915047   1.132   5.373   4.441  0.9765 -2.6142 -2.3343
   50MOL   H25015048   1.382   5.504   4.762  0.6741  0.3960  1.3871
   50MOL   H25115049   1.299   5.425   4.897  1.5657  2.1540  1.1361
   50MOL   H25215050   1.551   5.399   4.907  1.0862 -1.4146 -0.4140
   50MOL   H25315051   1.466   5.241   4.922  0.8382 -0.4477 -0.7727
   50MOL   H25415052   1.538   5.282   4.774 -0.3213  1.0401 -1.4634
   50MOL   H25515053   1.201   5.093   4.525 -0.8405 -0.3567  0.2630
   50MOL   H25615054   1.096   5.124   4.392 -0.4656 -1.3752  0.8317
   50MOL   C25715055   1.300   5.192   4.355 -0.3934  0.5650 -0.0601
   50MOL   O25815056   1.423   5.220   4.426  0.3182 -0.0119 -0.2647
   50MOL   C25915057   1.505   5.317   4.386  0.3619 -0.2744  0.2610
   50MOL   O26015058   1.483   5.385   4.290  0.5889 -0.2372  0.0817
   50MOL   C26115059   1.627   5.339   4.476 -0.1993  0.1099  0.2807
   50MOL   C26215060   1.732   5.448   4.432 -0.1881  0.1597  0.5823
   50MOL   C26315061   1.324   5.083   4.254  0.3786  0.0424 -0.0036
   50MOL   H26415062   1.285   5.276   4.287 -1.0320  0.2182 -0.3493
   50MOL   H26515063   1.593   5.365   4.576  2.1210 -1.4429  1.5264
   50MOL   H26615064   1.678   5.243   4.477 -1.1564 -0.3992  0.7171
   50MOL   H26715065   1.791   5.474   4.520 -2.2272  1.0046  1.7200
   50MOL   H26815066   1.791   5.403   4.352  0.1729 -2.1756  2.1470
   50MOL   H26915067   1.681   5.538   4.396  0.9562  1.7873  2.9364
   50MOL   H27015068   1.421   5.098   4.207 -1.2482  1.4885 -3.0877
   50MOL   H27115069   1.333   4.983   4.296  3.1013 -0.2383 -1.1617
   50MOL   C27215070   1.233   5.092   4.137 -0.1772 -0.7052  0.1487
   50MOL   O27315071   1.277   5.193   4.046  0.1006 -0.3865 -0.0939
   50MOL   C27415072   1.207   5.304   4.030 -0.0087 -0.5586 -0.2267
   50MOL   O27515073   1.107   5.336   4.098  0.7284  0.5418  0.0502
   50MOL   C27615074   1.261   5.385   3.906 -0.6970  0.5469 -0.2522
   50MOL   C27715075   1.281   5.535   3.936  0.1720 -0.5200 -0.2810
   50MOL   C27815076   1.217   4.961   4.055 -0.1274  0.1952  0.1647
   50MOL   H27915077   1.132   5.107   4.175  0.9502  2.7294  2.0080
   50MOL   H28015078   1.349   5.334   3.869 -1.3215 -1.7481  1.2845
   50MOL   H28115079   1.189   5.374   3.825 -2.1179 -0.6909  1.1165
   50MOL   H28215080   1.183   5.583   3.942  0.6206  0.4219 -0.3773
   50MOL   H28315081   1.330   5.544   4.033 -0.6510 -0.5851  0.1474
   50MOL   H28415082   1.333   5.595   3.862  0.2611  0.5252  0.6299
   50MOL   H28515083   1.195   4.984   3.950 -3.0071 -1.2206  0.4188
   50MOL   H28615084   1.303   4.894   4.058 -0.1777  0.1005 -0.4326
   50MOL   C28715085   1.096   4.880   4.105 -0.0334 -0.5157  0.3239
   50MOL   O28815086   1.081   4.780   4.001  0.2174  0.0100 -0.1978
   50MOL   C28915087   0.967   4.749   3.952 -0.0353  0.0378  0.3108
   50MOL   O29015088   0.857   4.808   3.961 -0.3283  0.0295  0.2355
   50MOL   C29115089   0.965   4.607   3.888  0.8472 -0.2225 -0.3428
   50MOL   C29215090   1.008   4.488   3.975 -0.9302  0.0608  0.1242
   50MOL   C29315091   1.117   4.806   4.241 -0.3230  0.2473  0.2174
   50MOL   H29415092   1.002   4.935   4.117 -0.9175 -2.0647  0.5705
   50MOL   H29515093   0.865   4.574   3.859  1.3428 -2.2660  0.1575
   50MOL   H29615094   1.021   4.592   3.796  2.0046 -0.4476  0.3918
   50MOL   H29715095   1.112   4.499   4.009 -1.0676 -1.3944  1.0745
   50MOL   H29815096   0.950   4.496   4.067 -1.3276 -0.4698 -0.0808
   50MOL   H29915097   1.005   4.391   3.926  1.0090  0.3514 -0.6335
   50MOL   H30015098   1.038   4.736   4.267 -0.8565  0.9303  0.4332
   50MOL   H30115099   1.210   4.750   4.239 -0.0043  0.7341  0.9777
   50MOL   H30215100   1.117   4.878   4.323  1.6977  0.4745  0.0451
   51MOL     C115101   2.851   3.843   5.563  0.6387 -0.6583  0.4671
   51MOL     O215102   2.926   3.741   5.634  0.6390  0.2792 -0.1838
   51MOL     C315103   2.995   3.775   5.742 -0.2296  0.2584 -0.6829
   51MOL     O415104   3.019   3.888   5.779  0.4424  0.1986 -0.0527
   51MOL     C515105   3.061   3.649   5.795  0.0647 -0.9664 -0.2935
   51MOL     C615106   3.146   3.570   5.697  0.2049  0.1368 -0.3183
   51MOL     C715107   2.722   3.775   5.504  0.3756  0.1615  0.5199
   51MOL     H815108   2.916   3.886   5.488  0.5129  1.1448  1.3716
   51MOL     H915109   3.122   3.682   5.880  1.1403  0.2763 -1.5310
   51MOL    H1015110   2.981   3.584   5.830 -2.1222  0.1220 -3.0953
   51MOL    H1115111   3.186   3.629   5.614  1.3351  0.6630  0.5834
   51MOL    H1215112   3.227   3.518   5.748  1.0492  1.0903 -0.6610
   51MOL    H1315113   3.073   3.501   5.656 -0.8177  0.5611  0.7646
   51MOL    H1415114   2.753   3.690   5.443  1.1026  0.1500  0.9003
   51MOL    H1515115   2.652   3.743   5.580 -1.0207 -0.0262 -0.8287
   51MOL    H1615116   2.826   3.926   5.629 -1.3306 -0.8067 -0.0429
   51MOL    C1715117   2.644   3.866   5.411 -0.5537 -0.3378 -0.0026
   51MOL    O1815118   2.734   3.910   5.308  0.6432 -0.0864  0.0743
   51MOL    C1915119   2.714   4.023   5.233 -0.9764  0.1104  0.0521
   51MOL    O2015120   2.628   4.106   5.242  0.1646 -0.1930  0.3449
   51MOL    C2115121   2.813   4.026   5.113  0.0571  0.2772 -0.1504
   51MOL    C2215122   2.820   3.896   5.038  1.1427  0.1025  0.0981
   51MOL    C2315123   2.526   3.788   5.350  0.0565 -0.0396 -0.8655
   51MOL    H2415124   2.611   3.950   5.471 -0.1838 -0.1077 -0.1228
   51MOL    H2515125   2.796   4.115   5.052 -1.7639 -1.3801 -2.1286
   51MOL    H2615126   2.914   4.044   5.149 -0.0955  2.6451 -0.8173
   51MOL    H2715127   2.720   3.876   5.001  1.4522 -2.0892  0.3566
   51MOL    H2815128   2.891   3.912   4.957 -0.4600  1.9490 -0.9743
   51MOL    H2915129   2.860   3.816   5.100  1.7874 -0.7228 -1.3358
   51MOL    H3015130   2.487   3.861   5.280  2.6487  2.5407  0.2643
   51MOL    H3115131   2.562   3.698   5.300 -0.6095 -0.1476 -1.1473
   51MOL    C3215132   2.420   3.772   5.463  0.4064 -0.3198 -0.3653
   51MOL    O3315133   2.390   3.901   5.525  0.2772 -0.1157 -0.1327
   51MOL    C3415134   2.345   3.898   5.651  0.2929 -0.1968  0.4806
   51MOL    O3515135   2.372   3.810   5.729 -0.5729 -0.1799  0.5630
   51MOL    C3615136   2.254   4.014   5.699 -0.5672 -0.3166  0.0490
   51MOL    C3715137   2.337   4.124   5.760  0.1645  0.8020 -0.2634
   51MOL    C3815138   2.290   3.706   5.410  0.5448  0.1420 -0.4415
   51MOL    H3915139   2.452   3.700   5.538  2.5923  1.4217  0.4453
   51MOL    H4015140   2.181   4.036   5.621  0.6225 -0.2615 -1.0720
   51MOL    H4115141   2.190   3.971   5.775 -1.0387  3.0359  1.6261
   51MOL    H4215142   2.406   4.161   5.684 -1.2737 -1.0808 -2.5627
   51MOL    H4315143   2.273   4.205   5.795 -0.9350 -0.6316  1.1592
   51MOL    H4415144   2.394   4.088   5.845 -0.0426  0.1649 -0.3923
   51MOL    H4515145   2.243   3.675   5.503 -0.4738 -1.2707 -1.4083
   51MOL    H4615146   2.229   3.785   5.365 -0.4924 -0.8000 -0.7164
   51MOL    C4715147   2.304   3.585   5.320 -0.9166  0.2766 -0.1938
   51MOL    O4815148   2.369   3.477   5.399  1.1091  0.3113  0.1700
   51MOL    C4915149   2.456   3.391   5.345 -0.0892  0.6852  0.6660
   51MOL    O5015150   2.490   3.378   5.223  0.7616 -0.0959 -0.3751
   51MOL    C5115151   2.516   3.304   5.458 -0.3843  0.2548 -0.4237
   51MOL    C5215152   2.619   3.383   5.544 -0.4426 -0.3475 -0.4405
   51MOL    C5315153   2.163   3.553   5.270 -0.4119  1.1145  0.0906
   51MOL    H5415154   2.373   3.613   5.241 -1.6644 -1.0540 -1.3313
   51MOL    H5515155   2.434   3.274   5.523 -0.1013 -2.4571 -1.2809
   51MOL    H5615156   2.564   3.221   5.406 -0.5611 -1.7460  2.4963
   51MOL    H5715157   2.659   3.329   5.630 -2.6722 -1.5034 -0.0874
   51MOL    H5815158   2.706   3.419   5.490  0.9438 -1.9167  0.6753
   51MOL    H5915159   2.573   3.470   5.590  0.5976  0.0351 -0.0909
   51MOL    H6015160   2.122   3.492   5.350 -0.6780 -2.0921 -2.3905
   51MOL    H6115161   2.096   3.639   5.269 -1.2734  0.4533  0.5007
   51MOL    C6215162   2.152   3.481   5.134  0.3500  0.5144  0.2611
   51MOL    O6315163   2.029   3.406   5.153 -0.6389  0.1224  0.2499
   51MOL    C6415164   2.022   3.274   5.151  0.2349  0.3412 -0.0323
   51MOL    O6515165   2.109   3.198   5.109 -0.3053 -0.1285  0.2262
   51MOL    C6615166   1.893   3.213   5.199 -0.0979 -0.2956  0.0011
   51MOL    C6715167   1.769   3.287   5.147 -0.4946  0.2730  0.1026
   51MOL    C6815168   2.136   3.564   5.002  0.3734  0.7296  0.2383
   51MOL    H6915169   2.240   3.418   5.122  0.8305  0.7951  2.0112
   51MOL    H7015170   1.877   3.114   5.156  2.3871 -0.4993 -0.5114
   51MOL    H7115171   1.903   3.198   5.306  0.0752  0.5955  0.1089
   51MOL    H7215172   1.677   3.229   5.157  1.1885 -2.4636  0.4974
   51MOL    H7315173   1.764   3.389   5.185  3.1431  0.2116  0.9093
   51MOL    H7415174   1.775   3.303   5.039  0.0649 -0.9863 -0.0663
   51MOL    H7515175   2.121   3.491   4.923 -0.0636 -0.7825  1.6983
   51MOL    H7615176   2.038   3.612   5.001 -0.1676 -0.3639 -0.0258
   51MOL    C7715177   2.251   3.669   4.973  0.2878 -0.0070  0.4806
   51MOL    O7815178   2.358   3.589   4.929  0.1051 -0.4578 -0.0957
   51MOL    C7915179   2.486   3.630   4.949  0.2686 -0.0003 -0.2078
   51MOL    O8015180   2.527   3.727   5.012  0.4279 -0.3972  0.2462
   51MOL    C8115181   2.578   3.525   4.898  0.3256  0.0822 -0.3246
   51MOL    C8215182   2.707   3.507   4.968 -0.4442  0.1043 -0.0665
   51MOL    C8315183   2.205   3.763   4.864  0.4006 -0.4333 -0.0062
   51MOL    H8415184   2.286   3.725   5.060 -0.9382  0.9694  0.3574
   51MOL    H8515185   2.522   3.431   4.908  1.9170 -0.8296  0.2595
   51MOL    H8615186   2.598   3.531   4.791  0.3757 -1.5353 -0.4256
   51MOL    H8715187   2.763   3.424   4.924  1.3186  1.9368 -1.3909
   51MOL    H8815188   2.767   3.597   4.959  1.1067 -0.7142  1.8186
   51MOL    H8915189   2.672   3.475   5.066  1.6951  1.3646  1.1306
   51MOL    H9015190   2.287   3.801   4.802  0.6361  0.1432  0.6504
   51MOL    H9115191   2.140   3.705   4.798  1.6948 -1.7707 -0.1436
   51MOL    C9215192   2.114   3.873   4.913 -0.0028  0.1226 -0.8564
   51MOL    O9315193   2.183   3.968   5.003  0.1474 -0.1194  0.6467
   51MOL    C9415194   2.146   3.987   5.129  0.3867 -0.6032 -0.0749
   51MOL    O9515195   2.088   3.907   5.209  0.0174 -0.1711 -0.2408
   51MOL    C9615196   2.195   4.126   5.191  0.3219 -0.4558 -0.6871
   51MOL    C9715197   2.282   4.115   5.307  0.0979  0.0738  0.6529
   51MOL    C9815198   2.040   3.951   4.798  0.5577  0.2635  0.2414
   51MOL    H9915199   2.045   3.817   4.977  0.9636 -1.2005 -0.9543
   51MOL   H10015200   2.250   4.190   5.122  1.4193  0.3808  0.9351
   51MOL   H10115201   2.109   4.181   5.229 -0.1345 -1.8889  0.3833
   51MOL   H10215202   2.341   4.024   5.311 -1.2203 -0.8301  0.0480
   51MOL   H10315203   2.360   4.190   5.315  1.4848 -1.2475 -0.2314
   51MOL   H10415204   2.226   4.117   5.401  2.0088 -0.0555  1.8133
   51MOL   H10515205   1.990   4.038   4.842  2.1085  0.1882  2.1921
   51MOL   H10615206   2.119   3.985   4.732 -0.9398  0.4833 -1.5055
   51MOL   C10715207   1.941   3.850   4.721 -0.1184  0.1956 -0.1517
   51MOL   O10815208   1.846   3.803   4.818  0.7337 -0.1061 -0.8558
   51MOL   C10915209   1.811   3.672   4.817 -0.0923 -0.0782  0.6497
   51MOL   O11015210   1.852   3.586   4.742  0.3992  0.2019  0.2204
   51MOL   C11115211   1.717   3.626   4.924  0.0242  0.1128 -0.2838
   51MOL   C11215212   1.612   3.739   4.956 -0.5383  0.0531  0.1473
   51MOL   C11315213   1.859   3.914   4.602  0.4569 -0.1804  0.2572
   51MOL   H11415214   1.997   3.767   4.678 -0.0566 -0.1239  0.5318
   51MOL   H11515215   1.676   3.530   4.892  0.7132 -0.3189  0.1305
   51MOL   H11615216   1.773   3.616   5.017 -1.2369 -0.8529  0.4067
   51MOL   H11715217   1.508   3.722   4.927 -0.3070 -1.8552  0.3550
   51MOL   H11815218   1.602   3.749   5.064 -2.5661  0.9293 -0.0858
   51MOL   H11915219   1.640   3.837   4.918 -0.6703  1.1163  2.7049
   51MOL   H12015220   1.778   3.845   4.578  1.0385 -1.1560  1.0438
   51MOL   H12115221   1.802   4.000   4.636  1.1847  0.2423  0.4125
   51MOL   C12215222   1.931   3.947   4.463  0.9020  0.1957 -0.6048
   51MOL   O12315223   2.034   4.035   4.495  0.2016  0.0166  0.0420
   51MOL   C12415224   2.043   4.163   4.445 -0.0386 -0.6059 -0.9294
   51MOL   O12515225   1.973   4.208   4.361  0.2635 -0.2302 -0.4647
   51MOL   C12615226   2.156   4.244   4.506  0.4629  0.7094 -1.2134
   51MOL   C12715227   2.140   4.278   4.656 -1.0622 -0.1594  0.1926
   51MOL   C12815228   1.991   3.826   4.386 -0.1587  0.2046 -0.4610
   51MOL   H12915229   1.863   3.989   4.388 -0.3055  1.6343  1.2690
   51MOL   H13015230   2.250   4.193   4.483 -1.2949 -2.9803 -0.5958
   51MOL   H13115231   2.159   4.333   4.443 -2.4638  2.4823  1.0203
   51MOL   H13215232   2.094   4.196   4.710  0.8698 -1.2903  0.1446
   51MOL   H13315233   2.235   4.284   4.709 -1.0271 -0.6977  0.1928
   51MOL   H13415234   2.083   4.369   4.677  0.6555  0.5892  1.7205
   51MOL   H13515235   2.077   3.859   4.328  1.1051 -2.1966 -0.0114
   51MOL   H13615236   2.039   3.755   4.453 -1.9660 -2.6290 -2.0556
   51MOL   C13715237   1.891   3.732   4.302 -0.2653 -0.4135 -0.1784
   51MOL   O13815238   1.803   3.662   4.383 -0.3701  0.3442 -0.5402
   51MOL   C13915239   1.789   3.526   4.362  0.2728  0.9177  0.8154
   51MOL   O14015240   1.845   3.453   4.282 -0.4982  0.2420 -0.3628
   51MOL   C14115241   1.680   3.475   4.450  1.3167 -0.1777 -0.3310
   51MOL   C14215242   1.540   3.503   4.386 -0.1924 -0.2518 -0.1438
   51MOL   C14315243   1.794   3.812   4.213  0.4102 -0.0351  0.2513
   51MOL   H14415244   1.943   3.658   4.242 -1.4069 -0.7413 -0.7534
   51MOL   H14515245   1.685   3.367   4.461 -0.7966 -0.0747  2.0189
   51MOL   H14615246   1.698   3.520   4.548 -1.6661 -1.2407  0.7518
   51MOL   H14715247   1.466   3.533   4.460 -0.3590  2.9755 -1.5426
   51MOL   H14815248   1.531   3.574   4.304 -3.2245 -1.5441 -1.0158
   51MOL   H14915249   1.502   3.410   4.342 -2.5635  0.3528  0.5735
   51MOL   H15015250   1.723   3.740   4.171 -0.4712  1.2934 -0.5505
   51MOL   H15115251   1.741   3.890   4.267 -1.8284 -1.1316 -0.3278
   51MOL   C15215252   1.874   3.879   4.094  0.3482 -0.4570  0.0741
   51MOL   O15315253   1.897   3.779   3.989  0.1311  0.5686 -0.4914
   51MOL   C15415254   2.019   3.725   3.983  0.8485  0.4908 -0.0343
   51MOL   O15515255   2.107   3.743   4.071  0.8336 -0.0751 -0.3004
   51MOL   C15615256   2.047   3.637   3.864  0.0674 -0.4873  0.1270
   51MOL   C15715257   2.183   3.572   3.871  0.6408 -0.3488  0.3358
   51MOL   C15815258   1.787   3.991   4.034  0.2662 -0.4285  0.0965
   51MOL   H15915259   1.971   3.914   4.127  1.5280 -2.4637 -1.1712
   51MOL   H16015260   1.961   3.572   3.854 -0.8138  0.8457 -1.1680
   51MOL   H16115261   2.064   3.692   3.771  3.0030  0.0759  0.9473
   51MOL   H16215262   2.260   3.647   3.891  3.5338 -3.2179  0.2724
   51MOL   H16315263   2.187   3.510   3.960  0.7407  0.7040  1.0772
   51MOL   H16415264   2.215   3.514   3.784  3.2224  0.0030  1.0225
   51MOL   H16515265   1.689   3.946   4.018  0.0873  0.4043 -1.2157
   51MOL   H16615266   1.774   4.073   4.104  0.8194  0.5754 -0.9532
   51MOL   C16715267   1.838   4.043   3.893 -0.0411  0.0941  0.0651
   51MOL   O16815268   1.976   4.073   3.893 -0.0469  0.0450 -0.7382
   51MOL   C16915269   2.023   4.192   3.936  0.6498 -0.2723  0.3488
   51MOL   O17015270   1.956   4.282   3.978  0.4042  0.3027  0.1023
   51MOL   C17115271   2.172   4.190   3.920  0.6001 -0.4772  0.4935
   51MOL   C17215272   2.255   4.159   4.049  0.0574 -0.1420 -0.0561
   51MOL   C17315273   1.792   3.954   3.783  0.3875  0.5150 -0.0873
   51MOL   H17415274   1.780   4.135   3.889  0.1633  0.1525 -1.7264
   51MOL   H17515275   2.187   4.106   3.851  0.5899  1.4458 -1.9255
   51MOL   H17615276   2.199   4.286   3.877 -0.9667  1.0359  2.7627
   51MOL   H17715277   2.242   4.236   4.125  1.3125  0.4399 -0.4220
   51MOL   H17815278   2.219   4.061   4.081  0.6128  0.6709  3.3140
   51MOL   H17915279   2.359   4.155   4.018  0.7070  0.7700  1.9049
   51MOL   H18015280   1.879   3.923   3.725 -0.6747 -1.0279 -0.8775
   51MOL   H18115281   1.757   3.853   3.801  3.2718 -0.4787  0.2648
   51MOL   C18215282   1.684   4.018   3.692  0.0025  0.2045 -0.1734
   51MOL   O18315283   1.752   4.116   3.608 -0.0164  0.7377 -0.0557
   51MOL   C18415284   1.737   4.247   3.619  0.5456  0.6581 -1.0062
   51MOL   O18515285   1.656   4.301   3.695  0.1469 -0.0013  1.0708
   51MOL   C18615286   1.811   4.319   3.514 -0.1724 -0.5054  0.6354
   51MOL   C18715287   1.743   4.313   3.374 -0.1006  0.6683 -0.4448
   51MOL   C18815288   1.623   3.920   3.600  0.8720  0.1675 -0.6491
   51MOL   H18915289   1.605   4.054   3.758  0.7959  0.1473  0.8225
   51MOL   H19015290   1.813   4.420   3.556 -0.4060  0.4087 -1.4822
   51MOL   H19115291   1.911   4.275   3.509 -0.4912 -1.1576 -0.2552
   51MOL   H19215292   1.803   4.358   3.295 -0.0446  0.2276 -0.6551
   51MOL   H19315293   1.715   4.214   3.337 -1.3380  0.9536 -0.2980
   51MOL   H19415294   1.648   4.367   3.377 -0.1117  0.5634  1.3645
   51MOL   H19515295   1.573   3.970   3.517 -1.0753 -0.0599  0.3531
   51MOL   H19615296   1.698   3.858   3.550  1.1628 -0.4320  0.5362
   51MOL   C19715297   1.519   3.826   3.667  0.3423  0.1930 -0.3059
   51MOL   O19815298   1.422   3.897   3.741 -0.0859 -0.0279 -0.5340
   51MOL   C19915299   1.406   3.879   3.875 -0.9679  0.4397  0.2174
   51MOL   O20015300   1.481   3.815   3.947  0.6765  0.1491  0.0661
   51MOL   C20115301   1.279   3.939   3.935 -0.6572 -0.8604 -1.0588
   51MOL   C20215302   1.312   4.017   4.064 -0.4717  0.1905  0.1227
   51MOL   C20315303   1.452   3.724   3.569 -0.1028  0.3571 -0.0652
   51MOL   H20415304   1.579   3.762   3.732  0.6878 -0.8881 -1.6509
   51MOL   H20515305   1.242   4.010   3.861 -1.8190  0.8977  1.1743
   51MOL   H20615306   1.200   3.868   3.959  0.8901 -1.9590  0.8985
   51MOL   H20715307   1.367   4.111   4.052  0.8656 -0.3388  1.9495
   51MOL   H20815308   1.211   4.035   4.102 -1.6194 -2.6225 -1.4863
   51MOL   H20915309   1.370   3.962   4.138  1.0581  0.0036 -1.1924
   51MOL   H21015310   1.366   3.673   3.613  1.8170 -1.5443  1.6108
   51MOL   H21115311   1.415   3.786   3.488  0.3458 -0.0269 -0.5650
   51MOL   C21215312   1.552   3.615   3.509  0.4402  0.2584  0.4895
   51MOL   O21315313   1.591   3.523   3.602  0.0220  0.2309 -0.3731
   51MOL   C21415314   1.705   3.528   3.663 -0.3687 -0.2854 -0.5282
   51MOL   O21515315   1.797   3.606   3.641 -0.8426  0.1465  0.4030
   51MOL   C21615316   1.706   3.425   3.769  0.0932 -1.1214  0.1902
   51MOL   C21715317   1.597   3.450   3.872  0.0031 -0.0715  0.3031
   51MOL   C21815318   1.472   3.537   3.401 -0.0413 -0.1644 -0.2050
   51MOL   H21915319   1.637   3.668   3.467  0.3917 -0.6888 -0.8188
   51MOL   H22015320   1.689   3.326   3.725  1.6289 -0.8442 -1.1058
   51MOL   H22115321   1.803   3.446   3.813 -0.2280  0.3335  0.2343
   51MOL   H22215322   1.499   3.442   3.824 -0.0547  2.1542 -0.0045
   51MOL   H22315323   1.611   3.373   3.948 -0.2742  2.1739  2.6581
   51MOL   H22415324   1.599   3.549   3.917 -1.4021  1.4772 -2.8590
   51MOL   H22515325   1.523   3.442   3.382  0.8813  0.4382 -0.7855
   51MOL   H22615326   1.376   3.498   3.436 -0.0649 -1.5099 -1.7138
   51MOL   C22715327   1.460   3.608   3.266  0.1041  0.0656 -0.4351
   51MOL   O22815328   1.584   3.629   3.213  0.7190  0.1704 -0.5989
   51MOL   C22915329   1.637   3.752   3.214 -0.2041 -0.2568  0.1432
   51MOL   O23015330   1.590   3.853   3.273  0.0699 -0.2538 -0.1031
   51MOL   C23115331   1.766   3.755   3.143  0.0246  0.0255 -0.1775
   51MOL   C23215332   1.800   3.901   3.094  1.0064 -0.1915 -0.4450
   51MOL   C23315333   1.390   3.508   3.167 -0.0085 -0.0606  0.0581
   51MOL   H23415334   1.399   3.699   3.274  0.1979 -0.0139  1.3642
   51MOL   H23515335   1.841   3.713   3.209 -0.8427 -0.2758  0.6241
   51MOL   H23615336   1.752   3.694   3.053  0.8893  1.9356 -1.6423
   51MOL   H23715337   1.719   3.934   3.030  0.2400 -0.9635  0.1089
   51MOL   H23815338   1.813   3.966   3.180 -0.3099  0.1796 -0.5147
   51MOL   H23915339   1.894   3.895   3.040  1.2449 -0.2019 -0.0268
   51MOL   H24015340   1.446   3.418   3.140  1.0827 -0.3484  3.1122
   51MOL   H24115341   1.306   3.466   3.221 -0.2097 -0.8743 -0.8678
   51MOL   C24215342   1.331   3.589   3.044 -0.5950 -0.1067  0.4122
   51MOL   O24315343   1.392   3.537   2.930  0.8049  0.4918  0.7409
   51MOL   C24415344   1.454   3.618   2.841  0.2684  0.2454 -0.1477
   51MOL   O24515345   1.476   3.736   2.867  0.3738  0.3998  0.0786
   51MOL   C24615346   1.492   3.554   2.703 -0.0858 -0.2105  0.7967
   51MOL   C24715347   1.535   3.407   2.707  0.7102  0.2765 -0.5590
   51MOL   C24815348   1.179   3.598   3.017  0.0954  0.2412  0.3533
   51MOL   H24915349   1.351   3.695   3.060 -1.9556  0.2421 -0.1220
   51MOL   H25015350   1.420   3.576   2.624  1.1517  3.8520  0.7292
   51MOL   H25115351   1.572   3.624   2.681 -2.0614  1.5891 -0.8687
   51MOL   H25215352   1.576   3.388   2.608 -0.1293  0.1482 -0.8883
   51MOL   H25315353   1.607   3.399   2.788  0.2166  0.8392 -0.0642
   51MOL   H25415354   1.451   3.338   2.716 -0.2497  1.4421 -0.4307
   51MOL   H25515355   1.144   3.646   2.926 -1.8482 -0.3718  0.7500
   51MOL   H25615356   1.146   3.494   3.016 -1.8535  0.8447  0.6619
   51MOL   C25715357   1.121   3.666   3.134  0.0139 -0.2238  0.2848
   51MOL   O25815358   1.162   3.802   3.136  0.3522 -0.0279 -0.1636
   51MOL   C25915359   1.206   3.869   3.240 -0.7255  0.1970  0.5136
   51MOL   O26015360   1.224   3.823   3.351  0.3062  0.0998  0.8323
   51MOL   C26115361   1.231   4.014   3.202  0.1556  0.0381  0.0858
   51MOL   C26215362   1.304   4.022   3.075  0.1951 -0.4041  0.0205
   51MOL   C26315363   0.968   3.660   3.147 -0.1344  0.1153 -0.2796
   51MOL   H26415364   1.155   3.617   3.225 -0.0448  1.3315  1.1786
   51MOL   H26515365   1.136   4.068   3.191  0.1261 -0.3220 -1.5748
   51MOL   H26615366   1.293   4.063   3.276  1.7197 -1.5669 -0.1361
   51MOL   H26715367   1.397   3.966   3.085  2.2271  2.7873 -0.2987
   51MOL   H26815368   1.255   3.991   2.983  0.0402 -1.3527  0.4205
   51MOL   H26915369   1.327   4.125   3.046 -1.7733 -0.5935 -2.4279
   51MOL   H27015370   0.933   3.709   3.238  0.5258 -0.0368  0.0586
   51MOL   H27115371   0.925   3.719   3.066  1.3428  1.7225  0.0820
   51MOL   C27215372   0.913   3.502   3.146 -0.8808  0.3029  0.0443
   51MOL   O27315373   0.951   3.424   3.260  0.5083 -0.2880 -0.1619
   51MOL   C27415374   1.010   3.307   3.235  0.2644 -0.0029  0.5942
   51MOL   O27515375   1.059   3.265   3.127 -0.1124  0.2157  0.0926
   51MOL   C27615376   1.030   3.220   3.363 -0.3096 -0.4864  0.0352
   51MOL   C27715377   1.120   3.096   3.343 -0.5775  0.0551 -0.2126
   51MOL   C27815378   0.760   3.509   3.144 -0.6033 -0.7326  0.1769
   51MOL   H27915379   0.953   3.453   3.057 -2.2532  0.7730 -0.8330
   51MOL   H28015380   1.082   3.274   3.442 -0.6903  1.8230 -1.2354
   51MOL   H28115381   0.932   3.201   3.407  0.1202  0.2968  1.3466
   51MOL   H28215382   1.221   3.122   3.309  0.5853  0.2602  3.1813
   51MOL   H28315383   1.150   3.048   3.436  2.2535  0.9143 -0.6095
   51MOL   H28415384   1.070   3.023   3.280  0.7332 -0.2747 -0.8949
   51MOL   H28515385   0.712   3.411   3.148 -1.3008 -0.4120 -0.0979
   51MOL   H28615386   0.718   3.562   3.230  0.6903  0.2345  0.2198
   51MOL   C28715387   0.702   3.589   3.016 -0.2182  0.3348 -0.3383
   51MOL   O28815388   0.611   3.503   2.948  0.3253 -0.9670  0.2009
   51MOL   C28915389   0.652   3.389   2.886  0.0649  0.3743  0.3764
   51MOL   O29015390   0.766   3.343   2.885  0.3194 -0.7122  0.2966
   51MOL   C29115391   0.540   3.324   2.807 -0.3569 -1.5938 -0.4101
   51MOL   C29215392   0.451   3.413   2.730 -0.2476 -0.2201 -0.8507
   51MOL   C29315393   0.626   3.712   3.049  0.1865  0.1350  0.1628
   51MOL   H29415394   0.787   3.620   2.954  1.5146 -2.0812  0.7156
   51MOL   H29515395   0.593   3.258   2.737  0.3221  0.0930 -1.5272
   51MOL   H29615396   0.483   3.254   2.868  1.5851 -2.7093  0.1640
   51MOL   H29715397   0.367   3.449   2.789  1.4202  1.8513  0.3192
   51MOL   H29815398   0.484   3.498   2.670 -2.1435  0.5461 -0.8341
   51MOL   H29915399   0.397   3.349   2.660  3.6119 -2.5054 -1.9200
   51MOL   H30015400   0.614   3.771   2.958  0.8484 -0.8603 -0.5843
   51MOL   H30115401   0.531   3.697   3.099  0.8776 -3.7733  0.4930
   51MOL   H30215402   0.681   3.773   3.120  0.1777 -0.0056  0.2923
   52MOL     C115403   3.580   4.472   1.466  0.2222 -0.2024  0.9022
   52MOL     O215404   3.610   4.551   1.345  0.1183  0.1545 -0.5405
   52MOL     C315405   3.738   4.567   1.310 -0.3292  0.0756 -0.3530
   52MOL     O415406   3.835   4.517   1.364  0.3513 -0.2085  0.4287
   52MOL     C515407   3.762   4.671   1.198 -0.3993  0.5535  0.5653
   52MOL     C615408   3.906   4.693   1.143 -0.1329 -0.1694 -0.0434
   52MOL     C715409   3.468   4.385   1.424  0.4248  0.3271 -0.8994
   52MOL     H815410   3.552   4.531   1.554 -2.7340 -1.1074  0.6327
   52MOL     H915411   3.718   4.625   1.110  0.6051 -0.6263  0.6722
   52MOL    H1015412   3.719   4.769   1.219  0.0395  0.9105 -0.1440
   52MOL    H1115413   3.942   4.612   1.079  0.4952 -0.2424  0.3993
   52MOL    H1215414   3.911   4.778   1.075 -1.8745  1.3296  1.6613
   52MOL    H1315415   3.983   4.718   1.216 -1.1864  0.0230  1.0073
   52MOL    H1415416   3.385   4.449   1.393  1.7816  1.9400 -1.2553
   52MOL    H1515417   3.503   4.330   1.337  1.3004  1.1847 -1.1009
   52MOL    H1615418   3.665   4.409   1.493  0.7359  0.7425  1.5146
   52MOL    C1715419   3.414   4.292   1.533 -0.7647  0.3170  0.0713
   52MOL    O1815420   3.337   4.370   1.622 -0.3280  0.1105 -0.0600
   52MOL    C1915421   3.317   4.329   1.745 -0.2740 -0.1284 -0.0097
   52MOL    O2015422   3.363   4.226   1.795  0.0715  0.7048 -0.1856
   52MOL    C2115423   3.202   4.410   1.809 -0.4975  0.2562  0.2332
   52MOL    C2215424   3.081   4.324   1.845  0.1284 -0.0349  0.4435
   52MOL    C2315425   3.335   4.181   1.461  0.0190  0.0947 -0.1582
   52MOL    H2415426   3.501   4.259   1.590 -0.5576 -1.7234 -1.3736
   52MOL    H2515427   3.251   4.448   1.899  0.6750  0.7835 -0.6296
   52MOL    H2615428   3.179   4.499   1.751  1.6125  0.7668  0.1399
   52MOL    H2715429   3.006   4.387   1.892  1.3791  2.0208 -0.2937
   52MOL    H2815430   3.031   4.276   1.760 -2.4531  2.7930  0.2750
   52MOL    H2915431   3.081   4.237   1.912 -2.2545  1.0540  1.9313
   52MOL    H3015432   3.268   4.141   1.537  1.0710 -2.0500 -0.3520
   52MOL    H3115433   3.273   4.247   1.400 -0.0989 -1.1492 -1.4139
   52MOL    C3215434   3.413   4.079   1.385 -1.0162  1.2795  0.0829
   52MOL    O3315435   3.514   4.037   1.473 -0.2405 -0.6695  0.3549
   52MOL    C3415436   3.643   4.023   1.419 -0.9115 -0.2616  0.0730
   52MOL    O3515437   3.671   4.032   1.301  0.5128  0.6720  0.3357
   52MOL    C3615438   3.748   3.997   1.527  0.0416 -0.1848  0.0150
   52MOL    C3715439   3.863   4.091   1.527  0.1926 -0.2056 -0.0140
   52MOL    C3815440   3.327   3.964   1.333  0.0657  0.6891  0.8052
   52MOL    H3915441   3.459   4.119   1.295 -0.3226 -0.7922 -0.5303
   52MOL    H4015442   3.697   3.999   1.623 -1.3319  0.0164 -0.7117
   52MOL    H4115443   3.797   3.900   1.517 -2.4652 -1.4750 -0.0950
   52MOL    H4215444   3.826   4.193   1.529  0.3286 -0.1208 -1.6431
   52MOL    H4315445   3.921   4.090   1.619 -1.0435 -0.0482  0.7855
   52MOL    H4415446   3.930   4.078   1.442  1.6986  0.0839  1.1136
   52MOL    H4515447   3.284   3.918   1.421  2.6659  0.5428  2.0557
   52MOL    H4615448   3.242   4.004   1.278  0.5753  1.7604  0.7760
   52MOL    C4715449   3.401   3.861   1.242 -0.7466  0.4260  0.2562
   52MOL    O4815450   3.307   3.757   1.222 -0.9804 -0.9908  0.0446
   52MOL    C4915451   3.306   3.660   1.315  0.5592 -0.0812 -0.0436
   52MOL    O5015452   3.359   3.665   1.424 -0.6782 -0.5904  0.0550
   52MOL    C5115453   3.242   3.528   1.266 -0.2546  0.2768 -1.0548
   52MOL    C5215454   3.130   3.545   1.163  0.1449  0.2265  0.4627
   52MOL    C5315455   3.456   3.905   1.093  0.2251  0.0449  0.0303
   52MOL    H5415456   3.484   3.805   1.284 -2.7184 -3.0331 -0.2429
   52MOL    H5515457   3.317   3.469   1.213 -2.6577 -0.2497 -4.0062
   52MOL    H5615458   3.211   3.467   1.351  1.2758 -1.6064 -1.7865
   52MOL    H5715459   3.094   3.447   1.131  0.4553  1.4313 -3.8786
   52MOL    H5815460   3.050   3.606   1.204  0.9086  0.1404  2.1380
   52MOL    H5915461   3.165   3.593   1.072  1.2226 -0.1789  0.6498
   52MOL    H6015462   3.373   3.964   1.055 -0.8297 -0.6537  1.2362
   52MOL    H6115463   3.524   3.991   1.099 -2.2196  1.9421  1.6464
   52MOL    C6215464   3.510   3.789   1.003  0.7880  0.0609 -0.2162
   52MOL    O6315465   3.524   3.825   0.870 -0.2041 -0.3261  0.1261
   52MOL    C6415466   3.419   3.834   0.786  0.2721 -0.9969 -0.0551
   52MOL    O6515467   3.303   3.811   0.811  0.8370  0.2366  0.1313
   52MOL    C6615468   3.455   3.871   0.640 -0.0403  1.0396  0.0497
   52MOL    C6715469   3.513   3.747   0.562  0.0538 -0.0940 -0.2507
   52MOL    C6815470   3.648   3.735   1.048  0.0455 -0.0238 -0.8546
   52MOL    H6915471   3.449   3.699   1.010 -0.9283  1.1436 -1.0391
   52MOL    H7015472   3.366   3.923   0.603 -2.0451 -1.0260  1.8241
   52MOL    H7115473   3.533   3.943   0.666  0.1557  0.1067  2.1272
   52MOL    H7215474   3.599   3.702   0.611  0.2792  0.9654  0.3414
   52MOL    H7315475   3.437   3.669   0.561  0.5816 -0.6063 -0.8374
   52MOL    H7415476   3.545   3.763   0.459 -0.0470  0.8150 -0.1440
   52MOL    H7515477   3.732   3.804   1.042  0.1477 -0.0398  0.1956
   52MOL    H7615478   3.645   3.722   1.156  4.3713  3.3259 -0.2103
   52MOL    C7715479   3.700   3.600   0.988 -0.0312  0.1305  0.0729
   52MOL    O7815480   3.636   3.488   1.044 -0.5122 -0.6518 -0.0105
   52MOL    C7915481   3.703   3.414   1.131  1.1859 -0.2424  0.4602
   52MOL    O8015482   3.810   3.430   1.184  0.0606  0.3511  0.2654
   52MOL    C8115483   3.614   3.300   1.187  0.1991  0.0953  0.1490
   52MOL    C8215484   3.567   3.303   1.334 -0.1576 -0.0103 -0.6025
   52MOL    C8315485   3.700   3.585   0.833  0.7751 -0.0341  0.8438
   52MOL    H8415486   3.803   3.594   1.024  0.1957 -3.2776 -0.9137
   52MOL    H8515487   3.532   3.286   1.116 -0.7795  1.2158  1.0374
   52MOL    H8615488   3.677   3.213   1.176  0.3813  0.2812 -0.2862
   52MOL    H8715489   3.509   3.393   1.352  0.5889  0.3302  0.1313
   52MOL    H8815490   3.507   3.215   1.357 -0.0569 -0.1617 -0.9128
   52MOL    H8915491   3.655   3.315   1.398  0.2736  2.1821 -1.5813
   52MOL    H9015492   3.598   3.559   0.804  0.5391  2.8000 -1.0271
   52MOL    H9115493   3.723   3.686   0.800 -0.2672 -1.2354 -4.0290
   52MOL    C9215494   3.797   3.481   0.772 -0.6374  0.2354 -0.0635
   52MOL    O9315495   3.745   3.356   0.792  0.1263  0.6508 -0.3127
   52MOL    C9415496   3.810   3.262   0.867 -0.0332  0.3365 -0.6944
   52MOL    O9515497   3.923   3.267   0.916  0.0979 -0.5913 -0.7410
   52MOL    C9615498   3.721   3.131   0.874  0.0985 -0.1599 -0.8832
   52MOL    C9715499   3.729   3.059   0.730 -0.2831  0.6963 -0.7455
   52MOL    C9815500   3.811   3.502   0.619  0.4029  0.0667 -0.6552
   52MOL    H9915501   3.897   3.488   0.814 -0.2710 -0.4858 -0.8119
   52MOL   H10015502   3.769   3.068   0.949 -0.7016 -1.1806 -1.2109
   52MOL   H10115503   3.616   3.149   0.897 -0.4003 -0.6453 -2.6319
   52MOL   H10215504   3.653   3.081   0.655  1.0024  0.1252 -2.2657
   52MOL   H10315505   3.832   3.064   0.693  0.4746 -0.2717  1.1838
   52MOL   H10415506   3.716   2.952   0.744  3.0238  0.0951 -1.7845
   52MOL   H10515507   3.712   3.490   0.575  0.1061  0.8150 -0.2089
   52MOL   H10615508   3.837   3.605   0.591  0.4060  0.2030 -0.1489
   52MOL   C10715509   3.905   3.400   0.550 -0.7388 -0.0734  0.2276
   52MOL   O10815510   3.903   3.419   0.408 -0.2294 -0.9509  0.0637
   52MOL   C10915511   3.896   3.319   0.324 -0.1950 -0.0896 -0.4828
   52MOL   O11015512   3.901   3.201   0.360  0.1086  0.6102 -0.3050
   52MOL   C11115513   3.885   3.345   0.172  0.2912  0.0308  0.4121
   52MOL   C11215514   3.877   3.498   0.137  0.2287  0.9613  0.0331
   52MOL   C11315515   4.046   3.423   0.604 -0.3811  0.0149 -0.9243
   52MOL   H11415516   3.868   3.301   0.576 -0.7431 -0.6821 -2.0137
   52MOL   H11515517   3.971   3.304   0.119 -1.4978 -2.2987 -0.8230
   52MOL   H11615518   3.797   3.293   0.134  0.7045  0.2666 -0.8832
   52MOL   H11715519   3.857   3.511   0.030  1.5473 -1.3405 -0.5125
   52MOL   H11815520   3.791   3.531   0.195  0.3061 -0.2761  0.8581
   52MOL   H11915521   3.958   3.565   0.168  0.9703  0.5143 -0.9301
   52MOL   H12015522   4.105   3.475   0.529  2.7503 -2.9246 -0.6596
   52MOL   H12115523   4.043   3.496   0.686  0.9105 -0.4049 -0.4848
   52MOL   C12215524   4.125   3.302   0.653 -0.2755 -0.3375 -0.0523
   52MOL   O12315525   4.179   3.226   0.549  0.6096 -0.3436 -0.0989
   52MOL   C12415526   4.167   3.085   0.559 -0.2773  0.6842 -0.3008
   52MOL   O12515527   4.125   3.026   0.657  0.9611  0.0434  0.0391
   52MOL   C12615528   4.197   3.010   0.429 -0.3639  0.7640  0.4520
   52MOL   C12715529   4.182   2.855   0.429 -0.1123  1.0792 -0.3625
   52MOL   C12815530   4.233   3.333   0.768  0.2023 -0.6983  0.6822
   52MOL   H12915531   4.054   3.238   0.706 -0.0368 -1.3503 -0.9326
   52MOL   H13015532   4.129   3.058   0.359  1.1300  0.5921 -1.1429
   52MOL   H13115533   4.298   3.042   0.401 -1.6755  3.0370 -1.9136
   52MOL   H13215534   4.080   2.831   0.459  0.8660 -1.9203  0.7993
   52MOL   H13315535   4.204   2.804   0.335  1.2015 -1.5650  1.3037
   52MOL   H13415536   4.253   2.808   0.497 -0.1389  1.2696 -0.2020
   52MOL   H13515537   4.192   3.398   0.845 -0.5232  1.9691 -1.8619
   52MOL   H13615538   4.249   3.233   0.808  1.2605 -1.1954 -0.9385
   52MOL   C13715539   4.374   3.390   0.725 -0.3699  0.2684  0.0326
   52MOL   O13815540   4.355   3.519   0.668 -0.0178  0.0862 -0.1091
   52MOL   C13915541   4.436   3.560   0.569  0.2159  0.2085  0.3999
   52MOL   O14015542   4.529   3.495   0.521  0.0121  0.4937  0.5425
   52MOL   C14115543   4.394   3.696   0.514  0.1027 -0.6053  0.6494
   52MOL   C14215544   4.507   3.786   0.461  0.1537 -0.8722 -0.2402
   52MOL   C14315545   4.483   3.399   0.834  0.6272 -0.0897 -0.7737
   52MOL   H14415546   4.414   3.319   0.652 -1.6205  0.3539 -0.7568
   52MOL   H14515547   4.315   3.664   0.446  2.1136 -3.7372 -0.3076
   52MOL   H14615548   4.350   3.740   0.604  0.9202  0.0613  0.7247
   52MOL   H14715549   4.570   3.812   0.546 -1.9889 -1.0295  1.4309
   52MOL   H14815550   4.565   3.755   0.374  0.8127 -1.2590  0.3241
   52MOL   H14915551   4.461   3.877   0.424 -0.3091 -1.7539 -1.8448
   52MOL   H15015552   4.576   3.441   0.796  2.5974 -1.9273  1.8375
   52MOL   H15115553   4.451   3.465   0.914 -0.1506 -3.5310  1.8421
   52MOL   C15215554   4.517   3.258   0.887 -0.5811 -0.7159  0.5142
   52MOL   O15315555   4.563   3.184   0.772 -0.1825  0.5594 -0.9525
   52MOL   C15415556   4.560   3.051   0.783 -0.0144 -0.3460 -0.5057
   52MOL   O15515557   4.539   2.984   0.885 -0.0777  0.0015 -0.5089
   52MOL   C15615558   4.604   2.983   0.654  0.0007 -0.4009  0.5210
   52MOL   C15715559   4.701   3.066   0.572 -0.5450 -0.1242 -0.5204
   52MOL   C15815560   4.618   3.266   1.001  0.2138  0.2315 -0.5733
   52MOL   H15915561   4.426   3.211   0.925 -1.3589  1.0415  0.9170
   52MOL   H16015562   4.638   2.882   0.675 -1.2322 -0.9042  0.1324
   52MOL   H16115563   4.511   2.973   0.598  0.6081  0.1970 -0.6128
   52MOL   H16215564   4.759   3.006   0.502  0.2581  0.1363 -0.0738
   52MOL   H16315565   4.651   3.148   0.519  0.8210  0.4063 -1.0102
   52MOL   H16415566   4.782   3.113   0.626 -0.7975  1.0294 -1.1222
   52MOL   H16515567   4.642   3.162   1.022  0.5314  0.4893  0.4099
   52MOL   H16615568   4.712   3.311   0.969 -0.6796  1.1871 -1.9071
   52MOL   C16715569   4.566   3.332   1.126 -0.3997 -0.5759  0.0184
   52MOL   O16815570   4.438   3.272   1.167 -0.2515 -0.5845 -0.1355
   52MOL   C16915571   4.337   3.356   1.192 -0.0686 -0.3370  0.5397
   52MOL   O17015572   4.334   3.477   1.178 -0.0944  0.5502 -0.1949
   52MOL   C17115573   4.214   3.278   1.236  0.2483 -0.1424  0.5355
   52MOL   C17215574   4.173   3.176   1.130 -0.3201 -0.6036  0.5677
   52MOL   C17315575   4.664   3.308   1.243  0.0794 -0.3428 -0.0946
   52MOL   H17415576   4.554   3.439   1.109  4.1884  0.0588 -0.0578
   52MOL   H17515577   4.229   3.216   1.325  2.1165 -1.0066 -0.3656
   52MOL   H17615578   4.133   3.345   1.267  0.4336  1.6424 -2.6303
   52MOL   H17715579   4.104   3.099   1.166 -1.4540 -0.5319 -1.3769
   52MOL   H17815580   4.124   3.226   1.047  0.2927  0.6649  0.9574
   52MOL   H17915581   4.256   3.124   1.082 -1.1608  1.2979 -3.1422
   52MOL   H18015582   4.603   3.324   1.332 -0.6011 -0.8697 -0.4701
   52MOL   H18115583   4.713   3.211   1.250 -2.3216 -1.5338  0.9966
   52MOL   C18215584   4.781   3.409   1.229  0.4428  0.5340 -0.1633
   52MOL   O18315585   4.737   3.530   1.283 -0.3092  0.1365 -0.4603
   52MOL   C18415586   4.709   3.632   1.200  0.5387  0.0836 -0.3091
   52MOL   O18515587   4.734   3.634   1.080 -0.0299 -0.0023  0.4812
   52MOL   C18615588   4.648   3.748   1.280  0.8835  0.2643  0.6480
   52MOL   C18715589   4.505   3.717   1.319 -0.3419 -0.6107 -0.4664
   52MOL   C18815590   4.915   3.354   1.285 -0.8530  0.3585  0.1753
   52MOL   H18915591   4.817   3.422   1.127  0.8648  1.9737  0.1633
   52MOL   H19015592   4.706   3.740   1.372 -0.1053 -1.6004  1.1363
   52MOL   H19115593   4.667   3.844   1.232 -2.3403 -0.0628 -1.4708
   52MOL   H19215594   4.495   3.615   1.356  0.4076 -0.7027 -0.4999
   52MOL   H19315595   4.473   3.783   1.399 -1.0093 -0.0869 -1.1581
   52MOL   H19415596   4.440   3.742   1.235 -1.1502 -1.3177 -0.0595
   52MOL   H19515597   4.936   3.258   1.238  0.9825 -0.1845  2.0135
   52MOL   H19615598   4.989   3.427   1.252  1.2856 -0.4882  2.9107
   52MOL   C19715599   4.913   3.335   1.435  0.6120  0.3514 -0.2781
   52MOL   O19815600   4.978   3.209   1.459 -0.0754  0.2879 -0.2187
   52MOL   C19915601   4.912   3.102   1.472  0.1593 -0.2796 -0.2369
   52MOL   O20015602   4.790   3.096   1.477  0.4101 -0.2725 -0.1018
   52MOL   C20115603   5.010   2.981   1.468  0.1383 -0.2788  0.2169
   52MOL   C20215604   4.956   2.851   1.539 -0.5934 -0.0531 -0.1236
   52MOL   C20315605   4.987   3.454   1.502 -0.3747 -0.1341 -0.4466
   52MOL   H20415606   4.808   3.328   1.460  0.5246  2.8755  0.1884
   52MOL   H20515607   5.051   2.963   1.369  0.9166 -3.4725  1.0506
   52MOL   H20615608   5.099   3.009   1.524 -0.6917  0.7252  1.0502
   52MOL   H20715609   5.020   2.799   1.610 -0.0810 -2.5776 -2.3890
   52MOL   H20815610   4.884   2.895   1.609  0.3348  1.5640 -0.1620
   52MOL   H20915611   4.910   2.775   1.477 -0.2165 -1.5408  1.3798
   52MOL   H21015612   5.090   3.475   1.471  0.0064  1.6989  1.9036
   52MOL   H21115613   4.939   3.547   1.472 -0.3898 -0.1964 -0.6177
   52MOL   C21215614   4.976   3.463   1.655  0.1572  0.7348  0.0367
   52MOL   O21315615   5.066   3.569   1.694  0.0898 -0.1013  0.3423
   52MOL   C21415616   5.115   3.576   1.820  0.0244  0.1661  0.7224
   52MOL   O21515617   5.100   3.481   1.895 -0.0660  0.5143 -0.3313
   52MOL   C21615618   5.181   3.706   1.858 -0.3330 -0.5895 -0.4319
   52MOL   C21715619   5.104   3.799   1.946 -0.0414  0.0954 -0.3467
   52MOL   C21815620   4.834   3.499   1.702  0.5651  0.9098  0.2621
   52MOL   H21915621   5.018   3.378   1.709 -1.3924 -0.5268 -0.7179
   52MOL   H22015622   5.272   3.684   1.915  0.7386  1.4324 -1.3305
   52MOL   H22115623   5.216   3.764   1.773  2.5338 -2.7202 -0.7756
   52MOL   H22215624   5.046   3.874   1.893  1.7843  0.2392 -2.1788
   52MOL   H22315625   5.032   3.742   2.005  2.4857 -1.6055  1.2051
   52MOL   H22415626   5.170   3.857   2.011 -0.4543 -0.8738  0.9769
   52MOL   H22515627   4.840   3.570   1.785  4.7961  0.0586  0.7505
   52MOL   H22615628   4.784   3.559   1.626 -0.9098 -1.5878 -0.8134
   52MOL   C22715629   4.750   3.373   1.740  0.9255 -0.0685 -0.0861
   52MOL   O22815630   4.754   3.347   1.876 -0.2396 -0.1551 -0.6547
   52MOL   C22915631   4.838   3.257   1.931  0.3872  0.4676 -0.2486
   52MOL   O23015632   4.901   3.175   1.865  0.6465  0.3788  0.1579
   52MOL   C23115633   4.838   3.254   2.089 -0.2853  0.2734  0.7172
   52MOL   C23215634   4.909   3.378   2.142  0.5704  0.5202 -0.2096
   52MOL   C23315635   4.603   3.386   1.700 -0.0137 -0.9011 -0.6861
   52MOL   H23415636   4.791   3.285   1.692 -0.5037 -0.5531 -0.4632
   52MOL   H23515637   4.739   3.247   2.134  0.6505 -0.4717  2.7180
   52MOL   H23615638   4.881   3.157   2.111  1.3205  0.0228 -3.1962
   52MOL   H23715639   4.927   3.370   2.249 -2.2299 -2.7041  0.0978
   52MOL   H23815640   5.009   3.383   2.099 -0.5926 -0.6013 -3.1800
   52MOL   H23915641   4.856   3.471   2.122  1.2507  1.1741  0.9808
   52MOL   H24015642   4.547   3.445   1.773  0.1842  0.6396 -1.7461
   52MOL   H24115643   4.590   3.452   1.614 -1.3206 -1.0175 -0.5864
   52MOL   C24215644   4.536   3.247   1.683  0.3372  0.5046 -0.2044
   52MOL   O24315645   4.502   3.202   1.820 -0.5902 -0.1076 -0.4499
   52MOL   C24415646   4.548   3.078   1.860  0.2041 -0.3703 -0.3235
   52MOL   O24515647   4.604   2.999   1.788  0.9388  0.0230 -0.4946
   52MOL   C24615648   4.494   3.029   1.994 -0.2650 -0.1267  0.6169
   52MOL   C24715649   4.343   3.018   1.996  0.2899 -0.1124  0.0402
   52MOL   C24815650   4.406   3.249   1.600 -0.1724 -0.5133  0.2548
   52MOL   H24915651   4.609   3.186   1.629 -0.9309 -1.4547  0.2293
   52MOL   H25015652   4.546   2.938   2.025  1.8594  0.9458  0.3538
   52MOL   H25115653   4.520   3.104   2.069  1.5304 -1.2262  1.1301
   52MOL   H25215654   4.308   3.115   1.959 -0.0194 -0.7726 -1.4336
   52MOL   H25315655   4.306   2.932   1.940  1.3289 -1.7376  1.8134
   52MOL   H25415656   4.305   3.006   2.097 -0.6018 -0.0919 -0.2839
   52MOL   H25515657   4.324   3.293   1.657  0.1369 -0.8852  0.9958
   52MOL   H25615658   4.422   3.317   1.517  0.1272  1.9311  2.2388
   52MOL   C25715659   4.363   3.103   1.559  0.2496  0.0013 -0.2332
   52MOL   O25815660   4.229   3.095   1.523 -0.5729 -0.0284  0.1456
   52MOL   C25915661   4.132   3.104   1.617  0.0836 -0.4792  0.7270
   52MOL   O26015662   4.145   3.114   1.736 -0.1135  0.1075 -0.4455
   52MOL   C26115663   3.991   3.088   1.552  0.8945 -0.1042  0.0910
   52MOL   C26215664   3.937   3.217   1.490 -1.1350 -1.0172 -0.4621
   52MOL   C26315665   4.434   3.048   1.426  0.3107 -0.5740 -0.0608
   52MOL   H26415666   4.372   3.040   1.648  1.0989 -2.8012 -2.2607
   52MOL   H26515667   3.992   3.011   1.474  1.8648  0.2517 -0.2549
   52MOL   H26615668   3.923   3.057   1.631 -0.4899  1.0183 -0.6591
   52MOL   H26715669   3.904   3.278   1.574 -2.2294 -1.6580 -0.4075
   52MOL   H26815670   4.012   3.273   1.435 -0.4025 -3.0345 -1.5537
   52MOL   H26915671   3.853   3.199   1.422 -0.8936 -2.1179 -0.4743
   52MOL   H27015672   4.389   3.077   1.331 -0.2959  0.7862  0.6232
   52MOL   H27115673   4.538   3.077   1.435  0.5374 -1.7763  1.3990
   52MOL   C27215674   4.449   2.897   1.428 -0.6246 -0.7822  0.1771
   52MOL   O27315675   4.331   2.827   1.406 -0.1659 -0.2894  0.3390
   52MOL   C27415676   4.254   2.776   1.505 -0.1711  0.3696  0.0988
   52MOL   O27515677   4.272   2.789   1.626  0.0491 -0.2416 -0.6012
   52MOL   C27615678   4.132   2.717   1.447  0.2358 -0.6179  0.1957
   52MOL   C27715679   4.142   2.658   1.302  0.2747  0.6398 -0.0654
   52MOL   C27815680   4.559   2.841   1.341  0.0852 -0.0261  0.7617
   52MOL   H27915681   4.483   2.875   1.529 -1.5141  2.8665  1.3622
   52MOL   H28015682   4.107   2.649   1.529 -0.0196 -0.5956  0.1376
   52MOL   H28115683   4.058   2.796   1.454  0.6282 -0.2801  0.5704
   52MOL   H28215684   4.131   2.736   1.226 -0.1413  0.2691 -0.3927
   52MOL   H28315685   4.228   2.594   1.280  0.3296 -0.0665  2.0478
   52MOL   H28415686   4.047   2.606   1.286  1.1604 -1.3478  0.9870
   52MOL   H28515687   4.662   2.867   1.365  0.4735  0.5668 -1.3775
   52MOL   H28615688   4.574   2.733   1.347  1.9306 -0.0034 -2.0477
   52MOL   C28715689   4.546   2.877   1.188 -0.2937 -0.2971 -0.7483
   52MOL   O28815690   4.650   2.815   1.112 -0.4312  1.1098 -0.3033
   52MOL   C28915691   4.769   2.868   1.107 -0.2945 -0.5209 -0.4645
   52MOL   O29015692   4.803   2.971   1.168 -0.2795  0.0301  0.8102
   52MOL   C29115693   4.873   2.797   1.012 -0.1324  0.0469  0.0682
   52MOL   C29215694   4.991   2.885   0.955  0.1463 -0.2146  0.1041
   52MOL   C29315695   4.418   2.820   1.129 -0.1039 -0.3924  0.6217
   52MOL   H29415696   4.551   2.984   1.170 -1.6296 -0.5514 -2.7743
   52MOL   H29515697   4.914   2.716   1.074  1.1107  1.6814  1.4240
   52MOL   H29615698   4.816   2.769   0.924 -0.9777  1.3602  0.1898
   52MOL   H29715699   5.038   2.848   0.864 -0.8978 -2.3211  0.3891
   52MOL   H29815700   4.947   2.982   0.929  1.7518 -0.1683 -2.6658
   52MOL   H29915701   5.061   2.905   1.036  1.1507  0.2560 -0.8591
   52MOL   H30015702   4.333   2.874   1.171 -0.7373 -2.5187  2.1302
   52MOL   H30115703   4.396   2.825   1.023 -3.0442  2.2565  1.2635
   52MOL   H30215704   4.404   2.715   1.157  1.2412 -0.5487  0.7442
   53MOL     C115705   4.349   0.611   4.112  0.6752  0.3743  0.8191
   53MOL     O215706   4.313   0.661   4.240 -0.0227 -0.2176  0.1209
   53MOL     C315707   4.397   0.745   4.300  0.6337 -0.8509  0.5160
   53MOL     O415708   4.504   0.782   4.259 -0.8048  0.1057 -0.2500
   53MOL     C515709   4.341   0.795   4.437 -0.0377 -0.6922 -0.4806
   53MOL     C615710   4.223   0.895   4.409 -0.6691  0.1951 -0.7451
   53MOL     C715711   4.416   0.473   4.135  0.7421  0.7389 -0.2613
   53MOL     H815712   4.427   0.669   4.064  0.5018 -0.7858 -0.9199
   53MOL     H915713   4.298   0.703   4.478  0.7201 -0.7518  0.1981
   53MOL    H1015714   4.429   0.834   4.489 -1.7054 -0.0131  1.9099
   53MOL    H1115715   4.121   0.859   4.400 -1.7026  3.0374 -0.7681
   53MOL    H1215716   4.229   0.971   4.487  0.0200 -1.3368  0.7335
   53MOL    H1315717   4.248   0.935   4.311  3.1753  0.5107  0.2584
   53MOL    H1415718   4.498   0.473   4.207  0.0631 -0.7537  0.5277
   53MOL    H1515719   4.344   0.419   4.197 -0.5031  4.5904  1.8143
   53MOL    H1615720   4.267   0.596   4.042  0.2489  1.6693  1.0299
   53MOL    C1715721   4.440   0.380   4.012  0.6050 -0.6356 -0.3526
   53MOL    O1815722   4.502   0.262   4.041  0.3116 -0.3141 -0.4461
   53MOL    C1915723   4.613   0.221   3.977  0.7493 -0.5127  0.6344
   53MOL    O2015724   4.674   0.295   3.898 -0.3677 -0.8827  0.0173
   53MOL    C2115725   4.668   0.088   4.016  0.0449 -0.7222  0.6771
   53MOL    C2215726   4.564   7.939   4.081 -0.9828  0.1961 -0.0685
   53MOL    C2315727   4.304   0.347   3.939  0.3099  0.3282 -0.5493
   53MOL    H2415728   4.496   0.445   3.945  1.6340 -0.3749  0.7373
   53MOL    H2515729   4.721   0.038   3.935 -3.3121 -0.5970 -1.6990
   53MOL    H2615730   4.743   0.101   4.094  1.4882 -1.2815 -0.5934
   53MOL    H2715731   4.599   7.836   4.085 -1.6505 -0.0101  0.3967
   53MOL    H2815732   4.544   0.023   4.184 -1.7379 -1.7700  0.3514
   53MOL    H2915733   4.473   7.928   4.022 -0.3039  1.4312 -1.3872
   53MOL    H3015734   4.292   0.244   3.971 -3.7311  0.6392 -0.8159
   53MOL    H3115735   4.221   0.405   3.981 -0.2180 -1.1893  0.5296
   53MOL    C3215736   4.298   0.373   3.792  0.5234 -0.2042  0.3332
   53MOL    O3315737   4.360   0.269   3.718  0.6268 -0.1948  0.2328
   53MOL    C3415738   4.432   0.292   3.600  0.4555  0.2429  0.3925
   53MOL    O3515739   4.460   0.400   3.547 -0.1210 -0.0763  0.2239
   53MOL    C3615740   4.488   0.164   3.543 -0.0121  0.5772  0.0722
   53MOL    C3715741   4.494   0.161   3.390  0.9641 -0.4469  0.0299
   53MOL    C3815742   4.147   0.370   3.740 -0.1464  0.6282  0.1451
   53MOL    H3915743   4.335   0.474   3.774 -0.2886  0.6034  3.0222
   53MOL    H4015744   4.582   0.149   3.596 -1.0222 -0.6482  1.5695
   53MOL    H4115745   4.426   0.078   3.567  1.0215  0.1886  1.3752
   53MOL    H4215746   4.535   0.072   3.343  0.3802 -0.1153 -1.1337
   53MOL    H4315747   4.400   0.183   3.339  0.6185  0.6515  1.1057
   53MOL    H4415748   4.552   0.243   3.348  0.1931 -0.9070 -1.9936
   53MOL    H4515749   4.154   0.372   3.632  1.4360 -1.7732  0.1698
   53MOL    H4615750   4.101   0.280   3.780  0.6801 -0.0456 -0.4155
   53MOL    C4715751   4.068   0.495   3.776 -0.5074 -0.4528 -0.5711
   53MOL    O4815752   4.155   0.595   3.723  0.4244 -0.2383 -0.7442
   53MOL    C4915753   4.173   0.710   3.789  0.3187  0.7643  0.7014
   53MOL    O5015754   4.117   0.745   3.893  0.6098  0.5306 -0.2154
   53MOL    C5115755   4.252   0.805   3.712  0.5813 -0.0779  0.1090
   53MOL    C5215756   4.165   0.872   3.608  0.5161  0.1972 -0.0627
   53MOL    C5315757   3.928   0.499   3.707  0.3222  0.1828 -0.0736
   53MOL    H5415758   4.061   0.509   3.884  1.6549  0.9452 -0.5791
   53MOL    H5515759   4.295   0.872   3.787  0.6882  0.5646 -0.5195
   53MOL    H5615760   4.338   0.759   3.663 -0.7730  0.6026 -2.9927
   53MOL    H5715761   4.092   0.934   3.661 -0.8545 -1.2354 -0.2167
   53MOL    H5815762   4.224   0.946   3.555  1.7838 -1.0694 -0.4386
   53MOL    H5915763   4.119   0.808   3.532  0.3610 -0.3325  0.4773
   53MOL    H6015764   3.881   0.598   3.710 -0.5105 -0.2343  1.2163
   53MOL    H6115765   3.932   0.472   3.602 -1.8445  0.2438 -0.1989
   53MOL    C6215766   3.816   0.406   3.778  0.0717  0.1684  0.1297
   53MOL    O6315767   3.793   0.462   3.903  0.3496 -0.4631 -0.4184
   53MOL    C6415768   3.854   0.422   4.016 -0.2431 -0.0118 -0.3186
   53MOL    O6515769   3.927   0.329   4.020 -0.4305 -0.0233  0.4829
   53MOL    C6615770   3.814   0.503   4.132 -0.6478  0.5170  0.2167
   53MOL    C6715771   3.927   0.569   4.207 -0.4349 -0.0050 -0.3145
   53MOL    C6815772   3.682   0.380   3.712  0.6166 -0.6113  0.1877
   53MOL    H6915773   3.855   0.306   3.798  1.8219  0.7899 -0.1016
   53MOL    H7015774   3.759   0.591   4.100  0.3122  0.8439 -0.5691
   53MOL    H7115775   3.760   0.438   4.201 -1.0114  1.1638  0.5477
   53MOL    H7215776   3.891   0.575   4.310  3.0676 -0.3150  0.9794
   53MOL    H7315777   4.025   0.522   4.209 -0.6632 -0.5428 -1.4988
   53MOL    H7415778   3.930   0.672   4.172  0.6968  1.0060  2.6180
   53MOL    H7515779   3.618   0.316   3.773  0.3768  0.2633  0.8612
   53MOL    H7615780   3.628   0.475   3.708 -0.0971 -0.8293  3.7049
   53MOL    C7715781   3.696   0.313   3.570  0.7151 -0.6454 -0.1922
   53MOL    O7815782   3.768   0.187   3.562 -0.3028  0.0947  0.0166
   53MOL    C7915783   3.878   0.168   3.494 -0.1030  0.4116 -0.0710
   53MOL    O8015784   3.932   0.255   3.427  0.4529 -0.4526 -0.1012
   53MOL    C8115785   3.917   0.020   3.482  0.2657  0.0799 -0.5801
   53MOL    C8215786   4.009   7.917   3.589  0.1509 -0.0592  0.5205
   53MOL    C8315787   3.558   0.279   3.505  0.0299  0.8763 -0.3298
   53MOL    H8415788   3.750   0.386   3.509  1.4682 -1.4160 -0.4574
   53MOL    H8515789   3.831   7.899   3.467 -0.9647  1.1304  1.5092
   53MOL    H8615790   3.972   0.007   3.389  0.0660 -4.2312 -0.2241
   53MOL    H8715791   4.106   0.023   3.583 -1.3751  2.8426 -1.0496
   53MOL    H8815792   3.960   7.923   3.686 -2.2562  0.5204 -0.7039
   53MOL    H8915793   4.027   7.811   3.570 -2.3863 -0.9575  2.8863
   53MOL    H9015794   3.582   0.218   3.419 -1.5300  2.7509 -2.1595
   53MOL    H9115795   3.509   0.213   3.577 -0.5947  0.3570 -1.2314
   53MOL    C9215796   3.471   0.397   3.457 -0.1257 -0.3360  0.3333
   53MOL    O9315797   3.549   0.475   3.368 -0.4715  0.5237 -0.1675
   53MOL    C9415798   3.599   0.595   3.396  0.2850  0.5845 -0.2990
   53MOL    O9515799   3.578   0.668   3.496 -0.1530 -0.0797 -0.3764
   53MOL    C9615800   3.699   0.644   3.288  0.1654  0.5619  0.1520
   53MOL    C9715801   3.730   0.795   3.294  0.1164  0.2091  0.6958
   53MOL    C9815802   3.347   0.355   3.389 -0.2709  0.2915  0.3781
   53MOL    H9915803   3.441   0.462   3.540 -1.1720 -0.6830  0.2415
   53MOL   H10015804   3.783   0.575   3.297 -1.0848 -1.1504 -0.7910
   53MOL   H10115805   3.666   0.643   3.184 -0.7479 -0.2828  0.4441
   53MOL   H10215806   3.756   0.835   3.196 -1.0675 -0.5086  0.0703
   53MOL   H10315807   3.642   0.857   3.309  1.3277  3.0855 -3.2347
   53MOL   H10415808   3.803   0.827   3.368  1.1473 -1.2059  0.3166
   53MOL   H10515809   3.295   0.438   3.340 -1.3813 -0.9060 -0.5000
   53MOL   H10615810   3.385   0.286   3.313  0.4813 -0.8370  1.7621
   53MOL   C10715811   3.246   0.290   3.471  0.3492  0.4762  0.4612
   53MOL   O10815812   3.191   0.393   3.550 -0.0686  0.2294 -0.0653
   53MOL   C10915813   3.225   0.405   3.678 -0.4787  0.0758  0.5669
   53MOL   O11015814   3.291   0.327   3.741 -0.3692  0.3621 -0.3686
   53MOL   C11115815   3.160   0.525   3.745  0.6412  0.0845  0.4624
   53MOL   C11215816   3.195   0.659   3.686 -0.5242  0.3910 -0.4569
   53MOL   C11315817   3.126   0.224   3.393  0.1331 -0.7494  0.5256
   53MOL   H11415818   3.288   0.210   3.531 -2.5571 -2.2048 -0.9453
   53MOL   H11515819   3.055   0.499   3.729  0.6331 -0.9220  1.9599
   53MOL   H11615820   3.181   0.524   3.852 -0.1863  0.8170  0.6393
   53MOL   H11715821   3.208   0.658   3.578  2.5006  1.9651 -0.1472
   53MOL   H11815822   3.113   0.728   3.708  1.2680  2.2376  0.5844
   53MOL   H11915823   3.289   0.697   3.725  0.2490 -2.1427  0.2274
   53MOL   H12015824   3.039   0.199   3.453 -0.4662 -1.4085 -0.5926
   53MOL   H12115825   3.081   0.309   3.341  1.9332  0.7140  1.3083
   53MOL   C12215826   3.158   0.126   3.278  0.2451  0.0309  0.5637
   53MOL   O12315827   3.203   0.005   3.337  0.8919 -0.4605 -0.9681
   53MOL   C12415828   3.296   7.869   3.280 -0.3721 -0.2063  0.2248
   53MOL   O12515829   3.334   7.888   3.169  0.3036  0.0117  0.0184
   53MOL   C12615830   3.360   7.771   3.374 -0.2482  0.1602  0.0593
   53MOL   C12715831   3.437   7.837   3.485  0.0161 -0.2220  0.5042
   53MOL   C12815832   3.034   0.094   3.189  0.3237 -0.1426 -0.0725
   53MOL   H12915833   3.240   0.167   3.218 -0.5829 -0.3636 -0.8702
   53MOL   H13015834   3.289   7.710   3.430  0.2480 -1.0996 -0.6675
   53MOL   H13115835   3.429   7.717   3.309 -1.5162 -0.6897 -0.5780
   53MOL   H13215836   3.488   7.928   3.456  1.2835 -0.6714  1.2803
   53MOL   H13315837   3.379   7.868   3.572 -0.2068  1.9560 -0.4061
   53MOL   H13415838   3.512   7.766   3.519 -0.7688 -0.7081  1.2481
   53MOL   H13515839   2.973   0.021   3.242 -0.1979  1.3792  1.4804
   53MOL   H13615840   2.968   0.181   3.190 -0.4425 -0.6888 -2.0652
   53MOL   C13715841   3.074   0.063   3.043 -0.2448  0.4700  0.2971
   53MOL   O13815842   2.941   0.035   2.977 -0.0111  0.3814 -0.1870
   53MOL   C13915843   2.914   7.859   2.926 -0.1640  1.2904 -0.4975
   53MOL   O14015844   3.000   7.768   2.916  0.2409 -0.1831  0.3062
   53MOL   C14115845   2.774   7.844   2.875 -0.0703  0.2674 -0.0481
   53MOL   C14215846   2.703   7.711   2.903  0.0476  0.1970  0.0928
   53MOL   C14315847   3.151   0.180   2.965 -0.2359  0.6976 -0.0559
   53MOL   H14415848   3.137   7.920   3.032  0.1154  0.7253  0.3194
   53MOL   H14515849   2.709   7.922   2.911  1.2083  1.5444 -0.4444
   53MOL   H14615850   2.786   7.861   2.768  0.2026  1.0237  0.1044
   53MOL   H14715851   2.624   7.690   2.832 -0.0516  3.1840 -0.7625
   53MOL   H14815852   2.774   7.629   2.908 -0.0177  0.0468 -1.3345
   53MOL   H14915853   2.646   7.728   2.995  2.0615  1.5647  1.1367
   53MOL   H15015854   3.255   0.150   2.957 -0.5096 -0.1388 -0.5763
   53MOL   H15115855   3.143   0.174   2.857  0.2890  1.4046 -0.1355
   53MOL   C15215856   3.128   0.327   3.001  0.4771  0.4056 -0.3441
   53MOL   O15315857   3.220   0.407   2.924 -0.2409  0.4576 -0.5978
   53MOL   C15415858   3.353   0.434   2.973  0.4199 -0.4592  0.0431
   53MOL   O15515859   3.398   0.410   3.082 -0.8318 -0.1777  0.2098
   53MOL   C15615860   3.428   0.523   2.882  0.1453  0.9465 -0.0283
   53MOL   C15715861   3.399   0.483   2.735 -0.4903 -0.2577  0.3933
   53MOL   C15815862   2.987   0.379   2.960 -0.2307 -0.7679  0.3982
   53MOL   H15915863   3.159   0.347   3.104  1.0126  1.9125 -0.7797
   53MOL   H16015864   3.404   0.628   2.901 -2.7404  0.5296 -1.2040
   53MOL   H16115865   3.533   0.501   2.903  0.3263  0.1214 -1.7196
   53MOL   H16215866   3.470   0.513   2.658  0.3380  1.1748  1.6814
   53MOL   H16315867   3.395   0.374   2.731 -1.1297 -0.2259  0.1203
   53MOL   H16415868   3.301   0.499   2.691 -0.2115 -0.8874 -0.4724
   53MOL   H16515869   2.979   0.396   2.853 -0.3020  0.6823  0.6251
   53MOL   H16615870   2.923   0.295   2.987 -0.5529 -1.0221 -1.1380
   53MOL   C16715871   2.928   0.489   3.053 -0.0510 -0.1824  0.3215
   53MOL   O16815872   2.897   0.434   3.185  0.3829 -0.3529 -0.1200
   53MOL   C16915873   2.776   0.449   3.249 -0.0229 -0.0401  0.3305
   53MOL   O17015874   2.677   0.515   3.208  0.1647 -0.7124 -0.0037
   53MOL   C17115875   2.773   0.367   3.376  0.1410 -0.0079 -0.0430
   53MOL   C17215876   2.866   0.432   3.483  0.4157 -0.2506 -0.0703
   53MOL   C17315877   3.024   0.602   3.081  0.3979 -0.2697  0.5907
   53MOL   H17415878   2.839   0.526   3.002 -1.1533 -3.5207 -0.2612
   53MOL   H17515879   2.670   0.353   3.407 -1.6370  0.9095 -4.9620
   53MOL   H17615880   2.817   0.270   3.354  4.3163  1.6640  0.4313
   53MOL   H17715881   2.821   0.502   3.553 -1.6505  0.5134 -2.0780
   53MOL   H17815882   2.898   0.342   3.535  0.4630 -0.7426 -0.9318
   53MOL   H17915883   2.958   0.475   3.445  1.1475 -0.7330  1.1424
   53MOL   H18015884   3.099   0.548   3.138  0.1295 -2.4807 -1.1074
   53MOL   H18115885   3.075   0.635   2.990 -1.2327  2.6947  0.6638
   53MOL   C18215886   2.971   0.715   3.174  0.7163 -0.0104  0.3194
   53MOL   O18315887   3.084   0.803   3.188  0.0913 -0.5917  0.4696
   53MOL   C18415888   3.195   0.770   3.255 -0.4195 -0.0711  0.1302
   53MOL   O18515889   3.206   0.677   3.344 -0.0429  0.0359 -0.3109
   53MOL   C18615890   3.310   0.864   3.238  0.4056 -0.2419 -0.0581
   53MOL   C18715891   3.395   0.828   3.109  0.1540 -0.0940 -0.0779
   53MOL   C18815892   2.857   0.797   3.119  0.6632  0.5152  0.4509
   53MOL   H18915893   2.954   0.681   3.276 -0.4189 -2.0342 -0.5029
   53MOL   H19015894   3.276   0.968   3.232  3.7716  1.0003  0.9184
   53MOL   H19115895   3.382   0.853   3.319  0.6690 -0.7050 -0.3568
   53MOL   H19215896   3.499   0.850   3.133  0.1282  0.0384 -0.0902
   53MOL   H19315897   3.383   0.723   3.082  0.1075 -0.3646  0.9514
   53MOL   H19415898   3.362   0.886   3.024 -0.4757 -0.0718  0.1812
   53MOL   H19515899   2.774   0.736   3.084  0.6213  0.7252  0.1830
   53MOL   H19615900   2.817   0.855   3.202 -1.4435  0.3275 -0.4061
   53MOL   C19715901   2.887   0.908   3.008 -0.2337 -0.3872 -0.0944
   53MOL   O19815902   2.946   0.834   2.897  0.2539  0.6041  0.0784
   53MOL   C19915903   3.065   0.879   2.849 -0.1360  0.1047  1.0842
   53MOL   O20015904   3.125   0.981   2.884  0.2349  0.3363 -0.5401
   53MOL   C20115905   3.120   0.797   2.731 -0.3479  0.1826 -0.5526
   53MOL   C20215906   3.028   0.807   2.609  0.9530 -0.2132  0.3678
   53MOL   C20315907   2.751   0.978   2.968 -0.3726  0.0789  0.3991
   53MOL   H20415908   2.946   0.980   3.064 -2.5018 -0.4265  2.4656
   53MOL   H20515909   3.219   0.840   2.714 -1.1254  1.4364 -2.1229
   53MOL   H20615910   3.127   0.694   2.764 -0.9099  0.3234  0.0172
   53MOL   H20715911   2.921   0.804   2.632  1.2504  0.4938  1.8612
   53MOL   H20815912   3.046   0.902   2.558 -2.4843  2.2581  3.4693
   53MOL   H20915913   3.041   0.729   2.535 -1.0849 -1.8026  1.6225
   53MOL   H21015914   2.693   0.901   2.917  0.0271  0.8028 -1.1721
   53MOL   H21115915   2.704   0.999   3.065 -1.3378  3.2662 -0.6923
   53MOL   C21215916   2.771   1.106   2.884  0.3555  0.1351 -0.0527
   53MOL   O21315917   2.663   1.131   2.798  0.2008 -0.7451  0.4343
   53MOL   C21415918   2.628   1.050   2.702  0.2559  0.4581 -0.6974
   53MOL   O21515919   2.687   0.946   2.671  0.2941  0.5228 -0.9447
   53MOL   C21615920   2.493   1.088   2.625 -0.3956 -0.5700  0.1639
   53MOL   C21715921   2.378   0.989   2.649  0.3748  0.2078 -0.5075
   53MOL   C21815922   2.780   1.233   2.975 -0.0654 -0.1095 -0.0357
   53MOL   H21915923   2.866   1.099   2.830 -0.2768 -0.8947 -1.0511
   53MOL   H22015924   2.463   1.184   2.666 -2.8383 -2.0616  2.0041
   53MOL   H22115925   2.502   1.110   2.519 -2.8020 -0.2150  0.0051
   53MOL   H22215926   2.378   0.910   2.575  1.9022  0.9577 -1.3390
   53MOL   H22315927   2.378   0.935   2.744 -0.4548 -0.4664 -0.8837
   53MOL   H22415928   2.283   1.042   2.652  0.3687  0.1585  0.3180
   53MOL   H22515929   2.678   1.258   3.005 -0.4973 -2.8765  0.9789
   53MOL   H22615930   2.827   1.194   3.065 -3.3124 -0.1402  1.7129
   53MOL   C22715931   2.860   1.357   2.927  0.3701 -0.3358  0.0439
   53MOL   O22815932   2.796   1.401   2.809 -0.3513  0.3159 -0.3711
   53MOL   C22915933   2.850   1.494   2.724  0.3888  0.0343 -0.0406
   53MOL   O23015934   2.957   1.557   2.732  0.9936 -0.7156  0.4769
   53MOL   C23115935   2.756   1.519   2.609  0.4334  0.2226  0.9418
   53MOL   C23215936   2.781   1.428   2.481  0.0768  0.4886 -0.0598
   53MOL   C23315937   2.850   1.470   3.031 -0.8427 -0.4757 -0.1544
   53MOL   H23415938   2.964   1.332   2.903  0.0870 -0.7024 -0.8181
   53MOL   H23515939   2.655   1.510   2.648  0.4727  0.2453  1.0496
   53MOL   H23615940   2.758   1.624   2.583  2.2389 -0.6150 -2.5215
   53MOL   H23715941   2.718   1.465   2.400 -0.1826 -0.7827 -0.4366
   53MOL   H23815942   2.885   1.438   2.452  0.3894  1.1982  1.2225
   53MOL   H23915943   2.768   1.323   2.507  0.4573  0.3428 -0.4619
   53MOL   H24015944   2.910   1.551   2.990  1.5394 -2.3794 -0.5003
   53MOL   H24115945   2.746   1.500   3.044 -0.9352 -1.9755  2.9448
   53MOL   C24215946   2.891   1.434   3.180  0.0878  0.2167  0.2367
   53MOL   O24315947   3.033   1.408   3.182 -0.1970  0.0600  0.2204
   53MOL   C24415948   3.086   1.288   3.198 -0.7523  0.1356  0.0464
   53MOL   O24515949   3.030   1.180   3.225 -0.1246 -0.2749 -0.4169
   53MOL   C24615950   3.237   1.291   3.177 -0.0237 -0.3130  0.2868
   53MOL   C24715951   3.293   1.208   3.063 -0.0730  0.4922 -0.7952
   53MOL   C24815952   2.873   1.550   3.277  0.4333  0.4685  0.3983
   53MOL   H24915953   2.835   1.343   3.205  2.0777 -1.5347 -1.4155
   53MOL   H25015954   3.258   1.394   3.148  1.3998 -0.1613  1.8074
   53MOL   H25115955   3.291   1.274   3.270 -0.8420  2.1971  1.2425
   53MOL   H25215956   3.241   1.229   2.969 -3.4756 -1.8261  0.5176
   53MOL   H25315957   3.402   1.217   3.056  0.0403 -1.3798 -1.5923
   53MOL   H25415958   3.280   1.100   3.069  0.5092  0.3797 -1.3557
   53MOL   H25515959   2.966   1.607   3.268  0.0913  0.9523 -0.1667
   53MOL   H25615960   2.793   1.618   3.248  1.6503  1.4267 -0.8261
   53MOL   C25715961   2.834   1.489   3.420  0.6643  0.3050 -0.2683
   53MOL   O25815962   2.855   1.587   3.528  0.0737  0.6347 -0.0965
   53MOL   C25915963   2.942   1.558   3.630  0.5303  0.5565  0.3204
   53MOL   O26015964   3.034   1.475   3.622 -0.2627 -0.6072  0.4978
   53MOL   C26115965   2.923   1.648   3.750  0.1648 -0.4997  0.3483
   53MOL   C26215966   2.986   1.790   3.732  0.0937 -0.6851  0.4486
   53MOL   C26315967   2.687   1.454   3.447 -0.5643  0.0594  0.5380
   53MOL   H26415968   2.901   1.405   3.439 -0.5913 -0.9404 -1.2384
   53MOL   H26515969   2.820   1.665   3.780  0.5200 -0.6310  1.6738
   53MOL   H26615970   2.973   1.608   3.838 -0.8336  1.1069  1.6628
   53MOL   H26715971   2.949   1.849   3.647  0.4006  2.2431  2.2676
   53MOL   H26815972   2.975   1.857   3.817  2.1005  0.6996 -0.3512
   53MOL   H26915973   3.092   1.783   3.708 -0.1042  1.2220 -1.2018
   53MOL   H27015974   2.669   1.454   3.554 -1.7969 -0.1705  0.3325
   53MOL   H27115975   2.634   1.541   3.409 -0.0991 -0.5385 -1.5651
   53MOL   C27215976   2.648   1.316   3.382 -0.7021 -0.6383 -0.3995
   53MOL   O27315977   2.717   1.217   3.460  0.3516  1.2824 -0.6931
   53MOL   C27415978   2.750   1.094   3.412  0.0352  0.3707  0.2576
   53MOL   O27515979   2.734   1.061   3.300 -0.3986 -0.5136 -0.3973
   53MOL   C27615980   2.800   1.000   3.525 -0.1953 -0.1623  0.4166
   53MOL   C27715981   2.915   0.905   3.481  0.3491 -0.1587  0.0853
   53MOL   C27815982   2.496   1.285   3.412  0.4739  0.1950  0.1662
   53MOL   H27915983   2.663   1.306   3.275 -0.0276  0.5147 -0.4229
   53MOL   H28015984   2.854   1.065   3.594  0.7087  1.1858 -1.5176
   53MOL   H28115985   2.716   0.950   3.574  0.9020 -0.9573  1.5141
   53MOL   H28215986   2.870   0.817   3.435  0.8589 -0.5426  0.3041
   53MOL   H28315987   2.985   0.945   3.408 -0.0810 -1.4079 -1.0301
   53MOL   H28415988   2.970   0.880   3.572  0.1701 -1.7718 -0.2218
   53MOL   H28515989   2.481   1.181   3.385 -0.1342  0.8649 -2.2739
   53MOL   H28615990   2.469   1.282   3.518 -0.0403 -3.6654 -0.0188
   53MOL   C28715991   2.384   1.366   3.332  0.0602  0.0382 -0.3230
   53MOL   O28815992   2.383   1.341   3.193 -0.0820  0.6423  0.5618
   53MOL   C28915993   2.438   1.421   3.104  0.3060  0.3303 -0.4223
   53MOL   O29015994   2.503   1.517   3.134 -0.4254  0.3299  0.0057
   53MOL   C29115995   2.418   1.377   2.960 -0.9454  0.1593 -0.2221
   53MOL   C29215996   2.461   1.489   2.861  0.4157 -0.0228 -0.0752
   53MOL   C29315997   2.238   1.336   3.382 -0.7417 -0.3389 -0.2196
   53MOL   H29415998   2.407   1.471   3.345  0.4703  0.0757 -1.3267
   53MOL   H29515999   2.480   1.292   2.930 -0.7565 -0.2305  1.2696
   53MOL   H29616000   2.318   1.346   2.930 -0.5491  0.7052 -2.1900
   53MOL   H29716001   2.565   1.519   2.872 -0.2915  2.6230 -0.2185
   53MOL   H29816002   2.431   1.469   2.758  0.3138  1.8974 -0.4291
   53MOL   H29916003   2.399   1.578   2.871  0.3199 -0.2036  1.0100
   53MOL   H30016004   2.156   1.385   3.331 -0.0108  1.5841  0.4152
   53MOL   H30116005   2.217   1.229   3.385 -1.7749 -0.1343 -0.0192
   53MOL   H30216006   2.217   1.370   3.484  0.5839  3.1753 -1.0644
   54MOL     C116007   0.800   7.566   5.634 -0.0675  0.1043  0.1351
   54MOL     O216008   0.719   7.568   5.750  0.2688 -0.1608  0.6958
   54MOL     C316009   0.771   7.589   5.874 -0.3671 -0.0547  0.6178
   54MOL     O416010   0.884   7.637   5.892  0.0014 -0.0720  0.0464
   54MOL     C516011   0.672   7.539   5.975 -0.0153  0.6927 -0.4367
   54MOL     C616012   0.720   7.595   6.113 -0.6036  0.4356 -0.5515
   54MOL     C716013   0.845   7.420   5.617  0.3432 -0.2030 -0.4850
   54MOL     H816014   0.885   7.634   5.638 -0.4850  0.7238 -1.0122
   54MOL     H916015   0.570   7.576   5.972 -0.4128 -0.3694 -0.0546
   54MOL    H1016016   0.685   7.431   5.974 -0.8655  0.5854  0.1196
   54MOL    H1116017   0.828   7.592   6.125 -0.6823 -0.9450 -0.0644
   54MOL    H1216018   0.684   7.697   6.125 -1.9709 -0.0140 -0.7030
   54MOL    H1316019   0.680   7.545   6.202 -1.0230  3.6074  1.1249
   54MOL    H1416020   0.909   7.395   5.702 -0.1996 -0.2476 -0.0817
   54MOL    H1516021   0.755   7.364   5.640  0.1099 -1.3685 -3.9924
   54MOL    H1616022   0.739   7.585   5.545  1.3161  0.5199 -0.7500
   54MOL    C1716023   0.883   7.367   5.484 -0.4464 -0.0997  0.3031
   54MOL    O1816024   1.020   7.400   5.447  0.1370 -0.0030 -0.6355
   54MOL    C1916025   1.046   7.506   5.365  0.4832  0.8851  0.8839
   54MOL    O2016026   0.977   7.607   5.348 -0.4836 -0.0155 -0.1479
   54MOL    C2116027   1.184   7.503   5.308 -0.1072  0.9047  0.2246
   54MOL    C2216028   1.263   7.371   5.322 -0.5468  1.0622 -0.6713
   54MOL    C2316029   0.880   7.210   5.464 -0.1561 -0.9673  0.3411
   54MOL    H2416030   0.810   7.408   5.414 -0.3769  1.9821  1.4183
   54MOL    H2516031   1.184   7.530   5.202 -1.2219  1.6958  0.4215
   54MOL    H2616032   1.225   7.590   5.360  0.8817  1.1956 -1.0060
   54MOL    H2716033   1.296   7.343   5.422 -1.3086 -2.0920 -1.2353
   54MOL    H2816034   1.195   7.289   5.296  0.1239  0.3431 -0.1801
   54MOL    H2916035   1.345   7.371   5.251 -1.7314 -0.2469 -2.0790
   54MOL    H3016036   0.776   7.182   5.444 -0.6305 -0.6675  2.3288
   54MOL    H3116037   0.928   7.184   5.370 -3.3678 -0.7088 -1.4571
   54MOL    C3216038   0.938   7.116   5.578  0.1862  0.5445  0.0288
   54MOL    O3316039   0.916   6.974   5.535 -0.4626  0.3859 -0.0019
   54MOL    C3416040   0.825   6.888   5.599 -0.3733 -0.2905  0.3175
   54MOL    O3516041   0.726   6.922   5.656 -0.0644  0.2741  0.1652
   54MOL    C3616042   0.855   6.742   5.563 -0.3429 -0.0186 -0.0208
   54MOL    C3716043   0.990   6.691   5.626  0.1612 -0.8645  0.4433
   54MOL    C3816044   1.083   7.139   5.607 -0.2772 -0.1379 -0.5323
   54MOL    H3916045   0.873   7.124   5.665 -0.7545 -0.0077 -0.6146
   54MOL    H4016046   0.785   6.672   5.610  0.9499 -0.7620  0.8244
   54MOL    H4116047   0.848   6.740   5.454  2.6577 -0.3033 -0.2645
   54MOL    H4216048   1.017   6.756   5.710 -1.7174  2.5749 -1.4687
   54MOL    H4316049   0.981   6.587   5.655 -1.6816 -0.8387  0.0685
   54MOL    H4416050   1.069   6.698   5.551  2.3089 -0.6822  2.6510
   54MOL    H4516051   1.128   7.128   5.509  0.4409  0.2316 -0.2450
   54MOL    H4616052   1.085   7.245   5.633  0.7833 -0.4406  0.6468
   54MOL    C4716053   1.153   7.045   5.702 -0.1317 -0.8193  0.6860
   54MOL    O4816054   1.295   7.063   5.703  0.1628  0.1010 -0.4161
   54MOL    C4916055   1.382   6.963   5.730  0.3920 -0.4770  0.4253
   54MOL    O5016056   1.349   6.849   5.764 -0.1878  0.4230 -0.2690
   54MOL    C5116057   1.534   6.996   5.707  0.0821 -0.0985  0.5482
   54MOL    C5216058   1.569   7.149   5.731  0.3559  0.4979  0.4060
   54MOL    C5316059   1.089   7.026   5.846 -0.4474 -0.6792  0.1007
   54MOL    H5416060   1.154   6.951   5.647  0.8095 -1.7976  2.3298
   54MOL    H5516061   1.578   6.923   5.775  0.3408 -0.7647 -0.3207
   54MOL    H5616062   1.560   6.952   5.611 -1.5625 -0.3971  0.2132
   54MOL    H5716063   1.675   7.175   5.736  0.3037  0.3284  2.5644
   54MOL    H5816064   1.521   7.215   5.659  0.0950  0.0334  0.1565
   54MOL    H5916065   1.535   7.178   5.830 -0.4767  1.3731 -0.1263
   54MOL    H6016066   1.003   6.966   5.818 -0.2369 -0.4013 -1.2213
   54MOL    H6116067   1.151   6.966   5.912 -0.1129  1.1056  1.4407
   54MOL    C6216068   1.049   7.162   5.919 -0.2998  0.5172  0.8216
   54MOL    O6316069   0.953   7.113   6.019 -0.3494  0.4960  0.3258
   54MOL    C6416070   0.822   7.107   5.991 -0.9473 -0.4788  0.5242
   54MOL    O6516071   0.767   7.160   5.895  0.0778  0.0324 -0.5396
   54MOL    C6616072   0.753   7.021   6.096 -0.0283  0.2985 -0.3391
   54MOL    C6716073   0.619   6.970   6.042 -0.6141  0.5971 -1.5150
   54MOL    C6816074   1.177   7.215   5.998 -0.2106 -0.3510  0.0693
   54MOL    H6916075   1.013   7.231   5.843 -0.8255 -0.8654 -0.1996
   54MOL    H7016076   0.816   6.932   6.106  2.6487  2.1071 -0.4655
   54MOL    H7116077   0.736   7.067   6.193 -2.0860  0.1205 -0.6053
   54MOL    H7216078   0.614   6.921   5.945  0.1224  2.4688 -2.5143
   54MOL    H7316079   0.581   6.905   6.121  3.1562 -0.9242 -0.8386
   54MOL    H7416080   0.542   7.046   6.029 -1.5138 -0.2294 -1.1357
   54MOL    H7516081   1.195   7.155   6.087 -2.2431 -0.9251  0.1111
   54MOL    H7616082   1.270   7.214   5.941 -0.0334 -0.3709  0.3584
   54MOL    C7716083   1.163   7.363   6.036 -1.0085 -0.1523 -0.5691
   54MOL    O7816084   1.131   7.445   5.922  0.4934 -0.1414  0.0837
   54MOL    C7916085   1.230   7.458   5.833  0.1840 -1.2723  0.0439
   54MOL    O8016086   1.344   7.420   5.846 -0.7986 -0.7782 -0.0465
   54MOL    C8116087   1.183   7.542   5.709 -0.2404 -0.2539 -0.3318
   54MOL    C8216088   1.292   7.611   5.630 -0.0708 -0.3404 -0.3115
   54MOL    C8316089   1.059   7.390   6.142 -0.1724  0.2701  0.4738
   54MOL    H8416090   1.260   7.394   6.074 -1.5582 -1.0465  1.6483
   54MOL    H8516091   1.122   7.491   5.635  1.2677 -2.6483  0.0438
   54MOL    H8616092   1.121   7.612   5.766  0.0136 -1.4531  1.4690
   54MOL    H8716093   1.357   7.667   5.698  0.3446 -1.1764 -0.0167
   54MOL    H8816094   1.352   7.541   5.573 -0.1821  0.3158 -1.2423
   54MOL    H8916095   1.253   7.681   5.557 -1.6252  0.6562  1.4208
   54MOL    H9016096   1.062   7.499   6.152 -2.8836  0.3304  0.9852
   54MOL    H9116097   0.964   7.363   6.096  0.0226  0.3547  0.0102
   54MOL    C9216098   1.081   7.322   6.280 -0.1334 -0.1366  0.0364
   54MOL    O9316099   1.199   7.376   6.336 -0.4657 -0.3382 -0.5844
   54MOL    C9416100   1.290   7.301   6.395  0.3597  0.0422 -0.2179
   54MOL    O9516101   1.289   7.180   6.415  0.4655  0.2033  0.0225
   54MOL    C9616102   1.395   7.383   6.468  0.0435  0.2384  0.5564
   54MOL    C9716103   1.346   7.498   6.545 -0.1115 -0.3788 -0.3337
   54MOL    C9816104   0.965   7.353   6.367 -0.1954 -0.0455  0.5498
   54MOL    H9916105   1.092   7.214   6.266 -0.0491 -0.3312  1.5361
   54MOL   H10016106   1.436   7.305   6.532 -0.9555  0.2893  1.2646
   54MOL   H10116107   1.475   7.409   6.398 -1.7482 -2.3471 -2.6415
   54MOL   H10216108   1.410   7.521   6.630 -2.2832  0.4301  1.1415
   54MOL   H10316109   1.344   7.588   6.484  1.1167 -0.0196  0.1450
   54MOL   H10416110   1.249   7.486   6.593 -0.7557  0.2875 -1.4567
   54MOL   H10516111   0.979   7.460   6.386  1.7124 -0.0294 -0.7960
   54MOL   H10616112   0.877   7.335   6.306  0.6526  0.6547 -0.9158
   54MOL   C10716113   0.950   7.284   6.505 -0.2136  0.1273 -0.1754
   54MOL   O10816114   0.841   7.339   6.580 -0.8319  0.0823 -0.6756
   54MOL   C10916115   0.865   7.453   6.646 -0.3850 -0.2169 -0.5120
   54MOL   O11016116   0.941   7.538   6.617  0.4550 -0.4358 -0.2220
   54MOL   C11116117   0.766   7.474   6.758 -0.1436 -0.0214  0.5972
   54MOL   C11216118   0.788   7.395   6.879  0.4697  0.1123  0.1492
   54MOL   C11316119   0.907   7.139   6.477 -0.2502  0.2927  0.2779
   54MOL   H11416120   1.045   7.289   6.556 -0.3404  0.7590  0.0029
   54MOL   H11516121   0.774   7.579   6.788  1.7287 -0.3845  1.4097
   54MOL   H11616122   0.673   7.471   6.700 -0.4555  1.1213  1.0163
   54MOL   H11716123   0.704   7.404   6.948  0.0707 -0.9113 -0.1923
   54MOL   H11816124   0.811   7.291   6.855 -2.3618 -0.6081  0.3408
   54MOL   H11916125   0.875   7.435   6.930  1.2277 -0.5239 -0.6342
   54MOL   H12016126   0.808   7.142   6.432  0.4375  0.4826 -1.2649
   54MOL   H12116127   0.959   7.096   6.392  2.0253 -3.8465  3.6144
   54MOL   C12216128   0.928   7.046   6.600 -0.0454  1.1016  0.8537
   54MOL   O12316129   0.838   6.942   6.576  0.4258  0.1471 -0.5317
   54MOL   C12416130   0.740   6.919   6.659  0.4823 -0.0242  1.1146
   54MOL   O12516131   0.725   6.970   6.771  0.0307  0.1393 -0.2147
   54MOL   C12616132   0.637   6.824   6.598  0.1899 -0.5276  0.0342
   54MOL   C12716133   0.560   6.879   6.475  0.9243 -0.4311  0.5697
   54MOL   C12816134   1.071   6.988   6.610  0.0527 -0.7200 -0.0277
   54MOL   H12916135   0.902   7.110   6.685  0.6097  3.0236 -0.3613
   54MOL   H13016136   0.680   6.727   6.572  1.9176  0.2493 -0.0397
   54MOL   H13116137   0.574   6.795   6.683 -0.1209 -0.3759 -0.1433
   54MOL   H13216138   0.488   6.803   6.445 -0.5233  1.0596  0.2083
   54MOL   H13316139   0.510   6.974   6.492 -1.7843 -1.2529 -2.3894
   54MOL   H13416140   0.633   6.886   6.394 -0.0991  0.9913 -0.2455
   54MOL   H13516141   1.077   6.901   6.544  1.2643  0.5500 -1.6327
   54MOL   H13616142   1.135   7.066   6.569  1.3585 -1.5979  0.2807
   54MOL   C13716143   1.116   6.945   6.750 -0.6734 -0.1761  1.0282
   54MOL   O13816144   1.050   6.822   6.771 -0.1490  0.3580  0.0520
   54MOL   C13916145   1.016   6.775   6.897  0.3518 -0.6484  0.1705
   54MOL   O14016146   1.064   6.809   7.001  0.1955 -0.4054  0.7487
   54MOL   C14116147   0.899   6.678   6.884  0.3082  0.5697 -0.1097
   54MOL   C14216148   0.823   6.639   7.010 -0.0183  0.6476 -0.2126
   54MOL   C14316149   1.270   6.931   6.760  0.1473  0.4184 -0.1043
   54MOL   H14416150   1.074   7.021   6.816  0.4727  1.7239 -0.3843
   54MOL   H14516151   0.825   6.707   6.810 -0.5362  0.1797  0.5682
   54MOL   H14616152   0.944   6.587   6.844 -0.8374 -0.2696  0.4752
   54MOL   H14716153   0.754   6.720   7.036 -0.6739  0.2582 -0.7208
   54MOL   H14816154   0.754   6.563   6.973 -0.6657  1.0934  0.0555
   54MOL   H14916155   0.878   6.592   7.091 -1.2137  2.8542  1.9698
   54MOL   H15016156   1.290   6.869   6.847 -1.2278 -0.5381 -0.4529
   54MOL   H15116157   1.305   6.876   6.673 -2.7709 -0.3390 -0.8446
   54MOL   C15216158   1.366   7.048   6.771 -0.1930 -0.1592  0.1176
   54MOL   O15316159   1.305   7.135   6.864  0.1403 -0.7850  0.4082
   54MOL   C15416160   1.232   7.242   6.831 -0.4538  0.2957 -0.4670
   54MOL   O15516161   1.207   7.267   6.712 -0.4790 -0.4996 -0.0238
   54MOL   C15616162   1.196   7.334   6.941 -0.2676 -0.3098  0.0676
   54MOL   C15716163   1.276   7.465   6.937  0.0391 -1.2828 -0.4754
   54MOL   C15816164   1.505   6.991   6.816  0.6092  0.5346 -0.3014
   54MOL   H15916165   1.380   7.107   6.680 -0.4357  0.9429  0.7773
   54MOL   H16016166   1.088   7.340   6.948 -0.3420  0.8167 -1.6373
   54MOL   H16116167   1.234   7.283   7.029 -2.1505 -0.2055  0.9457
   54MOL   H16216168   1.227   7.546   6.883  1.5336 -0.4862 -0.6754
   54MOL   H16316169   1.291   7.505   7.037 -0.1922 -1.1105 -0.5080
   54MOL   H16416170   1.377   7.455   6.898  0.1691  0.7117 -0.7360
   54MOL   H16516171   1.500   6.944   6.915 -0.2989  1.2753  0.0197
   54MOL   H16616172   1.536   6.907   6.754  1.6806 -0.9986  2.2315
   54MOL   C16716173   1.614   7.097   6.806  0.2868 -0.1029 -0.4692
   54MOL   O16816174   1.619   7.153   6.674 -0.0040 -0.0120  0.0538
   54MOL   C16916175   1.681   7.084   6.573 -0.5373 -0.3652 -0.3840
   54MOL   O17016176   1.726   6.972   6.584  0.6326  0.0656  0.4663
   54MOL   C17116177   1.695   7.163   6.441  0.1996 -0.4215 -0.6018
   54MOL   C17216178   1.763   7.302   6.454  0.2312  0.1106  0.7906
   54MOL   C17316179   1.609   7.210   6.912  0.1048 -0.0017 -0.8407
   54MOL   H17416180   1.702   7.034   6.819 -1.0791 -2.3873 -1.9715
   54MOL   H17516181   1.773   7.108   6.388 -0.2945 -2.1749  0.4681
   54MOL   H17616182   1.598   7.176   6.393 -0.6009  1.4102  1.4276
   54MOL   H17716183   1.693   7.371   6.500  0.9570 -0.0356  2.1411
   54MOL   H17816184   1.851   7.296   6.518  2.1458 -0.5283 -1.8228
   54MOL   H17916185   1.799   7.346   6.361 -1.4928  0.1189  0.1098
   54MOL   H18016186   1.539   7.284   6.875  1.2625  0.0229 -3.0684
   54MOL   H18116187   1.562   7.165   7.000 -1.7079 -0.9117 -2.2531
   54MOL   C18216188   1.739   7.278   6.959 -0.4489  0.0062  0.1459
   54MOL   O18316189   1.826   7.171   6.990 -0.4445  0.0883  0.1333
   54MOL   C18416190   1.847   7.127   7.114 -0.3270 -0.2884  0.2869
   54MOL   O18516191   1.785   7.165   7.215  0.5581  0.1826  0.3677
   54MOL   C18616192   1.963   7.028   7.125 -0.2495 -0.6818  0.3020
   54MOL   C18716193   2.089   7.075   7.059 -1.2960  0.0150  0.4122
   54MOL   C18816194   1.828   7.350   6.859  0.4064 -0.0323 -0.2591
   54MOL   H18916195   1.729   7.334   7.052  1.4614 -1.2461  1.1537
   54MOL   H19016196   1.984   6.993   7.226  0.4823 -2.5085 -0.4658
   54MOL   H19116197   1.922   6.939   7.078  1.6651 -0.8833 -1.0694
   54MOL   H19216198   2.170   7.005   7.077 -0.5721  0.7280 -0.0016
   54MOL   H19316199   2.073   7.070   6.951 -2.7562  0.0104  0.6191
   54MOL   H19416200   2.112   7.180   7.080 -0.5599 -0.3191  1.2814
   54MOL   H19516201   1.851   7.283   6.776  2.7113 -1.4385  1.4513
   54MOL   H19616202   1.764   7.427   6.817 -0.4316  0.2739  1.5218
   54MOL   C19716203   1.961   7.405   6.919 -0.1537 -0.5365 -0.0679
   54MOL   O19816204   2.034   7.435   6.799 -0.1104 -0.2479 -0.0880
   54MOL   C19916205   2.107   7.347   6.733  0.0702  0.4438  0.1390
   54MOL   O20016206   2.125   7.228   6.768 -0.0921 -0.2034  0.2753
   54MOL   C20116207   2.178   7.421   6.622 -0.3454 -0.0573 -0.9891
   54MOL   C20216208   2.300   7.344   6.568 -0.0883  0.3126 -0.0899
   54MOL   C20316209   1.951   7.537   6.996 -0.8229  0.1398 -0.6682
   54MOL   H20416210   2.004   7.327   6.981 -0.5355 -0.5607  0.1682
   54MOL   H20516211   2.103   7.454   6.551 -1.9559 -1.5495 -0.0168
   54MOL   H20616212   2.209   7.519   6.658 -1.2350  0.1073 -0.6754
   54MOL   H20716213   2.387   7.341   6.635 -0.6667  1.1956  0.7039
   54MOL   H20816214   2.268   7.245   6.536  0.8287 -0.5890  1.6744
   54MOL   H20916215   2.347   7.392   6.482 -2.8976  0.5267 -1.5464
   54MOL   H21016216   1.961   7.617   6.923  0.0773  0.2430 -0.4360
   54MOL   H21116217   1.850   7.554   7.035 -1.5639 -3.1209 -1.0475
   54MOL   C21216218   2.055   7.547   7.104 -0.0798 -0.5073  0.1007
   54MOL   O21316219   1.999   7.452   7.194 -0.1053 -0.7029 -0.1282
   54MOL   C21416220   2.010   7.487   7.324 -0.0550  0.3161  0.7477
   54MOL   O21516221   2.068   7.589   7.365 -0.0374 -0.0436  0.3025
   54MOL   C21616222   1.951   7.383   7.420 -0.2005 -0.1710 -0.6950
   54MOL   C21716223   1.873   7.445   7.537  0.3067  0.0207  0.1471
   54MOL   C21816224   2.203   7.537   7.067 -0.6677  0.0297 -0.8008
   54MOL   H21916225   2.045   7.651   7.138  0.0536  0.2282 -2.0300
   54MOL   H22016226   1.879   7.314   7.377  0.0713 -0.0332 -1.3810
   54MOL   H22116227   2.037   7.329   7.459 -2.0673 -1.4427  1.7842
   54MOL   H22216228   1.944   7.512   7.585 -0.2114  1.2190 -0.7485
   54MOL   H22316229   1.792   7.507   7.499  1.1440  1.5544  0.8558
   54MOL   H22416230   1.825   7.373   7.604 -2.1945  0.6223 -0.9328
   54MOL   H22516231   2.256   7.546   7.162 -0.6555  0.6723 -0.8664
   54MOL   H22616232   2.214   7.435   7.032 -0.1862 -1.2550  2.8778
   54MOL   C22716233   2.257   7.642   6.968  0.0263  0.3076  0.2468
   54MOL   O22816234   2.257   7.769   7.033  0.4982  0.1820  0.6527
   54MOL   C22916235   2.158   7.861   7.013 -0.3035  0.8580 -0.5233
   54MOL   O23016236   2.059   7.857   6.946  0.4416 -0.8668  0.2657
   54MOL   C23116237   2.168   0.043   7.105  0.2914 -0.5459 -0.6329
   54MOL   C23216238   2.311   0.062   7.169  0.4744 -0.5847  0.3049
   54MOL   C23316239   2.411   7.618   6.930  0.1350 -1.2030 -0.3788
   54MOL   H23416240   2.194   7.644   6.879 -0.2004  0.4286  0.4107
   54MOL   H23516241   2.125   0.132   7.059  0.8188 -0.8250 -1.6768
   54MOL   H23616242   2.093   0.027   7.182 -1.1516  1.4385 -1.5707
   54MOL   H23716243   2.396   0.047   7.103  2.8439 -0.0209  3.0975
   54MOL   H23816244   2.313   0.163   7.210  1.3225 -0.9673  1.2522
   54MOL   H23916245   2.331   0.003   7.259  2.8140 -0.2716  0.0204
   54MOL   H24016246   2.471   7.617   7.021  1.0043 -3.2124 -0.9369
   54MOL   H24116247   2.425   7.517   6.890 -1.3808 -1.4666 -0.2516
   54MOL   C24216248   2.478   7.717   6.825  0.2038 -0.2831  0.0591
   54MOL   O24316249   2.413   7.695   6.700 -1.0947 -0.4586  0.5213
   54MOL   C24416250   2.485   7.647   6.588  0.2768  0.1952 -0.2386
   54MOL   O24516251   2.600   7.609   6.599 -0.1292  0.4852  0.8132
   54MOL   C24616252   2.399   7.655   6.467 -0.1915  0.3284 -0.3899
   54MOL   C24716253   2.470   7.607   6.335  0.1651 -0.1860  0.0419
   54MOL   C24816254   2.465   7.863   6.863  0.0557  0.4739  0.1145
   54MOL   H24916255   2.584   7.690   6.821 -0.1610 -1.7666  0.1398
   54MOL   H25016256   2.308   7.597   6.478  0.7934 -1.0245  0.8678
   54MOL   H25116257   2.374   7.758   6.442  0.3180  0.9814  1.7052
   54MOL   H25216258   2.567   7.655   6.320  0.0369  0.0315 -0.0961
   54MOL   H25316259   2.476   7.499   6.348 -2.5230 -0.1410  1.9670
   54MOL   H25416260   2.414   7.614   6.241  2.6075  2.8850 -1.2938
   54MOL   H25516261   2.360   7.875   6.838  0.6731  0.1794 -2.8527
   54MOL   H25616262   2.485   7.874   6.969  2.3889  0.4763 -0.3016
   54MOL   C25716263   2.550   0.004   6.773 -0.1768  0.3086 -0.5939
   54MOL   O25816264   2.496   0.136   6.764  0.3975  0.1757  0.2959
   54MOL   C25916265   2.511   0.206   6.646 -0.1670  0.5678  0.5503
   54MOL   O26016266   2.545   0.153   6.539  0.3339 -0.0008 -0.5304
   54MOL   C26116267   2.487   0.353   6.663  1.1971 -0.0254 -0.0277
   54MOL   C26216268   2.615   0.426   6.673 -0.1268 -0.2528  0.2321
   54MOL   C26316269   2.693   0.001   6.833  0.1219 -0.1733 -0.0664
   54MOL   H26416270   2.539   7.900   6.677 -2.5682 -1.3357  0.4527
   54MOL   H26516271   2.437   0.393   6.575  0.3796 -1.5564 -0.2755
   54MOL   H26616272   2.409   0.370   6.738  0.5033 -1.8640 -0.3123
   54MOL   H26716273   2.672   0.407   6.763  1.0218 -0.0243 -0.4355
   54MOL   H26816274   2.679   0.414   6.585  0.4277  2.0634  0.2884
   54MOL   H26916275   2.598   0.534   6.665  2.1514 -0.1227 -4.6848
   54MOL   H27016276   2.697   0.066   6.921 -1.4606 -0.3732  0.1594
   54MOL   H27116277   2.721   7.851   6.880  0.9551  0.3259  0.4538
   54MOL   C27216278   2.792   0.045   6.725 -0.0786 -0.4165  0.4352
   54MOL   O27316279   2.913   0.067   6.800 -0.0583 -0.1191  0.0027
   54MOL   C27416280   2.935   0.189   6.858 -0.1584  0.0778 -0.4218
   54MOL   O27516281   2.861   0.292   6.851 -0.5126  0.3445 -0.1097
   54MOL   C27616282   3.070   0.183   6.937 -0.5102  0.0682 -0.0762
   54MOL   C27716283   3.131   0.321   6.958 -0.4516  0.3242  0.4378
   54MOL   C27816284   2.819   7.888   6.622  0.5363 -0.1873  0.3192
   54MOL   H27916285   2.764   0.138   6.677  1.9755 -0.1042 -0.1737
   54MOL   H28016286   3.054   0.125   7.028 -0.2056 -0.4773 -0.3686
   54MOL   H28116287   3.138   0.118   6.882  0.1713 -0.5722  1.4705
   54MOL   H28216288   3.066   0.391   7.012 -1.7120  0.4651 -1.2108
   54MOL   H28316289   3.224   0.308   7.013 -0.8736  0.3617  1.1734
   54MOL   H28416290   3.157   0.360   6.859 -0.4033  0.9837  0.7071
   54MOL   H28516291   2.844   7.787   6.656  0.2383  0.4283  2.4209
   54MOL   H28616292   2.723   7.884   6.570  0.2050  0.7473  0.8551
   54MOL   C28716293   2.920   7.922   6.511 -0.1852 -0.2497 -0.6576
   54MOL   O28816294   3.052   7.886   6.556  0.2203  0.3134 -0.1089
   54MOL   C28916295   3.145   0.038   6.553 -0.3903  0.2558  0.2871
   54MOL   O29016296   3.118   0.159   6.554  0.2589  0.2216 -0.1590
   54MOL   C29116297   3.287   7.933   6.564 -0.8121  0.0434 -0.3952
   54MOL   C29216298   3.336   7.920   6.704 -0.3061 -0.3420 -0.3678
   54MOL   C29316299   2.903   7.837   6.383  0.3150  0.0517  0.0942
   54MOL   H29416300   2.905   0.083   6.491  0.9122  0.2306  0.8808
   54MOL   H29516301   3.304   7.839   6.511 -0.5093 -0.6091  0.8547
   54MOL   H29616302   3.364   0.044   6.511  1.6312  0.3923  3.3441
   54MOL   H29716303   3.318   0.066   6.761  0.5253 -1.6115  2.0134
   54MOL   H29816304   3.300   7.834   6.761  1.8079 -1.3256 -0.4657
   54MOL   H29916305   3.444   7.905   6.702 -0.3079 -0.5735  0.8745
   54MOL   H30016306   2.891   7.733   6.413 -0.5067  0.1188  0.0042
   54MOL   H30116307   2.821   7.868   6.320  1.8250  0.0527 -1.9285
   54MOL   H30216308   2.999   7.847   6.331 -0.1430  4.0751 -0.1449
   55MOL     C116309   6.765   7.662   7.214  0.3355 -0.3138 -0.5872
   55MOL     O216310   6.846   7.773   7.191 -0.1477  0.2689 -0.2184
   55MOL     C316311   6.924   7.825   7.294  0.6266 -0.5367 -0.2458
   55MOL     O416312   6.933   7.784   7.405 -0.5221 -0.4646  0.3316
   55MOL     C516313   6.995   0.004   7.250  0.4999 -0.2748  0.0821
   55MOL     C616314   7.097   0.045   7.347  0.5177 -0.1157 -0.3572
   55MOL     C716315   6.635   7.702   7.289 -0.2049 -0.0619  0.1690
   55MOL     H816316   6.818   7.593   7.280 -2.8813 -0.7172  1.6912
   55MOL     H916317   7.051   7.930   7.158  0.5375  2.4551 -0.5068
   55MOL    H1016318   6.928   0.082   7.213  0.7272  0.1915  0.6573
   55MOL    H1116319   7.175   0.108   7.303 -1.1867  1.2170 -1.5298
   55MOL    H1216320   7.045   0.098   7.427  1.8426  1.4571 -0.4938
   55MOL    H1316321   7.150   7.904   7.388  0.8449  0.5265  0.5952
   55MOL    H1416322   6.598   7.617   7.347  1.3875 -0.1929  1.0441
   55MOL    H1516323   6.661   7.765   7.375 -1.2100 -0.1476  0.5371
   55MOL    H1616324   6.732   7.613   7.122 -0.1658 -3.5175  1.2183
   55MOL    C1716325   6.522   7.754   7.212 -0.1777  0.0157 -0.0625
   55MOL    O1816326   6.449   7.648   7.150 -0.1398 -0.4795 -0.1098
   55MOL    C1916327   6.467   7.606   7.027  0.0310  0.7022  0.7420
   55MOL    O2016328   6.561   7.639   6.955 -0.3129 -0.4045  0.3020
   55MOL    C2116329   6.373   7.491   6.987  0.6964  0.3426 -0.0568
   55MOL    C2216330   6.409   7.425   6.853  0.0979 -0.2122  0.5967
   55MOL    C2316331   6.419   7.837   7.301 -0.3995 -1.0672 -0.0720
   55MOL    H2416332   6.563   7.816   7.132 -0.2277  3.8890  2.7504
   55MOL    H2516333   6.363   7.415   7.065 -3.0787  0.7154 -0.0934
   55MOL    H2616334   6.280   7.545   6.972 -0.1453 -1.3508 -1.0149
   55MOL    H2716335   6.503   7.374   6.870  1.6807  2.0190 -1.1789
   55MOL    H2816336   6.343   7.339   6.840  0.1037 -0.3634  1.5028
   55MOL    H2916337   6.412   7.496   6.770  0.4720  0.8374  1.5040
   55MOL    H3016338   6.330   7.856   7.241  0.0280  1.1016 -0.0465
   55MOL    H3116339   6.388   7.783   7.390 -1.4713  1.2689  0.9978
   55MOL    C3216340   6.466   0.036   7.341  0.2188  0.1596  0.4368
   55MOL    O3316341   6.480   0.107   7.218  0.1154 -0.2148 -0.4006
   55MOL    C3416342   6.601   0.176   7.195  0.6495  0.1833 -0.6585
   55MOL    O3516343   6.682   0.212   7.280  0.2134  0.2863  0.2348
   55MOL    C3616344   6.632   0.198   7.045 -0.1705 -0.0052 -0.0546
   55MOL    C3716345   6.630   0.072   6.961  0.0894 -0.0546 -0.2621
   55MOL    C3816346   6.388   0.128   7.431 -0.2651 -1.0015  0.1853
   55MOL    H3916347   6.567   0.024   7.378  1.5059 -2.8244 -3.7392
   55MOL    H4016348   6.549   0.253   7.002 -0.7648 -2.1404 -1.7036
   55MOL    H4116349   6.728   0.250   7.037 -0.2149  0.9510  4.2529
   55MOL    H4216350   6.717   0.006   6.955  0.9115  0.9200  0.7897
   55MOL    H4316351   6.543   0.010   6.982  1.4037 -1.0143  2.4775
   55MOL    H4416352   6.629   0.109   6.858  1.9421  1.8926  0.3959
   55MOL    H4516353   6.431   0.228   7.432  0.4486 -1.2831 -1.4314
   55MOL    H4616354   6.287   0.138   7.391 -0.1186 -0.7537 -0.1290
   55MOL    C4716355   6.396   0.074   7.572  0.0679  0.5270 -0.1598
   55MOL    O4816356   6.527   0.107   7.615  0.3855 -0.1281  0.3431
   55MOL    C4916357   6.593   0.031   7.701 -0.2589  0.3650  0.2396
   55MOL    O5016358   6.564   7.859   7.736 -0.1828 -0.1133 -0.2874
   55MOL    C5116359   6.721   0.097   7.754 -0.3073  0.4537 -0.3170
   55MOL    C5216360   6.838   0.059   7.662 -0.3790  0.0306 -0.1503
   55MOL    C5316361   6.299   0.161   7.666  0.4294  0.4834  0.1158
   55MOL    H5416362   6.379   7.911   7.576  3.3678 -0.0020  1.5649
   55MOL    H5516363   6.714   0.206   7.761 -0.0977  0.3742  1.3218
   55MOL    H5616364   6.743   0.063   7.855 -1.3909 -1.3115 -0.6539
   55MOL    H5716365   6.837   0.128   7.577  1.5635  0.5995  0.2441
   55MOL    H5816366   6.932   0.085   7.712 -1.6144 -0.1203  2.3330
   55MOL    H5916367   6.839   7.897   7.642  0.4665  0.2932 -1.5534
   55MOL    H6016368   6.313   0.153   7.774 -0.7851 -0.9966  0.1634
   55MOL    H6116369   6.300   0.269   7.652  0.4474  0.3930 -0.6007
   55MOL    C6216370   6.153   0.120   7.662 -0.3907  0.6166 -0.2137
   55MOL    O6316371   6.133   7.926   7.672 -0.2539  0.2192  0.8086
   55MOL    C6416372   6.034   7.863   7.610  0.3808 -0.0570 -0.8292
   55MOL    O6516373   5.948   7.928   7.545 -0.4917 -0.2048  0.1709
   55MOL    C6616374   6.054   7.705   7.614  0.9593  0.1632  0.1951
   55MOL    C6716375   6.188   7.654   7.569  0.0731 -0.6397  0.0109
   55MOL    C6816376   6.053   0.197   7.755 -0.6594  0.5593 -0.7335
   55MOL    H6916377   6.122   0.152   7.562 -0.4210 -0.1528 -0.4502
   55MOL    H7016378   6.023   7.667   7.712  4.6882 -0.6629  1.1084
   55MOL    H7116379   5.980   7.660   7.547 -0.1576  0.9940  0.8397
   55MOL    H7216380   6.271   7.720   7.595 -0.0009 -0.0325 -1.2504
   55MOL    H7316381   6.198   7.550   7.600 -0.0143 -0.3264  1.1176
   55MOL    H7416382   6.185   7.654   7.460 -2.0468  1.5990  0.0218
   55MOL    H7516383   5.957   0.147   7.757 -0.3952  0.0485 -0.8199
   55MOL    H7616384   6.095   0.187   7.855  0.7306  1.8080 -1.1599
   55MOL    C7716385   6.023   0.346   7.727  0.9347 -0.4242  0.1497
   55MOL    O7816386   5.937   0.343   7.609  0.2197 -0.0020 -0.1883
   55MOL    C7916387   5.983   0.387   7.499 -0.4764  0.2393 -0.0545
   55MOL    O8016388   6.095   0.434   7.488  0.0276  0.0424 -0.1978
   55MOL    C8116389   5.879   0.387   7.383  0.6112  0.2782 -0.3423
   55MOL    C8216390   5.940   0.403   7.245  0.0253 -0.4884 -0.1280
   55MOL    C8316391   5.945   0.407   7.843 -0.1177  0.5744  0.5272
   55MOL    H8416392   6.112   0.408   7.715  0.2155  1.0825  2.3108
   55MOL    H8516393   5.827   0.291   7.381  0.3296  0.4404 -2.4311
   55MOL    H8616394   5.799   0.460   7.398  1.0475  0.0259  3.6569
   55MOL    H8716395   5.865   0.392   7.168 -2.8124  0.5227  2.3660
   55MOL    H8816396   5.999   0.495   7.245 -1.1432  0.2663 -2.0684
   55MOL    H8916397   6.005   0.316   7.233  0.9804  0.5487 -2.8320
   55MOL    H9016398   5.860   0.339   7.845  1.6348 -1.7252 -1.0927
   55MOL    H9116399   6.015   0.392   7.926  1.3811  1.3031 -0.5634
   55MOL    C9216400   5.904   0.553   7.828 -0.4836 -0.3833 -0.0759
   55MOL    O9316401   5.786   0.557   7.904  0.1734  0.8405  0.2240
   55MOL    C9416402   5.682   0.613   7.848  0.0363 -0.2567 -0.1692
   55MOL    O9516403   5.670   0.674   7.744  0.3498 -0.1498  0.4101
   55MOL    C9616404   5.560   0.600   7.939 -0.0130  0.1279  0.1072
   55MOL    C9716405   5.584   0.642   0.138 -0.2283  0.5962 -0.0227
   55MOL    C9816406   6.010   0.658   7.874  0.4971 -1.0256 -0.1867
   55MOL    H9916407   5.883   0.561   7.722 -1.6217 -1.2804  0.0804
   55MOL   H10016408   5.477   0.659   7.899  0.6061  0.5474 -0.5714
   55MOL   H10116409   5.531   0.495   7.938 -0.7572  0.3295 -2.1786
   55MOL   H10216410   5.496   0.617   0.196  0.6015 -1.8387  0.2671
   55MOL   H10316411   5.662   0.586   0.189  0.7293  0.6204 -1.4190
   55MOL   H10416412   5.604   0.749   0.141 -0.3559  0.6057  0.5136
   55MOL   H10516413   6.011   0.657   0.039  0.4854  0.0194 -0.1655
   55MOL   H10616414   6.111   0.642   7.837  0.6377 -1.2426  0.2798
   55MOL   C10716415   5.957   0.801   7.842  0.0437 -0.0974 -0.2781
   55MOL   O10816416   6.045   0.895   7.915 -0.0515  0.4855 -0.3310
   55MOL   C10916417   6.001   0.972   0.072 -0.6420  0.6142  0.1113
   55MOL   O11016418   5.887   0.960   0.123  0.1086 -0.2120  0.3004
   55MOL   C11116419   6.091   1.083   0.130  0.3006  0.1740  0.4704
   55MOL   C11216420   6.056   1.125   0.273  0.1959 -0.6197  0.2348
   55MOL   C11316421   5.950   0.833   7.692  0.2008 -0.5767 -0.1462
   55MOL   H11416422   5.860   0.816   7.890  0.3065 -0.8881  0.5110
   55MOL   H11516423   6.195   1.058   0.110  0.4661  1.1565  0.0699
   55MOL   H11616424   6.082   1.167   0.061  1.7859 -0.2724 -0.2934
   55MOL   H11716425   5.971   1.193   0.272 -0.1080 -0.9884  0.7676
   55MOL   H11816426   6.033   1.036   0.332  1.0957 -1.9584 -1.3697
   55MOL   H11916427   6.131   1.184   0.325  0.1406 -0.6776  0.3800
   55MOL   H12016428   6.047   0.855   7.647 -0.9147  1.0599 -1.8030
   55MOL   H12116429   5.902   0.752   7.638 -0.5577 -0.8106  0.8530
   55MOL   C12216430   5.856   0.953   7.660 -0.2476 -0.0862 -0.3238
   55MOL   O12316431   5.885   1.084   7.712 -0.4065 -0.0100 -0.2059
   55MOL   C12416432   5.786   1.175   7.760  0.4498 -0.1358 -0.2254
   55MOL   O12516433   5.666   1.169   7.741  0.0231 -0.1367  0.0199
   55MOL   C12616434   5.847   1.289   7.845 -0.3077  0.7662 -0.0956
   55MOL   C12716435   5.911   1.403   7.762 -0.1894  0.3201 -0.5292
   55MOL   C12816436   5.840   0.968   7.509  0.0277  0.4130  0.2693
   55MOL   H12916437   5.760   0.914   7.693  0.2806 -0.9077  0.2492
   55MOL   H13016438   5.766   1.335   7.902  0.2609 -0.5596  1.8585
   55MOL   H13116439   5.921   1.244   7.912 -1.6002 -0.0177  0.8272
   55MOL   H13216440   5.844   1.435   7.681 -1.2578 -2.9443 -0.9889
   55MOL   H13316441   5.949   1.485   7.823  0.8690 -1.5016  1.2681
   55MOL   H13416442   6.001   1.370   7.710  0.3692 -1.6718  1.6444
   55MOL   H13516443   5.792   0.871   7.491  0.8256  0.3704 -1.6617
   55MOL   H13616444   5.760   1.037   7.482 -1.8575 -1.4085  0.9996
   55MOL   C13716445   5.967   1.005   7.420 -0.0295 -0.3763 -0.2292
   55MOL   O13816446   5.935   0.962   7.289  0.8446 -0.4104 -0.2579
   55MOL   C13916447   5.937   0.835   7.248  0.0794 -0.1429  0.2998
   55MOL   O14016448   5.960   0.735   7.320 -0.2130 -0.0729  0.3005
   55MOL   C14116449   5.895   0.813   7.102 -0.3625 -0.4807 -0.2778
   55MOL   C14216450   5.783   0.905   7.065 -0.0835  0.4196 -1.0688
   55MOL   C14316451   6.005   1.149   7.420 -0.2492  0.0579 -0.3208
   55MOL   H14416452   6.057   0.955   7.456 -1.2804 -2.4436  0.1035
   55MOL   H14516453   5.985   0.812   7.041 -0.8098 -1.9058 -0.9227
   55MOL   H14616454   5.850   0.714   7.101  0.1622 -0.8053  2.7431
   55MOL   H14716455   5.759   0.893   6.959  0.6553 -0.2764 -1.1605
   55MOL   H14816456   5.699   0.889   7.132  0.1504  0.4299 -0.7741
   55MOL   H14916457   5.814   1.009   7.075  2.5061 -0.4130 -0.0440
   55MOL   H15016458   5.916   1.208   7.398 -0.7623 -0.8595 -0.6974
   55MOL   H15116459   6.046   1.166   7.520  0.7609 -1.4016 -0.4900
   55MOL   C15216460   6.125   1.180   7.333 -0.0719  0.0976 -0.5231
   55MOL   O15316461   6.070   1.194   7.202  0.3966 -0.2689 -0.8069
   55MOL   C15416462   6.148   1.159   7.093  0.2798  0.3588 -0.4110
   55MOL   O15516463   6.263   1.111   7.106 -0.4107 -0.0101 -0.0769
   55MOL   C15616464   6.089   1.194   6.960 -0.1422 -0.4307  0.5443
   55MOL   C15716465   6.144   1.084   6.860  0.8213 -0.2603 -0.3392
   55MOL   C15816466   6.210   1.304   7.378  0.5475 -0.5476 -0.3949
   55MOL   H15916467   6.192   1.095   7.342  2.4239  1.9999 -0.5133
   55MOL   H16016468   5.980   1.206   6.966 -0.1409  1.5136 -2.2828
   55MOL   H16116469   6.113   1.297   6.934 -3.1035  0.0072 -0.7080
   55MOL   H16216470   6.129   0.985   6.904 -1.1473 -0.4316 -1.3380
   55MOL   H16316471   6.086   1.085   6.768  0.2314 -1.7180 -0.0089
   55MOL   H16416472   6.249   1.107   6.844  0.4687  1.8726  0.2313
   55MOL   H16516473   6.289   1.329   7.307 -1.7540 -0.6139 -3.0611
   55MOL   H16616474   6.143   1.389   7.391  2.8323  1.3161 -0.2795
   55MOL   C16716475   6.283   1.295   7.514  0.2112  0.0184 -0.4332
   55MOL   O16816476   6.392   1.197   7.488  0.0718  0.2757 -0.2574
   55MOL   C16916477   6.378   1.081   7.525 -0.0114 -0.3442 -0.2601
   55MOL   O17016478   6.279   1.032   7.580  0.2328  0.3804 -0.1056
   55MOL   C17116479   6.502   1.004   7.486 -0.4751 -0.3700  0.3260
   55MOL   C17216480   6.528   0.985   7.342 -0.2084  0.2180  0.0819
   55MOL   C17316481   6.343   1.426   7.550 -0.2041  0.9813 -0.2800
   55MOL   H17416482   6.219   1.258   7.595  3.0419 -0.1428  1.8334
   55MOL   H17516483   6.586   1.056   7.533 -1.3685  1.0671  0.3594
   55MOL   H17616484   6.492   0.904   7.529 -1.0933 -0.9431 -1.1251
   55MOL   H17716485   6.431   0.997   7.294  0.2736 -1.3362 -1.3641
   55MOL   H17816486   6.603   1.062   7.320 -1.5815  1.0642 -1.7614
   55MOL   H17916487   6.564   0.883   7.330 -0.1043  0.5612 -3.0819
   55MOL   H18016488   6.441   1.429   7.502 -0.6866  3.2021 -1.2291
   55MOL   H18116489   6.298   1.509   7.495 -1.0938  0.2916 -0.6110
   55MOL   C18216490   6.354   1.459   7.700 -0.1212  0.1008 -0.5718
   55MOL   O18316491   6.418   1.348   7.767 -0.2019 -0.1948  0.0135
   55MOL   C18416492   6.389   1.301   7.889 -0.3578 -0.6864 -0.0890
   55MOL   O18516493   6.306   1.349   0.023  0.3391  0.0808 -0.0499
   55MOL   C18616494   6.466   1.175   7.916 -0.0221  0.2468  0.2925
   55MOL   C18716495   6.614   1.208   7.930 -0.2356  0.5112 -0.1930
   55MOL   C18816496   6.415   1.595   7.727  0.0924 -0.4429  0.1700
   55MOL   H18916497   6.248   1.462   7.723 -0.1290 -0.0183 -0.5866
   55MOL   H19016498   6.430   1.128   0.062 -0.2943 -2.0335 -0.9716
   55MOL   H19116499   6.455   1.097   7.841  0.4007  0.2101  0.2632
   55MOL   H19216500   6.627   1.316   7.929 -1.2691  0.7925  4.7261
   55MOL   H19316501   6.649   1.175   0.082  2.8737 -1.6145 -1.9541
   55MOL   H19416502   6.665   1.168   7.842  1.9575  1.3946  0.6594
   55MOL   H19516503   6.423   1.605   7.835  1.8387 -0.1789  0.0409
   55MOL   H19616504   6.517   1.590   7.689  0.0682 -1.0332  0.1907
   55MOL   C19716505   6.332   1.716   7.681 -0.2579 -0.8771 -0.1694
   55MOL   O19816506   6.219   1.732   7.770  0.4128  0.2386 -0.3542
   55MOL   C19916507   6.097   1.714   7.732  0.0919 -0.0134 -0.2143
   55MOL   O20016508   6.066   1.669   7.626  0.1017 -0.5469  0.1865
   55MOL   C20116509   5.985   1.739   7.833  0.2506  0.3321 -0.2776
   55MOL   C20216510   6.030   1.698   0.030  0.1742 -0.3196  0.1062
   55MOL   C20316511   6.414   1.854   7.702 -0.5860  0.5387  0.8721
   55MOL   H20416512   6.296   1.711   7.579 -0.8021  1.1873 -0.0969
   55MOL   H20516513   5.972   1.847   7.831  1.7367  0.5283 -0.2908
   55MOL   H20616514   5.894   1.696   7.792  0.2441  2.0828 -2.1746
   55MOL   H20716515   6.125   1.744   0.057  0.2998 -1.0793  0.9909
   55MOL   H20816516   5.959   1.711   0.112  2.2890 -0.6198  2.0148
   55MOL   H20916517   6.038   1.589   0.032 -0.7159 -0.3680  2.2861
   55MOL   H21016518   6.342   1.934   7.683  0.1127  0.6944 -1.2205
   55MOL   H21116519   6.466   1.855   7.797 -2.1481 -1.3362  1.7724
   55MOL   C21216520   6.517   1.858   7.583  0.0757  0.7481 -0.4725
   55MOL   O21316521   6.448   1.877   7.462  0.0431  0.1765  0.0406
   55MOL   C21416522   6.453   1.771   7.378 -0.8696 -0.4552 -0.3016
   55MOL   O21516523   6.501   1.662   7.397 -0.3394 -0.0303 -0.4004
   55MOL   C21616524   6.380   1.814   7.257 -0.5101  0.1997  0.5298
   55MOL   C21716525   6.346   1.690   7.166 -0.1119  0.7339  0.2430
   55MOL   C21816526   6.619   1.965   7.602 -0.8616  0.1082 -0.2189
   55MOL   H21916527   6.567   1.762   7.573 -0.6380  0.4133 -0.7931
   55MOL   H22016528   6.279   1.842   7.285 -0.7394  0.8856 -0.9574
   55MOL   H22116529   6.440   1.887   7.204 -0.1070  0.4994  1.3822
   55MOL   H22216530   6.306   1.731   7.073 -0.4197 -2.0721 -0.9145
   55MOL   H22316531   6.444   1.654   7.135 -1.0934  0.7327 -3.1401
   55MOL   H22416532   6.280   1.612   7.203  0.9168 -1.6401 -2.6838
   55MOL   H22516533   6.670   1.954   7.506  0.6275 -1.1174  0.6919
   55MOL   H22616534   6.569   2.062   7.606  0.5978  0.8356  0.5267
   55MOL   C22716535   6.717   1.950   7.723 -0.7147 -0.0118 -0.1504
   55MOL   O22816536   6.805   1.846   7.690 -0.4343 -0.4002  0.8555
   55MOL   C22916537   6.802   1.734   7.763  0.1790 -0.2449 -0.1046
   55MOL   O23016538   6.731   1.715   7.862  0.0658 -0.1206 -0.3358
   55MOL   C23116539   6.871   1.615   7.695 -0.5576 -0.0786  0.0930
   55MOL   C23216540   6.802   1.529   7.585  0.2619 -0.6207 -0.0835
   55MOL   C23316541   6.798   2.076   7.749  0.3100  0.4671  0.2827
   55MOL   H23416542   6.652   1.931   7.808  0.6189  0.3264  0.9643
   55MOL   H23516543   6.955   1.669   7.651  0.3076 -0.7068  0.9446
   55MOL   H23616544   6.916   1.546   7.767 -0.9889  0.2250  0.6627
   55MOL   H23716545   6.882   1.491   7.521  0.6426  0.0138  0.0072
   55MOL   H23816546   6.744   1.449   7.631  0.0955  0.1453  1.0516
   55MOL   H23916547   6.739   1.588   7.519 -1.6731 -0.1226  2.1493
   55MOL   H24016548   6.875   2.057   7.823 -0.5602  0.5893  1.2401
   55MOL   H24116549   6.836   2.121   7.658 -0.4253 -1.6809 -1.1071
   55MOL   C24216550   6.712   2.188   7.817 -0.0356  0.2761  0.7374
   55MOL   O24316551   6.679   2.157   0.011 -0.2173  0.3331  0.5036
   55MOL   C24416552   6.559   2.121   0.042  0.3052 -0.5949 -0.0501
   55MOL   O24516553   6.472   2.098   7.909 -0.5888 -0.5560 -0.1577
   55MOL   C24616554   6.527   2.122   0.191 -0.2839 -0.3324 -1.1755
   55MOL   C24716555   6.633   2.046   0.274 -0.1782 -0.9727 -0.3238
   55MOL   C24816556   6.800   2.311   7.827  0.4910 -0.0988 -0.2563
   55MOL   H24916557   6.625   2.207   7.754 -0.1561  1.5437  1.2518
   55MOL   H25016558   6.523   2.225   0.228  0.5889 -0.7584  0.1725
   55MOL   H25116559   6.434   2.067   0.201  0.2640 -1.2522 -1.0803
   55MOL   H25216560   6.717   2.114   0.285 -1.0104 -0.1257  0.9263
   55MOL   H25316561   6.601   2.014   0.373 -0.2791 -0.9136 -0.3371
   55MOL   H25416562   6.673   1.956   0.227  2.2262 -0.2910  0.3616
   55MOL   H25516563   6.863   2.294   7.914  0.1797  1.3611  0.2650
   55MOL   H25616564   6.851   2.338   7.734 -0.2021  1.3210 -0.2478
   55MOL   C25716565   6.733   2.442   7.866  0.4213 -0.3750  0.4979
   55MOL   O25816566   6.824   2.521   7.928 -0.5004 -0.0612 -0.0542
   55MOL   C25916567   6.826   2.541   0.118  0.4439  0.2028  0.3612
   55MOL   O26016568   6.784   2.463   0.206  0.7826 -0.9646  0.3968
   55MOL   C26116569   6.919   2.664   0.157 -0.3953  0.7374  0.1283
   55MOL   C26216570   6.874   2.802   0.093 -0.3143 -0.4315 -0.1078
   55MOL   C26316571   6.685   2.525   7.742  0.7675  0.1702  0.0985
   55MOL   H26416572   6.648   2.421   7.930  0.6119 -1.6034  0.3633
   55MOL   H26516573   6.935   2.668   0.264  2.4839 -2.1485 -0.1314
   55MOL   H26616574   7.014   2.643   0.107 -1.0240 -2.9083  0.3156
   55MOL   H26716575   6.906   2.806   7.934 -2.4484 -0.8482 -0.7918
   55MOL   H26816576   6.767   2.823   0.087 -0.5928 -1.5262  0.8038
   55MOL   H26916577   6.925   2.881   0.148 -3.4810 -0.7593  3.4986
   55MOL   H27016578   6.661   2.625   7.778 -2.1488  0.1973 -1.8376
   55MOL   H27116579   6.770   2.529   7.674  1.0657 -1.7236  0.3322
   55MOL   C27216580   6.570   2.483   7.648 -0.0261 -0.2086 -0.7467
   55MOL   O27316581   6.447   2.481   7.718 -0.3561  0.3407  0.1792
   55MOL   C27416582   6.353   2.394   7.687  0.2796 -0.1844  0.2197
   55MOL   O27516583   6.365   2.307   7.600 -0.3431 -0.4547  0.3374
   55MOL   C27616584   6.231   2.396   7.780 -0.0796  0.2975 -0.2503
   55MOL   C27716585   6.132   2.509   7.728 -0.4606  0.0544  0.2538
   55MOL   C27816586   6.548   2.564   7.517 -0.0482 -0.2287  0.2189
   55MOL   H27916587   6.594   2.379   7.623 -1.6741 -0.7357 -0.2378
   55MOL   H28016588   6.182   2.299   7.771  1.5872 -0.5791 -0.0650
   55MOL   H28116589   6.254   2.403   7.886  0.7580  0.6757 -0.4562
   55MOL   H28216590   6.038   2.505   7.782  0.6143 -0.3088  2.1500
   55MOL   H28316591   6.185   2.602   7.751  0.0313 -0.2084  0.1952
   55MOL   H28416592   6.114   2.510   7.620 -0.0116  0.5678  0.1794
   55MOL   H28516593   6.449   2.537   7.481 -0.4292  2.8838 -1.1623
   55MOL   H28616594   6.521   2.666   7.542  2.1071  0.0536  1.4819
   55MOL   C28716595   6.659   2.573   7.409 -0.0466 -0.5829  0.1764
   55MOL   O28816596   6.686   2.454   7.333 -0.2926  0.2233 -0.0754
   55MOL   C28916597   6.762   2.355   7.383  0.0519 -0.2928  0.4204
   55MOL   O29016598   6.821   2.354   7.490  0.2140  0.5626  0.1282
   55MOL   C29116599   6.764   2.235   7.285  0.2153  0.0368  0.1913
   55MOL   C29216600   6.884   2.134   7.309 -0.4397  0.0270 -0.1332
   55MOL   C29316601   6.640   2.696   7.319 -0.0647 -1.1761  0.4836
   55MOL   H29416602   6.750   2.582   7.469  0.2862 -0.3114 -0.3719
   55MOL   H29516603   6.669   2.183   7.296 -0.5628  1.6878  1.5975
   55MOL   H29616604   6.782   2.268   7.183 -1.9670 -3.0605 -1.2759
   55MOL   H29716605   6.929   2.129   7.408  0.8202 -1.6166 -0.7687
   55MOL   H29816606   6.856   2.028   7.306  0.6563 -0.3062  0.8823
   55MOL   H29916607   6.958   2.142   7.229  1.7209  0.2227  1.8198
   55MOL   H30016608   6.740   2.724   7.284  0.4036 -1.5417  1.5373
   55MOL   H30116609   6.571   2.682   7.236  1.3423  0.2074 -0.9640
   55MOL   H30216610   6.606   2.777   7.384  0.0056 -0.1605 -0.7160
   56MOL     C116611   4.839   0.927   2.998  0.3939  0.3343 -0.7554
   56MOL     O216612   4.877   0.981   3.121 -0.0506 -0.3597 -0.2895
   56MOL     C316613   5.008   0.993   3.144 -0.5015 -0.4544  0.2672
   56MOL     O416614   5.092   0.968   3.062  0.0088 -0.3393 -0.4191
   56MOL     C516615   5.039   1.064   3.278  0.4749 -0.0922  0.2036
   56MOL     C616616   5.176   1.041   3.341  0.4563 -0.7164  0.4993
   56MOL     C716617   4.773   0.781   3.013  0.0999  0.0278 -0.5355
   56MOL     H816618   4.923   0.922   2.929  1.0608 -0.3765  0.1012
   56MOL     H916619   5.026   1.172   3.265  0.9178 -0.1728 -0.9160
   56MOL    H1016620   4.967   1.032   3.354  2.1159  0.2657  1.9545
   56MOL    H1116621   5.193   1.095   3.435  0.7066 -1.0308  0.6341
   56MOL    H1216622   5.189   0.936   3.365  0.6605 -0.4654  1.5246
   56MOL    H1316623   5.250   1.086   3.275 -1.6154  4.0270  1.1346
   56MOL    H1416624   4.790   0.728   2.919 -2.1735  0.7466 -1.3883
   56MOL    H1516625   4.822   0.704   3.071 -1.5795  0.3721  1.4129
   56MOL    H1616626   4.763   0.992   2.954 -2.8719 -1.7688  1.5414
   56MOL    C1716627   4.614   0.782   3.029  0.0594  0.0009 -0.0545
   56MOL    O1816628   4.554   0.655   3.042  0.4002 -0.1263 -0.0130
   56MOL    C1916629   4.522   0.594   2.927 -0.1019  0.1277  0.2892
   56MOL    O2016630   4.545   0.634   2.816  0.3280 -0.4873 -0.2986
   56MOL    C2116631   4.452   0.454   2.953 -0.2465 -0.1499 -0.4507
   56MOL    C2216632   4.558   0.357   3.014  0.5296  0.1978 -0.3582
   56MOL    C2316633   4.568   0.866   3.151 -0.3497 -0.8246  0.7236
   56MOL    H2416634   4.588   0.829   2.934  0.9054  1.8906  0.6163
   56MOL    H2516635   4.366   0.469   3.018 -0.7410 -3.7761 -0.1211
   56MOL    H2616636   4.423   0.411   2.856  2.0471 -0.5979 -0.9721
   56MOL    H2716637   4.549   0.253   2.984  1.0617 -0.0512  0.3137
   56MOL    H2816638   4.659   0.377   2.977  1.3708 -3.0307  0.0376
   56MOL    H2916639   4.561   0.372   3.122 -1.3316 -0.8672 -0.1417
   56MOL    H3016640   4.619   0.827   3.239  1.9855 -3.1504 -1.5318
   56MOL    H3116641   4.611   0.966   3.146 -0.3633 -0.8805 -0.9614
   56MOL    C3216642   4.413   0.872   3.155 -0.0078  0.2376 -0.2625
   56MOL    O3316643   4.375   0.786   3.264  0.6582 -0.3392 -0.5442
   56MOL    C3416644   4.286   0.685   3.249  0.4557  0.6463 -0.2903
   56MOL    O3516645   4.205   0.679   3.158  0.2377  0.2053  0.4084
   56MOL    C3616646   4.270   0.597   3.375 -0.3550 -0.5079  0.4293
   56MOL    C3716647   4.128   0.550   3.392  0.1773  0.1387 -0.6980
   56MOL    C3816648   4.364   1.015   3.185 -0.2191 -0.5598 -0.2824
   56MOL    H3916649   4.375   0.836   3.060  2.7025  0.1095 -1.3706
   56MOL    H4016650   4.335   0.509   3.372 -0.7221 -0.7469 -1.4550
   56MOL    H4116651   4.300   0.640   3.471  0.4566 -0.2119  0.0508
   56MOL    H4216652   4.106   0.470   3.321 -2.4994 -0.4933  0.7710
   56MOL    H4316653   4.113   0.525   3.497 -2.3512  0.5904 -0.9293
   56MOL    H4416654   4.058   0.632   3.378 -1.7743 -1.4539 -0.5542
   56MOL    H4516655   4.403   1.058   3.277 -3.9730  1.2200  0.5725
   56MOL    H4616656   4.401   1.078   3.103  0.6220 -2.6997 -1.5771
   56MOL    C4716657   4.207   1.044   3.179  0.1604  0.6763  0.1053
   56MOL    O4816658   4.175   1.119   3.296  0.7310  0.5580 -0.0273
   56MOL    C4916659   4.065   1.102   3.373  0.4627 -0.1869 -0.5146
   56MOL    O5016660   3.978   1.021   3.359 -0.4492  0.4884  0.0689
   56MOL    C5116661   4.054   1.222   3.473 -0.0127 -0.3176  0.1546
   56MOL    C5216662   4.023   1.364   3.421  0.8890  0.0012  0.7108
   56MOL    C5316663   4.158   1.120   3.048  0.2252  0.1144 -0.5752
   56MOL    H5416664   4.169   0.943   3.195  0.0208  0.3577 -1.9942
   56MOL    H5516665   3.975   1.192   3.542 -0.9130 -3.1708 -1.9907
   56MOL    H5616666   4.151   1.222   3.522 -0.6342  2.8142  1.4888
   56MOL    H5716667   4.003   1.427   3.508  1.9403 -2.2629  2.6424
   56MOL    H5816668   4.104   1.397   3.356  0.0488  0.8564  0.0821
   56MOL    H5916669   3.933   1.360   3.360  1.9590 -0.1536 -0.8752
   56MOL    H6016670   4.058   1.154   3.075 -0.5431 -1.0162 -1.9111
   56MOL    H6116671   4.219   1.209   3.037  1.2158 -0.2336  1.8164
   56MOL    C6216672   4.158   1.029   2.924 -0.0055  0.7582 -0.4805
   56MOL    O6316673   4.289   0.994   2.876 -0.1398  0.3499  0.1924
   56MOL    C6416674   4.343   1.058   2.767  0.0056 -1.0936 -0.3630
   56MOL    O6516675   4.276   1.098   2.672  0.6076 -0.7435 -0.4603
   56MOL    C6616676   4.497   1.066   2.759  0.8598 -0.2373  0.3490
   56MOL    C6716677   4.548   1.181   2.858 -0.3546 -0.1462  0.6763
   56MOL    C6816678   4.063   0.907   2.919 -0.1509  0.8653  0.4372
   56MOL    H6916679   4.119   1.096   2.848 -0.6704 -3.4319 -3.9955
   56MOL    H7016680   4.545   0.977   2.800  0.4094 -0.6072  0.0919
   56MOL    H7116681   4.528   1.078   2.655  0.9135 -2.7391  0.0374
   56MOL    H7216682   4.491   1.274   2.859  2.6371  1.7692  0.6553
   56MOL    H7316683   4.553   1.149   2.962  0.8677 -1.1547  0.3200
   56MOL    H7416684   4.650   1.212   2.835 -0.8951  1.7389  0.7630
   56MOL    H7516685   4.079   0.832   2.996  0.3615 -0.4020 -0.8695
   56MOL    H7616686   3.960   0.933   2.942  0.7561  2.9589  2.3463
   56MOL    C7716687   4.049   0.834   2.785  0.0031 -0.1106  0.0177
   56MOL    O7816688   3.946   0.731   2.798 -0.4445  0.1760  0.0309
   56MOL    C7916689   3.988   0.611   2.836  0.1734  0.1691  0.5606
   56MOL    O8016690   4.102   0.564   2.839  0.7072  0.0907  0.2622
   56MOL    C8116691   3.876   0.515   2.876 -1.5814 -0.0254  0.2640
   56MOL    C8216692   3.822   0.558   3.008 -0.1459 -0.7404 -0.4028
   56MOL    C8316693   3.987   0.922   2.667 -1.1736 -0.6126  0.5858
   56MOL    H8416694   4.144   0.795   2.750 -0.3856 -0.2039 -0.9464
   56MOL    H8516695   3.802   0.536   2.799  0.8486  1.4763 -1.7246
   56MOL    H8616696   3.910   0.411   2.873  1.9287  1.0331  1.0624
   56MOL    H8716697   3.738   0.489   3.018 -1.2394  0.2369 -2.6866
   56MOL    H8816698   3.892   0.566   3.091 -0.4241 -1.0917 -0.1274
   56MOL    H8916699   3.773   0.656   3.006 -1.5720 -1.2772  3.2099
   56MOL    H9016700   3.895   0.968   2.703 -0.3641  1.6788 -0.1793
   56MOL    H9116701   4.056   1.006   2.657 -3.3415  1.0241 -1.2387
   56MOL    C9216702   3.974   0.866   2.524 -0.0626  0.3272 -0.0054
   56MOL    O9316703   3.951   0.967   2.424  0.5747 -0.3972 -0.3871
   56MOL    C9416704   3.858   0.943   2.328 -0.3168  0.1922 -0.2306
   56MOL    O9516705   3.816   0.838   2.281 -0.5991  0.2658  0.3533
   56MOL    C9616706   3.796   1.078   2.287 -0.0818 -0.1050  0.1573
   56MOL    C9716707   3.645   1.072   2.286  0.7439  0.3256 -0.4392
   56MOL    C9816708   4.109   0.809   2.482 -0.1626  0.5541  1.1213
   56MOL    H9916709   3.895   0.792   2.528 -0.6499  0.9481  0.0564
   56MOL   H10016710   3.833   1.167   2.338  0.3707  0.1232 -0.5584
   56MOL   H10116711   3.812   1.098   2.181 -1.6130 -1.8416 -0.4191
   56MOL   H10216712   3.603   1.166   2.251 -0.0976 -0.6900 -2.2327
   56MOL   H10316713   3.596   0.980   2.253  1.6572 -0.3193 -0.0202
   56MOL   H10416714   3.602   1.072   2.387 -0.7348  0.4402 -1.0477
   56MOL   H10516715   4.150   0.855   2.392  1.7766 -2.8573  0.1548
   56MOL   H10616716   4.177   0.847   2.558  1.6618 -1.9009  0.7798
   56MOL   C10716717   4.108   0.654   2.467 -0.7880 -0.0982 -0.1107
   56MOL   O10816718   4.049   0.625   2.339 -0.0803 -0.1933 -0.4868
   56MOL   C10916719   3.948   0.527   2.347 -0.2339  0.8513  0.3856
   56MOL   O11016720   3.893   0.484   2.449 -0.2144  0.4283  0.1292
   56MOL   C11116721   3.904   0.471   2.211 -0.6040  0.1195  0.5028
   56MOL   C11216722   3.982   0.342   2.181  0.5172 -0.1481  0.0341
   56MOL   C11316723   4.251   0.601   2.443 -0.1907  0.1273 -0.7491
   56MOL   H11416724   4.063   0.603   2.552 -0.0668  1.0435  0.9708
   56MOL   H11516725   3.802   0.434   2.222 -0.4357 -0.8637 -1.0548
   56MOL   H11616726   3.911   0.547   2.134  2.2454 -0.7024 -0.1031
   56MOL   H11716727   3.996   0.276   2.267 -1.3539 -1.1277 -0.4058
   56MOL   H11816728   3.909   0.296   2.115 -0.3113  0.4217  0.5393
   56MOL   H11916729   4.078   0.363   2.134  0.2263  2.5474  0.5746
   56MOL   H12016730   4.298   0.642   2.354  2.0700  0.6498  0.6332
   56MOL   H12116731   4.306   0.631   2.532 -0.3444 -1.3568 -0.1352
   56MOL   C12216732   4.251   0.441   2.439 -0.6874 -0.1383 -0.3167
   56MOL   O12316733   4.391   0.388   2.428 -0.0541 -0.9441 -0.0811
   56MOL   C12416734   4.439   0.340   2.306 -0.0569 -0.2370 -1.1975
   56MOL   O12516735   4.393   0.360   2.192  0.0956 -0.1530 -0.0889
   56MOL   C12616736   4.575   0.261   2.324 -0.2060  0.3080 -0.2685
   56MOL   C12716737   4.597   0.157   2.207 -0.8222  0.1830  0.3579
   56MOL   C12816738   4.203   0.388   2.579 -0.0272 -0.0024  0.3234
   56MOL   H12916739   4.181   0.398   2.367 -1.5988  2.0534 -0.8006
   56MOL   H13016740   4.654   0.334   2.339  1.3654 -0.9761 -2.1105
   56MOL   H13116741   4.580   0.211   2.421  0.0110  2.3732  0.8006
   56MOL   H13216742   4.696   0.112   2.202 -1.3775 -1.2037  1.4931
   56MOL   H13316743   4.522   0.080   2.194 -1.2504  0.6309  0.1352
   56MOL   H13416744   4.585   0.217   2.116 -3.1520 -0.7285  0.0299
   56MOL   H13516745   4.247   0.451   2.657 -2.1535  0.0591  1.5290
   56MOL   H13616746   4.097   0.407   2.595  0.1979 -0.7770  2.9927
   56MOL   C13716747   4.226   0.238   2.611 -0.3537 -0.2322  0.1973
   56MOL   O13816748   4.159   0.209   2.729 -0.6486 -0.5511 -0.3486
   56MOL   C13916749   4.213   0.165   2.846  0.1804 -0.4708 -0.2089
   56MOL   O14016750   4.332   0.133   2.862  0.2236 -0.4464 -0.2156
   56MOL   C14116751   4.117   0.177   2.961 -0.0674  0.2976 -0.5316
   56MOL   C14216752   4.181   0.206   3.098  0.4662  0.3985  0.3699
   56MOL   C14316753   4.195   0.143   2.502 -0.5440  0.1115 -0.3693
   56MOL   H14416754   4.335   0.236   2.620 -0.2765 -1.5122 -0.8065
   56MOL   H14516755   4.053   0.262   2.934  1.4563  1.3551 -0.8543
   56MOL   H14616756   4.057   0.087   2.970  0.9056 -0.2499  0.5804
   56MOL   H14716757   4.269   0.270   3.095  1.9764 -1.6050  0.5059
   56MOL   H14816758   4.106   0.247   3.165 -0.1584  0.6887 -0.4939
   56MOL   H14916759   4.215   0.111   3.140  0.2835 -0.2588 -0.9200
   56MOL   H15016760   4.086   0.147   2.498 -0.5603  1.3519  1.2427
   56MOL   H15116761   4.231   0.178   2.405  0.0515 -0.5536 -0.3938
   56MOL   C15216762   4.247   7.938   2.529 -0.4529  0.8278 -0.5567
   56MOL   O15316763   4.217   7.886   2.401  0.3698 -0.4489 -0.2492
   56MOL   C15416764   4.104   7.811   2.404 -0.6162 -0.0876 -0.7346
   56MOL   O15516765   4.029   7.775   2.492  0.7333 -0.3844 -0.6790
   56MOL   C15616766   4.072   7.775   2.264  0.9306 -0.1987 -0.4782
   56MOL   C15716767   4.165   7.669   2.198  0.2342  0.1061  0.0069
   56MOL   C15816768   4.397   7.928   2.547 -0.1301  0.4391 -0.2215
   56MOL   H15916769   4.198   7.887   2.613  2.0192  1.5852  1.4000
   56MOL   H16016770   3.967   7.744   2.260  0.2075  2.2070 -1.0768
   56MOL   H16116771   4.065   7.867   2.206  3.9577  0.6585  0.4205
   56MOL   H16216772   4.242   7.734   2.157  0.6476 -0.3717  0.0192
   56MOL   H16316773   4.209   7.594   2.263 -1.5624 -0.3989  0.6876
   56MOL   H16416774   4.131   7.615   2.110  1.8038  1.7369 -1.6397
   56MOL   H16516775   4.442   0.039   2.465  1.0539 -0.8926 -0.5109
   56MOL   H16616776   4.448   0.033   2.630  0.6770  0.7571 -0.8952
   56MOL   C16716777   4.458   7.785   2.549  0.0423 -0.9997 -0.0306
   56MOL   O16816778   4.585   7.794   2.483 -0.7339  0.3233 -0.0857
   56MOL   C16916779   4.600   7.745   2.354 -0.0163  0.5617  0.7597
   56MOL   O17016780   4.513   7.703   2.280 -0.5046  0.0166 -0.5351
   56MOL   C17116781   4.751   7.749   2.309  0.4789 -0.4277  0.0767
   56MOL   C17216782   4.860   7.799   2.405  0.4809  0.1553  1.0447
   56MOL   C17316783   4.496   7.726   2.684 -0.2571 -0.5340 -0.0518
   56MOL   H17416784   4.392   7.716   2.496  3.2021 -2.3366 -2.4019
   56MOL   H17516785   4.773   7.644   2.288 -0.4587 -0.0588 -3.0257
   56MOL   H17616786   4.747   7.801   2.213 -1.8385  2.4722  1.6648
   56MOL   H17716787   4.847   7.759   2.505 -2.0647  0.9873  1.0808
   56MOL   H17816788   4.962   7.772   2.377  0.0926 -1.1483  0.8804
   56MOL   H17916789   4.866   7.907   2.422  0.1992 -0.1196  2.9834
   56MOL   H18016790   4.522   7.622   2.666 -0.7036 -0.6422 -0.0747
   56MOL   H18116791   4.592   7.765   2.720  0.9753 -3.0205 -0.5377
   56MOL   C18216792   4.388   7.724   2.803 -0.3150  0.1805  0.1189
   56MOL   O18316793   4.278   7.642   2.766 -0.2323  0.4718  0.1526
   56MOL   C18416794   4.144   7.673   2.808 -0.1601  0.5402  0.3195
   56MOL   O18516795   4.117   7.778   2.865  0.1362 -0.3398 -0.0814
   56MOL   C18616796   4.050   7.565   2.763  0.5938  0.0792 -0.3864
   56MOL   C18716797   3.914   7.567   2.830 -0.4188 -0.0184  0.0512
   56MOL   C18816798   4.452   7.693   2.940  0.4237  0.2949 -0.9207
   56MOL   H18916799   4.351   7.825   2.820  2.2926  1.2396 -0.3152
   56MOL   H19016800   4.040   7.576   2.655 -0.4672  2.8470 -0.0361
   56MOL   H19116801   4.092   7.469   2.792  2.7901  1.6098  1.7223
   56MOL   H19216802   3.912   7.633   2.917 -0.9465 -1.3620  1.0631
   56MOL   H19316803   3.840   7.604   2.760 -1.7251  0.9260  1.8839
   56MOL   H19416804   3.885   7.471   2.874 -0.7300 -0.6516 -1.5258
   56MOL   H19516805   4.464   7.587   2.960  0.9188  0.4703 -0.2547
   56MOL   H19616806   4.557   7.724   2.936  0.7571 -0.6794 -0.0839
   56MOL   C19716807   4.376   7.750   3.061 -0.7122  0.7707 -0.5566
   56MOL   O19816808   4.304   7.641   3.122  0.2788  0.1434 -0.4631
   56MOL   C19916809   4.195   7.667   3.193  0.6693  0.9457  0.4953
   56MOL   O20016810   4.146   7.777   3.207 -0.5310 -0.3670 -0.5035
   56MOL   C20116811   4.128   7.539   3.240 -0.1588  0.0922 -0.1759
   56MOL   C20216812   4.126   7.509   3.392  0.3199 -0.3265 -1.4334
   56MOL   C20316813   4.466   7.823   3.165 -0.1825  0.4962  0.5963
   56MOL   H20416814   4.303   7.823   3.027 -1.0970 -0.2348 -1.9499
   56MOL   H20516815   4.024   7.544   3.206 -0.2803  2.0665  0.4220
   56MOL   H20616816   4.180   7.463   3.182 -0.1515 -0.1435  0.1400
   56MOL   H20716817   4.212   7.557   3.439 -0.7594 -0.7833  1.0404
   56MOL   H20816818   4.039   7.557   3.435 -0.0816 -0.9762 -1.5145
   56MOL   H20916819   4.131   7.403   3.419 -1.7702 -0.3481 -1.0993
   56MOL   H21016820   4.523   7.896   3.108  1.1717  0.2611  1.6219
   56MOL   H21116821   4.411   7.869   3.248 -1.5147 -1.3396  0.7454
   56MOL   C21216822   4.566   7.725   3.231 -0.7081  1.0627  0.1594
   56MOL   O21316823   4.693   7.781   3.202  0.3104  0.6321 -0.7406
   56MOL   C21416824   4.809   7.717   3.202 -0.2700 -0.3352 -0.3334
   56MOL   O21516825   4.827   7.600   3.232 -0.1064  0.0451 -0.0120
   56MOL   C21616826   4.925   7.805   3.166 -0.3906 -0.0622  0.7570
   56MOL   C21716827   4.942   7.919   3.271 -0.1545 -0.2540  0.4897
   56MOL   C21816828   4.542   7.722   3.388 -0.1179 -0.1147  0.1788
   56MOL   H21916829   4.553   7.626   3.186  0.7962 -0.7694  3.5613
   56MOL   H22016830   5.017   7.750   3.150 -2.0203 -2.2182 -1.4253
   56MOL   H22116831   4.896   7.852   3.072 -1.5577  0.3110  1.2931
   56MOL   H22216832   4.859   0.044   3.261 -0.6514 -1.0755 -1.3332
   56MOL   H22316833   4.942   7.874   3.371  1.4391 -0.4071  0.4261
   56MOL   H22416834   5.041   0.016   3.255 -0.8640  1.8076  1.2756
   56MOL   H22516835   4.595   7.809   3.427 -0.1265  1.3330 -2.9075
   56MOL   H22616836   4.435   7.734   3.401  0.0111  2.6114 -1.0364
   56MOL   C22716837   4.592   7.591   3.465 -0.4726 -0.4300  0.2556
   56MOL   O22816838   4.588   7.632   3.604  0.1866 -0.6090  0.4412
   56MOL   C22916839   4.700   7.650   3.682  0.8043  0.2033 -0.2753
   56MOL   O23016840   4.813   7.624   3.648 -0.2616 -0.0558  0.1417
   56MOL   C23116841   4.664   7.678   3.826 -0.0987  0.4296 -0.1691
   56MOL   C23216842   4.593   7.555   3.901 -0.5525 -0.6719  0.0911
   56MOL   C23316843   4.520   7.463   3.437  0.6690  0.4471  0.4306
   56MOL   H23416844   4.693   7.567   3.433 -1.0283 -3.5148  0.6671
   56MOL   H23516845   4.756   7.688   3.884  0.4136 -0.9524 -0.7293
   56MOL   H23616846   4.607   7.770   3.836 -0.3015  0.2187  0.6456
   56MOL   H23716847   4.662   7.479   3.939  1.3750  1.9383  1.9733
   56MOL   H23816848   4.537   7.576   3.993  1.4804 -2.0641  1.7048
   56MOL   H23916849   4.520   7.510   3.834 -0.0378  0.2082 -1.0643
   56MOL   H24016850   4.419   7.458   3.477  1.3183 -3.0211  1.8683
   56MOL   H24116851   4.506   7.468   3.329  1.7871 -3.0126  0.0642
   56MOL   C24216852   4.610   7.339   3.484  0.0999 -0.3425  0.1640
   56MOL   O24316853   4.522   7.234   3.523 -0.0412 -0.6629  0.2671
   56MOL   C24416854   4.481   7.222   3.656 -0.0175  0.3115 -0.5985
   56MOL   O24516855   4.511   7.299   3.747  0.1813 -0.1445  0.2201
   56MOL   C24616856   4.399   7.097   3.675 -0.2543 -1.1130  0.0608
   56MOL   C24716857   4.473   6.961   3.681 -0.0570 -0.3689 -0.2084
   56MOL   C24816858   4.719   7.289   3.382 -0.2551  0.1267  0.0280
   56MOL   H24916859   4.660   7.359   3.578  0.2585  0.0338  0.0033
   56MOL   H25016860   4.332   7.099   3.761 -0.0132 -1.5582  0.2615
   56MOL   H25116861   4.335   7.094   3.587 -0.3661  2.0842 -0.0311
   56MOL   H25216862   4.498   6.942   3.577  1.3554  0.5563 -0.0561
   56MOL   H25316863   4.570   6.968   3.731  0.6017 -0.7964 -1.4035
   56MOL   H25416864   4.415   6.885   3.733 -0.2492 -0.3805 -0.4386
   56MOL   H25516865   4.791   7.365   3.351 -1.9487  1.4053 -0.8341
   56MOL   H25616866   4.768   7.213   3.442 -1.0074  0.1905  0.7317
   56MOL   C25716867   4.666   7.226   3.251  0.0712  0.2870 -1.4163
   56MOL   O25816868   4.767   7.240   3.158  0.1048  0.5145  0.4462
   56MOL   C25916869   4.742   7.325   3.048  0.4101 -0.1935  0.1296
   56MOL   O26016870   4.629   7.368   3.016  0.5870  0.0639  0.1533
   56MOL   C26116871   4.863   7.358   2.963 -0.1361  0.5121  0.9464
   56MOL   C26216872   4.862   7.490   2.886 -0.1297  0.0030  0.0961
   56MOL   C26316873   4.640   7.077   3.265  0.4351  0.0443 -1.0933
   56MOL   H26416874   4.575   7.278   3.221 -1.1073 -0.6696  0.4329
   56MOL   H26516875   4.957   7.356   3.019  1.7108 -0.4259 -2.0640
   56MOL   H26616876   4.883   7.275   2.896  0.8120  0.3871  1.3749
   56MOL   H26716877   4.917   7.562   2.947  0.9325 -1.1040  0.4768
   56MOL   H26816878   4.911   7.479   2.789  0.3906  2.8540 -0.0035
   56MOL   H26916879   4.762   7.532   2.873 -0.8450 -0.9868  2.1781
   56MOL   H27016880   4.695   7.021   3.189 -0.7563 -4.1541  0.9425
   56MOL   H27116881   4.671   7.029   3.358  0.5692 -0.4983 -1.4159
   56MOL   C27216882   4.499   7.044   3.238  0.1864 -0.0249  0.0346
   56MOL   O27316883   4.455   7.085   3.108 -0.5032 -0.3858 -0.3714
   56MOL   C27416884   4.359   7.179   3.081 -0.1096  0.5178  0.1862
   56MOL   O27516885   4.300   7.245   3.168  0.9550  0.9799 -0.0229
   56MOL   C27616886   4.333   7.196   2.931  0.2790 -0.1902 -0.2542
   56MOL   C27716887   4.217   7.117   2.870 -0.1930  0.0146  0.2581
   56MOL   C27816888   4.486   6.891   3.238  0.0538 -0.5612 -0.3667
   56MOL   H27916889   4.442   7.085   3.321 -0.8260  0.2215 -0.7826
   56MOL   H28016890   4.320   7.299   2.898 -0.9432  0.2942  1.7129
   56MOL   H28116891   4.427   7.167   2.884  1.3567 -0.5711  2.0862
   56MOL   H28216892   4.206   7.014   2.906  0.5104  0.0648  0.6107
   56MOL   H28316893   4.116   7.156   2.883  0.1623  1.6337 -1.6256
   56MOL   H28416894   4.236   7.124   2.763  0.1107  1.8491  0.4303
   56MOL   H28516895   4.551   6.865   3.155  0.4684 -0.4380 -0.0809
   56MOL   H28616896   4.535   6.853   3.328  1.9848  0.4821 -0.9436
   56MOL   C28716897   4.343   6.835   3.218  0.1433 -0.1158 -0.3148
   56MOL   O28816898   4.355   6.703   3.157  0.7814  0.0124 -0.2693
   56MOL   C28916899   4.355   6.695   3.025  0.0792  0.2577  0.0188
   56MOL   O29016900   4.321   6.785   2.946 -0.3197  0.2124 -0.1617
   56MOL   C29116901   4.392   6.556   2.981 -0.6067 -0.1410  0.3038
   56MOL   C29216902   4.276   6.444   2.991 -0.3991  0.8725 -0.2611
   56MOL   C29316903   4.268   6.818   3.348 -0.4386 -0.1756  0.2492
   56MOL   H29416904   4.279   6.896   3.154  1.2470 -1.2010 -2.5067
   56MOL   H29516905   4.413   6.569   2.875 -0.3282  1.3824  0.5260
   56MOL   H29616906   4.481   6.525   3.037 -0.0502 -1.2110 -1.1490
   56MOL   H29716907   4.223   6.445   3.086  2.5548  0.7155  1.4534
   56MOL   H29816908   4.203   6.445   2.910  0.4005 -3.5363 -1.1655
   56MOL   H29916909   4.321   6.346   2.975  1.2068  1.1402  2.4103
   56MOL   H30016910   4.237   6.910   3.399 -2.2072 -0.7350  0.2276
   56MOL   H30116911   4.173   6.770   3.325  0.9750 -3.3282  0.8270
   56MOL   H30216912   4.322   6.751   3.415 -0.4341 -1.2974 -0.8620
   57MOL     C116913   5.794   1.816   7.363 -0.4831  0.6492  0.2997
   57MOL     O216914   5.784   1.676   7.402 -0.4417 -0.4535  0.3051
   57MOL     C316915   5.784   1.587   7.301  0.2077 -0.0726 -0.4296
   57MOL     O416916   5.797   1.607   7.184 -0.2501  0.6903  0.1542
   57MOL     C516917   5.772   1.453   7.368  0.4100 -0.1804  0.1570
   57MOL     C616918   5.728   1.338   7.276  0.3936  0.2578  0.8260
   57MOL     C716919   5.746   1.912   7.471 -0.0113 -0.1953 -0.7673
   57MOL     H816920   5.747   1.828   7.265 -1.0106 -0.1482  0.4472
   57MOL     H916921   5.864   1.446   7.426  0.7145  0.8224 -0.1804
   57MOL    H1016922   5.698   1.452   7.448 -3.1877  0.8622 -3.0136
   57MOL    H1116923   5.621   1.339   7.258  0.4226 -2.3891  0.2691
   57MOL    H1216924   5.785   1.328   7.183  0.0444 -0.0105  0.6423
   57MOL    H1316925   5.729   1.244   7.332  1.2644 -0.1825  0.0817
   57MOL    H1416926   5.651   1.889   7.520  2.1835  0.4740  4.1315
   57MOL    H1516927   5.810   1.909   7.560 -2.8792  0.8254  1.4221
   57MOL    H1616928   5.898   1.834   7.336  0.9307 -1.2696  4.2179
   57MOL    C1716929   5.740   2.060   7.433  0.3671 -0.4650 -0.3531
   57MOL    O1816930   5.874   2.105   7.410 -0.1284 -0.3107  0.5353
   57MOL    C1916931   5.943   2.150   7.514  0.2897  0.2898 -0.2353
   57MOL    O2016932   5.900   2.161   7.630 -0.0098 -0.3784  0.7866
   57MOL    C2116933   6.091   2.184   7.481  0.0052 -0.3409  0.6571
   57MOL    C2216934   6.166   2.052   7.459 -0.0129 -0.3681  0.9730
   57MOL    C2316935   5.650   2.082   7.308 -0.1461 -0.4045 -0.4904
   57MOL    H2416936   5.683   2.113   7.509 -1.8374 -3.4422  0.1636
   57MOL    H2516937   6.092   2.246   7.391 -1.8255 -2.4076 -0.8243
   57MOL    H2616938   6.137   2.232   7.568  1.4485 -1.3107  0.4434
   57MOL    H2716939   6.160   1.985   7.545  1.7467  2.8119  3.6977
   57MOL    H2816940   6.131   2.003   7.369 -2.4299  0.9843  1.1295
   57MOL    H2916941   6.272   2.072   7.449 -0.4888  0.8041 -2.2957
   57MOL    H3016942   5.705   2.044   7.223 -0.1020 -1.5742  0.0569
   57MOL    H3116943   5.557   2.025   7.311 -0.2768 -0.0963  2.2742
   57MOL    C3216944   5.615   2.227   7.267  0.7193  0.0998  0.0134
   57MOL    O3316945   5.737   2.294   7.229 -0.0381  0.0160 -0.1632
   57MOL    C3416946   5.755   2.414   7.270 -0.0313  0.3437 -0.5469
   57MOL    O3516947   5.678   2.485   7.333  0.0498  0.2325 -0.3990
   57MOL    C3616948   5.882   2.471   7.199  0.1782  0.3023 -0.5137
   57MOL    C3716949   5.924   2.407   7.066  0.4587 -0.1848  0.5536
   57MOL    C3816950   5.527   2.225   7.139 -0.1160 -0.1287 -0.6510
   57MOL    H3916951   5.560   2.276   7.347 -1.7230  0.7837 -2.0010
   57MOL    H4016952   5.869   2.579   7.190  1.0659  0.3740 -0.9782
   57MOL    H4116953   5.954   2.468   7.280  0.5015  0.5954 -0.7888
   57MOL    H4216954   5.959   2.305   7.084  3.0332 -0.0135 -2.8390
   57MOL    H4316955   5.844   2.419   6.993  1.1462 -0.6564 -0.2964
   57MOL    H4416956   6.005   2.473   7.034 -1.8228  2.6173  0.3763
   57MOL    H4516957   5.504   2.328   7.113 -1.1455  0.1713  1.3354
   57MOL    H4616958   5.587   2.193   7.054  0.1196 -0.8084 -0.2330
   57MOL    C4716959   5.389   2.154   7.154 -0.1373 -0.5502  0.2742
   57MOL    O4816960   5.313   2.228   7.253 -0.2279  0.2673  0.1812
   57MOL    C4916961   5.289   2.183   7.376 -0.3082  0.0012 -0.2870
   57MOL    O5016962   5.339   2.085   7.422 -0.2032  0.1200 -0.1451
   57MOL    C5116963   5.189   2.269   7.457 -0.7839 -0.2580  0.6555
   57MOL    C5216964   5.233   2.265   7.603  0.0306  0.3875 -0.0161
   57MOL    C5316965   5.319   2.143   7.014  0.6461 -0.3956  0.5376
   57MOL    H5416966   5.389   2.053   7.196  0.4531 -0.1597  1.2339
   57MOL    H5516967   5.170   2.367   7.413 -2.2756 -0.8146  0.0413
   57MOL    H5616968   5.091   2.221   7.456 -1.4213  1.0114 -1.4550
   57MOL    H5716969   5.328   2.318   7.597 -1.0208  2.0608 -3.7876
   57MOL    H5816970   5.160   2.317   7.665 -0.4102  2.1241 -1.9358
   57MOL    H5916971   5.240   2.164   7.642 -0.1787  0.9030  1.3730
   57MOL    H6016972   5.219   2.105   7.032  0.1341  0.6324 -0.1262
   57MOL    H6116973   5.305   2.247   6.984  0.8371 -0.1848  1.1725
   57MOL    C6216974   5.377   2.044   6.909 -0.3474 -0.0110 -0.6369
   57MOL    O6316975   5.395   1.903   6.955 -0.1585 -0.3818 -0.5567
   57MOL    C6416976   5.513   1.855   6.997  0.2715  0.1012 -0.5012
   57MOL    O6516977   5.620   1.916   6.995 -0.0192 -0.2636  0.0227
   57MOL    C6616978   5.499   1.702   7.034 -0.0238 -0.0646  0.5481
   57MOL    C6716979   5.423   1.685   7.167  0.4206  0.0303  0.4510
   57MOL    C6816980   5.297   2.044   6.777 -0.4982 -0.2470 -0.4871
   57MOL    H6916981   5.469   2.090   6.873 -0.0900  0.5873  0.7420
   57MOL    H7016982   5.445   1.654   6.953  1.5603 -1.2067  0.1541
   57MOL    H7116983   5.602   1.666   7.035  0.1654  0.4911  1.3495
   57MOL    H7216984   5.358   1.770   7.190 -0.7656 -0.6260 -0.4240
   57MOL    H7316985   5.363   1.595   7.175  1.5039 -0.7198  0.2347
   57MOL    H7416986   5.482   1.687   7.259 -2.5368  0.2761  2.4268
   57MOL    H7516987   5.199   1.999   6.795 -0.3386 -0.4868 -0.2144
   57MOL    H7616988   5.276   2.149   6.761  3.6326  1.0186  1.6333
   57MOL    C7716989   5.374   1.996   6.650 -0.6738  0.2496  1.0106
   57MOL    O7816990   5.324   1.870   6.620  0.3459  0.4080 -0.0799
   57MOL    C7916991   5.392   1.759   6.643  0.1227  0.3721  0.0308
   57MOL    O8016992   5.509   1.746   6.674 -0.2773  0.0069  0.2312
   57MOL    C8116993   5.292   1.648   6.639  0.3944  0.3019 -0.3962
   57MOL    C8216994   5.348   1.501   6.631 -0.2309  0.4618 -0.5469
   57MOL    C8316995   5.348   2.082   6.524 -0.0963 -0.8293 -0.2756
   57MOL    H8416996   5.482   1.991   6.659 -0.6889  0.2488  1.1912
   57MOL    H8516997   5.236   1.666   6.731  0.4863 -0.4846 -0.1812
   57MOL    H8616998   5.224   1.676   6.559  0.9238  0.1302 -0.9056
   57MOL    H8716999   5.416   1.462   6.707  1.2762  2.8823 -0.5849
   57MOL    H8817000   5.263   1.432   6.625 -1.2217  1.6112  0.0018
   57MOL    H8917001   5.411   1.501   6.542  1.1986 -1.6852  0.4249
   57MOL    H9017002   5.417   2.054   6.445 -0.5775  0.2409 -1.0809
   57MOL    H9117003   5.251   2.056   6.481  0.2530 -0.2021 -1.4599
   57MOL    C9217004   5.366   2.234   6.526  0.0974  0.2441 -0.2128
   57MOL    O9317005   5.497   2.271   6.564 -0.0617  0.4422 -0.2890
   57MOL    C9417006   5.522   2.323   6.688 -1.2679  0.6384 -0.3318
   57MOL    O9517007   5.444   2.334   6.782  0.0447  0.2744  0.2755
   57MOL    C9617008   5.663   2.356   6.712 -0.0923  0.0386  0.7285
   57MOL    C9717009   5.740   2.234   6.765  0.0981  0.2313  0.6796
   57MOL    C9817010   5.338   2.298   6.380  0.0341  0.0490 -0.4706
   57MOL    H9917011   5.292   2.287   6.586 -0.8045 -0.6275 -0.5428
   57MOL   H10017012   5.706   2.406   6.626 -1.6245  0.8383  0.4169
   57MOL   H10117013   5.665   2.439   6.782  1.4192 -0.2078  1.0057
   57MOL   H10217014   5.738   2.138   6.714  1.1972  0.2133  0.6531
   57MOL   H10317015   5.845   2.260   6.779  0.6012 -0.5790 -1.4969
   57MOL   H10417016   5.697   2.206   6.861 -0.1439  0.3364  0.6029
   57MOL   H10517017   5.333   2.403   6.409  0.1459  0.4564 -1.9184
   57MOL   H10617018   5.421   2.285   6.310  0.6532 -1.0233  0.4421
   57MOL   C10717019   5.200   2.274   6.315  0.1261 -0.1638 -0.1725
   57MOL   O10817020   5.095   2.356   6.371  0.3035 -0.5471  0.6015
   57MOL   C10917021   5.031   2.322   6.483  0.2186  0.0630 -0.3833
   57MOL   O11017022   5.055   2.229   6.559  0.6337 -0.2173  0.1050
   57MOL   C11117023   4.913   2.411   6.520  0.1975 -0.0859  0.2475
   57MOL   C11217024   4.821   2.381   6.640 -0.6654  0.4346  0.3615
   57MOL   C11317025   5.208   2.293   6.165 -0.7033 -0.5573 -0.0299
   57MOL   H11417026   5.169   2.171   6.336 -0.0021  0.0618  0.7811
   57MOL   H11517027   4.967   2.502   6.542  0.7735 -0.2274 -0.5705
   57MOL   H11617028   4.851   2.439   6.435 -1.1347  0.2192  1.2878
   57MOL   H11717029   4.769   2.465   6.686 -1.4129 -0.8430  1.9171
   57MOL   H11817030   4.733   2.320   6.620  1.4124 -2.2039 -1.1601
   57MOL   H11917031   4.875   2.330   6.720 -2.0448  2.0481  2.3743
   57MOL   H12017032   5.226   2.400   6.154 -0.4984 -0.0870  3.9995
   57MOL   H12117033   5.297   2.243   6.129  0.4181  2.3102 -1.3914
   57MOL   C12217034   5.089   2.245   6.079 -0.4079 -0.4804 -0.3938
   57MOL   O12317035   5.010   2.361   6.056 -0.9184  0.4775  0.1742
   57MOL   C12417036   4.896   2.379   6.130  0.9681  0.4110  0.2435
   57MOL   O12517037   4.852   2.300   6.213 -0.1303  0.2500  0.0726
   57MOL   C12617038   4.816   2.496   6.089 -0.5946 -0.2101 -0.7398
   57MOL   C12717039   4.743   2.483   5.957 -0.2312 -0.3366  0.4217
   57MOL   C12817040   5.145   2.193   5.941 -0.5665  1.0579 -0.5225
   57MOL   H12917041   5.036   2.170   6.138 -1.4407  1.8381  1.6908
   57MOL   H13017042   4.749   2.519   6.173 -0.4931 -1.3991 -0.3239
   57MOL   H13117043   4.886   2.579   6.093 -0.4995 -0.2879 -0.8127
   57MOL   H13217044   4.666   2.407   5.949 -0.9796  0.3592  0.9498
   57MOL   H13317045   4.690   2.577   5.943 -1.2732 -0.8480  0.8797
   57MOL   H13417046   4.804   2.465   5.869 -1.2953 -1.5045 -0.0872
   57MOL   H13517047   5.210   2.270   5.899  1.3965 -0.5583 -0.5471
   57MOL   H13617048   5.208   2.104   5.940 -0.8951  0.7650  2.0846
   57MOL   C13717049   5.038   2.140   5.842 -0.6682 -0.0868 -0.6306
   57MOL   O13817050   5.082   2.130   5.701 -0.2137 -0.2393 -0.2262
   57MOL   C13917051   5.116   2.239   5.642  0.4362  0.1592  0.2056
   57MOL   O14017052   5.105   2.355   5.687 -0.1665  0.4225  0.1053
   57MOL   C14117053   5.170   2.220   5.502  0.6763  0.5263  0.6830
   57MOL   C14217054   5.061   2.190   5.401  0.5532 -0.2518  0.4053
   57MOL   C14317055   4.978   2.001   5.886 -0.1852  0.3020  0.5470
   57MOL   H14417056   4.953   2.207   5.836  0.3783  1.4367  0.8747
   57MOL   H14517057   5.233   2.306   5.478  0.8297  0.6558  1.5218
   57MOL   H14617058   5.237   2.134   5.508  1.2522  0.9639  0.5480
   57MOL   H14717059   5.109   2.146   5.313 -0.7166 -3.9048  1.4221
   57MOL   H14817060   4.988   2.117   5.437 -0.9463  0.4094 -1.2065
   57MOL   H14917061   5.012   2.283   5.374  1.1745 -0.2417 -0.7106
   57MOL   H15017062   4.913   2.008   5.974 -0.7823  2.6270 -0.0361
   57MOL   H15117063   4.899   1.982   5.813  1.5053  0.0270 -1.2567
   57MOL   C15217064   5.077   1.878   5.895  0.0565  0.5219  0.3785
   57MOL   O15317065   5.005   1.757   5.925  0.2210  0.2322  0.2645
   57MOL   C15417066   4.892   1.708   5.863 -0.5565 -0.4284 -0.2900
   57MOL   O15517067   4.840   1.754   5.762  0.5116 -0.5329  0.0770
   57MOL   C15617068   4.859   1.572   5.924  1.4046 -0.3128  0.0145
   57MOL   C15717069   4.795   1.570   6.066 -0.0084 -0.1194  0.3221
   57MOL   C15817070   5.173   1.866   5.779  0.0613 -0.5171 -0.1169
   57MOL   H15917071   5.143   1.903   5.978  0.8698 -0.9119  0.1752
   57MOL   H16017072   4.784   1.541   5.852 -0.3519 -0.5690  1.9288
   57MOL   H16117073   4.939   1.498   5.925  1.2990 -0.5486 -3.2287
   57MOL   H16217074   4.875   1.548   6.136 -1.4281  1.8916  2.6761
   57MOL   H16317075   4.741   1.663   6.087 -2.6457 -1.4581 -0.2890
   57MOL   H16417076   4.724   1.488   6.071  1.2526 -1.2440 -0.1298
   57MOL   H16517077   5.105   1.875   5.694  0.6122  2.1300 -0.3365
   57MOL   H16617078   5.238   1.952   5.764 -0.1716 -0.2732  0.2852
   57MOL   C16717079   5.273   1.741   5.787  0.1865  0.6058 -0.3705
   57MOL   O16817080   5.242   1.667   5.672  0.2241  0.0649 -0.4001
   57MOL   C16917081   5.185   1.547   5.686  0.1054 -0.5978 -1.0435
   57MOL   O17017082   5.175   1.482   5.792  0.3157  0.1940  0.4159
   57MOL   C17117083   5.121   1.509   5.552  0.1753  0.4100 -0.0228
   57MOL   C17217084   5.206   1.554   5.430 -0.7932 -0.0973  0.1230
   57MOL   C17317085   5.429   1.766   5.779  0.2401  0.0494 -0.2751
   57MOL   H17417086   5.250   1.680   5.875 -1.4336  1.4063 -0.2243
   57MOL   H17517087   5.101   1.402   5.561  0.1855  0.3258 -0.9187
   57MOL   H17617088   5.019   1.546   5.547  0.1865  0.2972 -1.0805
   57MOL   H17717089   5.175   1.502   5.339  0.8239 -1.3817  0.2841
   57MOL   H17817090   5.190   1.661   5.416 -0.2010 -0.3802 -3.0036
   57MOL   H17917091   5.314   1.541   5.435 -0.7053  1.4159  2.9856
   57MOL   H18017092   5.482   1.671   5.771 -1.7847 -1.0224 -1.0675
   57MOL   H18117093   5.442   1.818   5.684  0.9002  1.7355  0.7147
   57MOL   C18217094   5.493   1.843   5.893 -0.2666  0.7164  0.6790
   57MOL   O18317095   5.480   1.772   6.014 -0.0110  0.0405  0.2968
   57MOL   C18417096   5.414   1.835   6.124 -0.1848  0.3155  0.3335
   57MOL   O18517097   5.359   1.946   6.110 -0.1104 -0.4175 -0.1214
   57MOL   C18617098   5.390   1.736   6.233 -0.3832 -0.5606 -0.3483
   57MOL   C18717099   5.342   1.598   6.181  0.2979  1.0792  0.2940
   57MOL   C18817100   5.642   1.868   5.865  0.0089 -0.3650  0.3512
   57MOL   H18917101   5.440   1.939   5.897  1.0021  1.4492  0.0855
   57MOL   H19017102   5.477   1.712   6.294 -0.8726 -0.3036  0.4516
   57MOL   H19117103   5.317   1.778   6.303  3.2157  0.6314  2.8389
   57MOL   H19217104   5.344   1.522   6.259 -1.0326 -0.9457 -1.6174
   57MOL   H19317105   5.246   1.610   6.132  0.9324  1.4479 -0.8858
   57MOL   H19417106   5.404   1.559   6.100 -1.7393  1.3732 -1.4411
   57MOL   H19517107   5.698   1.775   5.862  0.6998  0.0742 -1.0740
   57MOL   H19617108   5.649   1.913   5.766 -0.1784 -0.8051  0.1394
   57MOL   C19717109   5.709   1.971   5.962  0.5577 -0.4571 -0.1187
   57MOL   O19817110   5.838   1.985   5.903 -0.2382 -0.5244 -0.3624
   57MOL   C19917111   5.959   1.987   5.973  0.7073 -0.4161  0.3075
   57MOL   O20017112   5.972   1.971   6.093 -0.3320  0.2258 -0.0998
   57MOL   C20117113   6.074   2.007   5.876  0.0043 -0.1495 -0.1692
   57MOL   C20217114   6.085   2.157   5.835 -0.1466  0.2395 -0.3547
   57MOL   C20317115   5.648   2.119   5.968 -1.2131 -0.6893  0.2522
   57MOL   H20417116   5.719   1.930   6.062  0.9745  1.4145  0.6294
   57MOL   H20517117   6.163   1.976   5.931 -0.3259  1.8589  1.5447
   57MOL   H20617118   6.062   1.937   5.793 -1.3706 -0.1694  0.0491
   57MOL   H20717119   6.176   2.175   5.777  1.1707 -3.6046  0.3789
   57MOL   H20817120   5.999   2.194   5.779  0.3017  0.1179 -1.1337
   57MOL   H20917121   6.074   2.213   5.928 -1.4704 -1.0587  0.2839
   57MOL   H21017122   5.654   2.141   5.862 -0.9190 -1.6060  0.0741
   57MOL   H21117123   5.542   2.121   5.994 -0.9014  0.3644  1.4641
   57MOL   C21217124   5.724   2.214   6.065  0.2896  0.4860 -0.5740
   57MOL   O21317125   5.659   2.341   6.049  0.7842 -0.0488 -0.2420
   57MOL   C21417126   5.706   2.442   5.973 -0.3143 -0.0451  0.4197
   57MOL   O21517127   5.821   2.440   5.925 -0.6964 -0.3341  0.0054
   57MOL   C21617128   5.613   2.562   5.953  0.8665 -0.2830 -0.3136
   57MOL   C21717129   5.471   2.522   5.942  0.5578  0.0408 -0.1485
   57MOL   C21817130   5.725   2.169   6.217  0.0382 -0.3801 -0.2010
   57MOL   H21917131   5.828   2.218   6.032  1.3178  0.1951  2.4157
   57MOL   H22017132   5.635   2.636   6.029  1.0918 -1.6918  1.0221
   57MOL   H22117133   5.634   2.591   5.850  1.3689  0.5365  0.0208
   57MOL   H22217134   5.434   2.432   5.893  1.4646  0.0544 -0.8820
   57MOL   H22317135   5.441   2.507   6.046 -0.1415  1.1708 -0.1760
   57MOL   H22417136   5.416   2.612   5.916  1.0510  0.0293 -1.2780
   57MOL   H22517137   5.627   2.131   6.246 -0.1391 -0.1450 -0.4854
   57MOL   H22617138   5.775   2.075   6.238  0.1613 -0.6513 -1.6490
   57MOL   C22717139   5.783   2.281   6.311  0.3097  0.2296  0.8094
   57MOL   O22817140   5.678   2.378   6.338 -0.6304  0.5053  0.1182
   57MOL   C22917141   5.706   2.503   6.339  0.2929 -0.2203 -0.2602
   57MOL   O23017142   5.816   2.557   6.325  0.1650 -0.3947 -0.2538
   57MOL   C23117143   5.576   2.578   6.377 -0.3140 -0.2201  0.4726
   57MOL   C23217144   5.587   2.723   6.344  0.2277 -0.2823  0.0301
   57MOL   C23317145   5.838   2.230   6.442 -0.6152 -0.1981  0.3316
   57MOL   H23417146   5.865   2.328   6.254  0.9116 -0.6400  0.9482
   57MOL   H23517147   5.483   2.548   6.328 -0.3290  0.6606 -0.0489
   57MOL   H23617148   5.550   2.550   6.479  0.1928  0.7282  0.8644
   57MOL   H23717149   5.655   2.767   6.418  1.6289 -1.2210 -0.6870
   57MOL   H23817150   5.627   2.741   6.245  0.4256  1.9606  0.4930
   57MOL   H23917151   5.497   2.783   6.358  0.0689 -0.9099  1.9161
   57MOL   H24017152   5.852   2.307   6.518  1.5863 -0.4419  0.2164
   57MOL   H24117153   5.755   2.175   6.486 -0.8185  0.2647  0.5339
   57MOL   C24217154   5.971   2.151   6.434 -0.3520 -0.8979 -0.0080
   57MOL   O24317155   6.068   2.245   6.460 -0.0504  0.0939 -0.0091
   57MOL   C24417156   6.146   2.298   6.360 -0.1654 -0.4391 -0.1016
   57MOL   O24517157   6.136   2.271   6.240  0.1829  0.5943  0.1060
   57MOL   C24617158   6.249   2.401   6.412  0.1787  0.2056  0.0241
   57MOL   C24717159   6.357   2.325   6.499  0.3696 -0.0836  0.6444
   57MOL   C24817160   5.996   2.033   6.535  0.1109  0.3047  0.5289
   57MOL   H24917161   5.985   2.108   6.335 -1.7627  1.5160 -1.2932
   57MOL   H25017162   6.282   2.460   6.327 -0.6681  1.1395  0.3329
   57MOL   H25117163   6.188   2.479   6.458 -1.4853 -1.1588  0.2240
   57MOL   H25217164   6.404   2.240   6.449  0.8661  0.6614 -0.1554
   57MOL   H25317165   6.434   2.398   6.523  2.4928 -1.2552 -2.2408
   57MOL   H25417166   6.310   2.296   6.593 -1.2149 -2.0121 -0.6940
   57MOL   H25517167   6.097   1.991   6.536  0.7559  1.6000 -2.8715
   57MOL   H25617168   5.973   2.088   6.626 -0.3695  0.0350  0.5716
   57MOL   C25717169   5.898   1.914   6.514 -0.5546 -0.0317 -0.3801
   57MOL   O25817170   5.943   1.812   6.424  0.0364  0.2248  0.2745
   57MOL   C25917171   5.857   1.760   6.337  1.2462 -0.3957 -0.2863
   57MOL   O26017172   5.736   1.792   6.329 -0.1717 -0.9659  0.0429
   57MOL   C26117173   5.917   1.659   6.236 -0.1439 -0.1245 -0.0239
   57MOL   C26217174   5.872   1.517   6.281 -0.2129 -0.2737  0.5099
   57MOL   C26317175   5.852   1.847   6.644  0.0742 -0.1844  0.9717
   57MOL   H26417176   5.807   1.961   6.475 -0.9022 -1.0337 -0.7811
   57MOL   H26517177   5.867   1.676   6.141 -1.5400  0.6192  0.8250
   57MOL   H26617178   6.025   1.672   6.225  0.0853 -3.4443 -2.8848
   57MOL   H26717179   5.765   1.519   6.261 -0.1855  0.0356  0.3911
   57MOL   H26817180   5.919   1.438   6.223  0.1261 -0.0667  0.5003
   57MOL   H26917181   5.891   1.501   6.388  0.5294  2.6646  0.8499
   57MOL   H27017182   5.771   1.903   6.693  0.3840  0.0391  1.2275
   57MOL   H27117183   5.798   1.760   6.607 -2.0609  0.9000  1.3942
   57MOL   C27217184   5.955   1.793   6.737  0.1833 -0.5704  0.2677
   57MOL   O27317185   5.986   1.896   6.819 -0.0732 -0.2085  0.5395
   57MOL   C27417186   6.100   1.920   6.863  0.4526 -0.6806 -0.3023
   57MOL   O27517187   6.207   1.879   6.823  0.4575 -0.0114  0.3880
   57MOL   C27617188   6.092   2.003   6.979 -0.0998 -0.0824 -0.9824
   57MOL   C27717189   5.984   1.967   7.079 -0.3993  0.1837 -0.1770
   57MOL   C27817190   5.897   1.677   6.827 -0.9653  0.0450  0.6770
   57MOL   H27917191   6.045   1.764   6.683  0.3630  1.1429 -0.4031
   57MOL   H28017192   6.186   2.010   7.034  0.1530 -2.2127 -1.1059
   57MOL   H28117193   6.084   2.110   6.960 -2.6695  0.3133  1.9760
   57MOL   H28217194   5.947   2.050   7.139  1.1050  0.3229  0.5764
   57MOL   H28317195   5.891   1.954   7.024 -1.3880  2.0073  1.0253
   57MOL   H28417196   5.999   1.875   7.135  0.6470 -0.8453 -2.0808
   57MOL   H28517197   5.947   1.652   6.920  0.0027  2.1649  0.7521
   57MOL   H28617198   5.803   1.716   6.867 -1.8274  0.1643 -1.3751
   57MOL   C28717199   5.885   1.548   6.745  0.1414 -0.1035  0.1021
   57MOL   O28817200   6.011   1.475   6.748 -0.2847 -0.6829 -0.1387
   57MOL   C28917201   6.078   1.463   6.633 -0.7816  0.3702 -0.4679
   57MOL   O29017202   6.057   1.536   6.537 -0.2612  0.9468  0.1435
   57MOL   C29117203   6.178   1.345   6.634  0.3271  0.6212  0.1046
   57MOL   C29217204   6.295   1.379   6.732 -0.3403 -0.5114 -0.9286
   57MOL   C29317205   5.779   1.450   6.801  0.7511 -1.2166 -0.3761
   57MOL   H29417206   5.853   1.563   6.642  1.7567 -0.0622 -0.4045
   57MOL   H29517207   6.129   1.252   6.662  0.2534 -0.3095 -3.0108
   57MOL   H29617208   6.211   1.322   6.533  0.9748  3.0212 -0.2706
   57MOL   H29717209   6.364   1.296   6.713 -0.0434 -0.3304 -0.6296
   57MOL   H29817210   6.335   1.480   6.720 -2.6020  0.2630 -2.3495
   57MOL   H29917211   6.277   1.377   6.839  2.0654 -0.6907 -0.4987
   57MOL   H30017212   5.806   1.430   6.904  0.3313  0.0765 -0.0032
   57MOL   H30117213   5.676   1.484   6.801  1.4141  0.8692 -0.6909
   57MOL   H30217214   5.785   1.358   6.743  1.2533 -0.3987 -1.6610
   58MOL     C117215   5.715   7.642   2.130 -0.0940 -0.3281  0.2814
   58MOL     O217216   5.582   7.664   2.074 -0.0129 -0.0500  0.3843
   58MOL     C317217   5.568   7.731   1.962 -0.1366 -0.6269 -0.0001
   58MOL     O417218   5.664   7.785   1.904  0.0107 -0.0839  0.9636
   58MOL     C517219   5.424   7.741   1.910  0.4035 -0.0782  0.2377
   58MOL     C617220   5.411   7.880   1.836 -0.1150 -0.7241  0.2223
   58MOL     C717221   5.741   7.737   2.244  0.3935  0.5226 -0.3923
   58MOL     H817222   5.791   7.649   2.053 -1.2558  1.4485 -0.7569
   58MOL     H917223   5.410   7.658   1.840 -1.0577  2.1215 -2.1884
   58MOL    H1017224   5.359   7.733   1.997  0.3819 -2.5558  0.0241
   58MOL    H1117225   5.311   7.913   1.807 -0.1516 -2.0723 -1.2433
   58MOL    H1217226   5.460   0.012   1.896 -0.7661  0.6889 -1.0184
   58MOL    H1317227   5.464   7.874   1.741  0.5305 -0.6804  0.5780
   58MOL    H1417228   5.749   7.839   2.208 -3.0329  0.6947 -0.7795
   58MOL    H1517229   5.653   7.725   2.306  0.2691  0.1169 -0.6453
   58MOL    H1617230   5.718   7.538   2.159  0.4473 -0.1626  0.8100
   58MOL    C1717231   5.865   7.706   2.322  0.0592  0.0061 -0.0303
   58MOL    O1817232   5.980   7.716   2.230 -0.1458 -0.7047 -0.0372
   58MOL    C1917233   6.050   7.612   2.191 -0.5097  0.1281 -0.4285
   58MOL    O2017234   6.038   7.496   2.220 -0.2372  0.2272  0.1046
   58MOL    C2117235   6.162   7.659   2.104 -0.8393 -0.4529  0.5008
   58MOL    C2217236   6.210   7.545   2.009  0.1693  0.4109  0.0560
   58MOL    C2317237   5.885   7.806   2.437  0.5322  0.0497 -0.7884
   58MOL    H2417238   5.856   7.606   2.364 -0.1834 -0.9219 -2.2127
   58MOL    H2517239   6.126   7.740   2.042 -1.4750 -0.3021  1.0647
   58MOL    H2617240   6.244   7.698   2.164 -1.4335 -1.9084  2.3222
   58MOL    H2717241   6.122   7.508   1.956  0.8020  0.4070 -1.0009
   58MOL    H2817242   6.278   7.582   1.933  0.7612  2.7951  1.6904
   58MOL    H2917243   6.256   7.467   2.070 -1.0154  0.0066  0.4527
   58MOL    H3017244   5.937   7.897   2.408  2.1802  0.2994  2.6884
   58MOL    H3117245   5.783   7.831   2.467 -0.3461 -0.8464 -2.8756
   58MOL    C3217246   5.954   7.743   2.555 -0.2048  0.2771  0.0482
   58MOL    O3317247   6.082   7.715   2.514 -0.3012  0.5807 -0.1547
   58MOL    C3417248   6.144   7.595   2.553  0.1927  0.7710  1.1410
   58MOL    O3517249   6.100   7.505   2.621 -0.0657  0.4540  0.3377
   58MOL    C3617250   6.287   7.579   2.490 -0.2019  0.3262 -0.2362
   58MOL    C3717251   6.386   7.522   2.585 -0.1218  0.1304  0.1747
   58MOL    C3817252   5.946   7.844   2.669 -0.6834 -0.0493 -0.0651
   58MOL    H3917253   5.903   7.649   2.576  1.5294 -0.4987  0.8416
   58MOL    H4017254   6.270   7.508   2.409 -2.1292  0.7573 -0.2356
   58MOL    H4117255   6.325   7.668   2.441  0.2565  0.3453  0.1494
   58MOL    H4217256   6.370   7.558   2.687 -0.6582  0.1472  0.0842
   58MOL    H4317257   6.380   7.413   2.596 -0.8663  0.0867 -0.6582
   58MOL    H4417258   6.489   7.544   2.558 -0.4766  0.7507 -0.6710
   58MOL    H4517259   6.033   7.839   2.735 -0.4612  0.8293 -0.2830
   58MOL    H4617260   5.958   7.941   2.622 -1.1744 -0.7322 -1.6153
   58MOL    C4717261   5.824   7.824   2.757 -0.1226  0.0370 -0.4389
   58MOL    O4817262   5.855   7.707   2.828  0.0628  0.2075 -0.1265
   58MOL    C4917263   5.758   7.619   2.861 -0.1602  0.4126 -0.2656
   58MOL    O5017264   5.639   7.623   2.818  0.3869 -0.2973  1.0468
   58MOL    C5117265   5.805   7.516   2.966 -0.5125 -0.2625  0.9030
   58MOL    C5217266   5.936   7.444   2.933  0.4699  0.1026 -0.0860
   58MOL    C5317267   5.792   0.006   2.847  0.0456 -0.8103 -0.6143
   58MOL    H5417268   5.741   7.805   2.688 -0.8442  2.2741 -0.2341
   58MOL    H5517269   5.792   7.576   3.056 -0.0858  0.8860  0.2101
   58MOL    H5617270   5.718   7.450   2.966 -0.9132  0.2257 -1.4082
   58MOL    H5717271   5.947   7.355   2.994  2.9803 -0.3641 -1.1625
   58MOL    H5817272   5.932   7.406   2.831 -2.0184  1.1180 -0.3977
   58MOL    H5917273   6.022   7.510   2.943  0.4285  0.4609 -1.8888
   58MOL    H6017274   5.764   7.905   2.942 -0.8517  1.1969  0.1013
   58MOL    H6117275   5.889   0.047   2.873  0.6045 -3.2872  1.4795
   58MOL    C6217276   5.680   0.102   2.795 -0.0707  0.3430 -0.3819
   58MOL    O6317277   5.552   0.034   2.808 -0.5461  0.4974 -0.5828
   58MOL    C6417278   5.498   7.917   2.705  0.7636  0.4056  0.3152
   58MOL    O6517279   5.555   7.895   2.597 -0.4338  0.3693 -0.2919
   58MOL    C6617280   5.356   7.868   2.731  0.2764  0.5685  0.0184
   58MOL    C6717281   5.323   7.753   2.631 -0.0485 -0.0094 -0.1867
   58MOL    C6817282   5.663   0.234   2.885  0.5727 -0.2871 -0.2940
   58MOL    H6917283   5.693   0.140   2.694  0.3900  0.6219 -0.2217
   58MOL    H7017284   5.338   7.824   2.829 -2.0553  2.7052  0.5782
   58MOL    H7117285   5.289   0.008   2.720  1.6829  1.7678  0.5531
   58MOL    H7217286   5.388   7.736   2.545  0.0046 -0.4884 -0.0501
   58MOL    H7317287   5.314   7.663   2.691  1.2049 -0.3868 -0.5605
   58MOL    H7417288   5.229   7.773   2.579 -0.2231  2.8960  1.1433
   58MOL    H7517289   5.568   0.276   2.852  1.4059  0.0493 -2.2955
   58MOL    H7617290   5.659   0.203   2.990  1.3301  1.2723  0.2207
   58MOL    C7717291   5.770   0.346   2.871 -0.1857 -0.2568  0.2650
   58MOL    O7817292   5.783   0.378   2.732 -0.4858 -0.7040 -0.4691
   58MOL    C7917293   5.887   0.347   2.669  0.5095 -0.0984  0.1802
   58MOL    O8017294   5.984   0.286   2.721 -0.7707  0.1245  0.5405
   58MOL    C8117295   5.875   0.376   2.519  0.3085 -0.0448  0.5471
   58MOL    C8217296   5.941   0.509   2.485 -0.4631  0.4980  0.7221
   58MOL    C8317297   5.712   0.471   2.942  0.1008 -0.0169  0.4472
   58MOL    H8417298   5.863   0.321   2.921  0.7139 -0.9595 -1.7260
   58MOL    H8517299   5.928   0.298   2.464 -0.6259 -2.1563  2.5730
   58MOL    H8617300   5.770   0.370   2.490  0.6982 -1.4685 -0.6550
   58MOL    H8717301   5.866   0.588   2.489  0.7624  1.6989  0.3146
   58MOL    H8817302   6.027   0.533   2.547  0.0982 -0.5591  0.3698
   58MOL    H8917303   5.978   0.518   2.383  0.2466  0.4161  0.9704
   58MOL    H9017304   5.623   0.517   2.900  0.4219 -1.3130 -1.6939
   58MOL    H9117305   5.691   0.442   3.045  0.6237  0.4938  0.7036
   58MOL    C9217306   5.822   0.586   2.939  0.3687  0.4909  0.1452
   58MOL    O9317307   5.790   0.678   2.835  0.2220 -0.1925  0.1788
   58MOL    C9417308   5.891   0.728   2.760  0.2048 -0.3481  0.4083
   58MOL    O9517309   6.006   0.678   2.750  0.2972 -0.6086  0.4529
   58MOL    C9617310   5.847   0.852   2.690 -0.0569  0.5441 -0.7750
   58MOL    C9717311   5.936   0.903   2.574 -0.0897 -0.0050 -0.3031
   58MOL    C9817312   5.829   0.663   3.071  0.1812  0.1955 -0.2964
   58MOL    H9917313   5.922   0.543   2.927 -0.4348 -1.0841 -1.0529
   58MOL   H10017314   5.744   0.849   2.657 -0.6169  1.2447  0.8842
   58MOL   H10117315   5.843   0.930   2.766 -0.5925 -1.6004  1.4953
   58MOL   H10217316   5.926   0.841   2.485 -1.7740  0.8583 -0.7356
   58MOL   H10317317   5.900   1.000   2.542 -1.5083 -0.3526  0.2038
   58MOL   H10417318   6.037   0.902   2.616 -0.6392 -1.3901  1.0491
   58MOL   H10517319   5.908   0.738   3.057  2.0714 -1.7634 -0.4492
   58MOL   H10617320   5.739   0.725   3.074  0.6858  0.9094  0.5300
   58MOL   C10717321   5.846   0.584   3.201  0.1032 -0.0379 -0.1296
   58MOL   O10817322   5.967   0.516   3.212 -0.6293  0.1335 -0.0410
   58MOL   C10917323   5.981   0.387   3.197  0.0569 -0.9264  0.5522
   58MOL   O11017324   5.889   0.307   3.193  0.2988  0.5779 -0.5818
   58MOL   C11117325   6.126   0.338   3.197 -0.0652  0.1364  0.2322
   58MOL   C11217326   6.177   0.282   3.329  0.1089  0.1306  0.3498
   58MOL   C11317327   5.826   0.672   3.325 -0.3599 -0.0230  0.1692
   58MOL   H11417328   5.767   0.510   3.219  2.0526 -2.5091 -1.4341
   58MOL   H11517329   6.142   0.283   3.104  0.3956  1.0453 -0.2336
   58MOL   H11617330   6.191   0.424   3.180  0.7218 -0.4945 -0.0224
   58MOL   H11717331   6.283   0.303   3.340  0.2359 -0.9687  1.3638
   58MOL   H11817332   6.123   0.336   3.406 -1.5003  1.9160 -1.9840
   58MOL   H11917333   6.170   0.173   3.336 -1.2979  0.1689 -0.3362
   58MOL   H12017334   5.918   0.710   3.370 -0.4416  1.1756 -0.6336
   58MOL   H12117335   5.762   0.755   3.295  0.6368  0.3617 -0.9492
   58MOL   C12217336   5.771   0.582   3.441  0.0212 -0.3372 -0.1742
   58MOL   O12317337   5.789   0.657   3.568  0.8702  0.1372 -0.0250
   58MOL   C12417338   5.895   0.620   3.647  0.6626 -0.3635 -0.0299
   58MOL   O12517339   5.957   0.509   3.642  0.4837 -0.0398 -0.1306
   58MOL   C12617340   5.936   0.738   3.733  0.4110  0.8652  0.0507
   58MOL   C12717341   6.040   0.820   3.657  0.0811 -0.1847 -0.5368
   58MOL   C12817342   5.620   0.553   3.428  0.3573  0.4603 -0.1236
   58MOL   H12917343   5.819   0.484   3.437 -0.3153 -0.5827  1.2876
   58MOL   H13017344   5.848   0.792   3.768 -0.1561 -1.0781  1.7625
   58MOL   H13117345   5.978   0.696   3.825  0.1492 -0.7374 -0.5428
   58MOL   H13217346   6.067   0.910   3.713 -2.4257  0.5366 -0.4582
   58MOL   H13317347   6.139   0.783   3.628  0.5583  0.3578  0.3544
   58MOL   H13417348   5.994   0.850   3.563 -3.0313 -0.2479  0.9156
   58MOL   H13517349   5.569   0.648   3.446  0.8470  0.7115 -0.0488
   58MOL   H13617350   5.597   0.545   3.322 -0.2139 -0.2006  0.0441
   58MOL   C13717351   5.559   0.441   3.514 -0.2211  0.1094  0.5291
   58MOL   O13817352   5.629   0.313   3.491  0.3726  0.0833 -0.6442
   58MOL   C13917353   5.625   0.244   3.380  1.1492  0.8551  0.6055
   58MOL   O14017354   5.581   0.284   3.269 -0.3851 -0.1313 -0.1987
   58MOL   C14117355   5.677   0.099   3.409  0.6504  0.0582 -0.1884
   58MOL   C14217356   5.592   0.031   3.524  0.5515  0.0220 -0.5667
   58MOL   C14317357   5.553   0.464   3.672  0.4655  0.5979 -1.3927
   58MOL   H14417358   5.456   0.439   3.479  0.2114  3.0700 -1.0529
   58MOL   H14517359   5.675   0.046   3.314  0.0112  1.1257 -0.7812
   58MOL   H14617360   5.781   0.104   3.439  0.1139 -2.9016  2.4350
   58MOL   H14717361   5.605   7.868   3.518 -1.4067 -0.4423  2.4920
   58MOL   H14817362   5.634   0.054   3.622  3.1367  1.4658 -1.9413
   58MOL   H14917363   5.485   0.045   3.532  0.3265 -2.0646  0.3657
   58MOL   H15017364   5.641   0.424   3.724  0.0620  0.3379 -0.9040
   58MOL   H15117365   5.571   0.568   3.700 -1.2258  1.1308 -2.2372
   58MOL   C15217366   5.421   0.435   3.741  1.0297  0.9378 -0.3081
   58MOL   O15317367   5.316   0.504   3.672  0.3731  0.4449  0.6072
   58MOL   C15417368   5.261   0.623   3.722 -0.6706  0.4076  0.3934
   58MOL   O15517369   5.306   0.688   3.816 -0.3512 -0.1847 -0.8564
   58MOL   C15617370   5.153   0.675   3.642  0.0725 -0.6221  0.3285
   58MOL   C15717371   5.066   0.774   3.716 -0.8491  0.2244 -0.3390
   58MOL   C15817372   5.405   0.285   3.759  0.4702  0.2550 -0.4488
   58MOL   H15917373   5.434   0.471   3.843  0.1376  0.7017 -0.1096
   58MOL   H16017374   5.193   0.728   3.556 -1.9873 -1.1785 -0.9989
   58MOL   H16117375   5.089   0.595   3.607 -0.3927 -0.0909 -0.0537
   58MOL   H16217376   5.121   0.867   3.729  1.3187 -1.0815 -0.0114
   58MOL   H16317377   4.979   0.788   3.652 -2.1538 -0.8061  1.1556
   58MOL   H16417378   5.031   0.746   3.815  1.3567  0.3751  0.4958
   58MOL   H16517379   5.341   0.231   3.689  1.6106 -0.5499 -0.8930
   58MOL   H16617380   5.505   0.246   3.740  0.8928  1.2278 -0.2207
   58MOL   C16717381   5.365   0.247   3.898 -0.2843 -0.7651  0.3187
   58MOL   O16817382   5.241   0.310   3.913  0.3394 -0.6047 -0.0277
   58MOL   C16917383   5.207   0.375   4.027 -0.1609  0.7982 -0.2592
   58MOL   O17017384   5.284   0.411   4.116 -0.0673 -0.3635 -0.5801
   58MOL   C17117385   5.062   0.427   4.025 -0.3010 -0.3736  0.0508
   58MOL   C17217386   5.047   0.562   4.105 -0.0001 -0.2398  0.5753
   58MOL   C17317387   5.348   0.099   3.913 -0.1946 -0.2492 -0.3266
   58MOL   H17417388   5.435   0.286   3.973 -1.0346  0.2482  0.5043
   58MOL   H17517389   5.034   0.443   3.921 -1.5361 -0.0917  0.4172
   58MOL   H17617390   5.003   0.353   4.079  1.1447 -2.5591 -1.2852
   58MOL   H17717391   5.048   0.646   4.035  1.3630  1.2973  2.3887
   58MOL   H17817392   4.970   0.564   4.183  0.9327  0.7457  1.4992
   58MOL   H17917393   5.132   0.586   4.169 -1.4287  2.2571  1.6343
   58MOL   H18017394   5.260   0.082   3.851  0.6402  0.0454 -1.6383
   58MOL   H18117395   5.431   0.046   3.865  0.3799  0.2288  0.1272
   58MOL   C18217396   5.321   0.052   4.062 -0.3392 -0.2725 -0.2438
   58MOL   O18317397   5.238   7.880   4.043 -0.1457 -0.4523 -1.0941
   58MOL   C18417398   5.103   7.879   4.042  1.2560 -0.4465  0.0046
   58MOL   O18517399   5.035   0.032   4.071 -0.4106  0.5550  0.0293
   58MOL   C18617400   5.042   7.742   3.995  0.2549  0.5826 -0.3151
   58MOL   C18717401   4.940   7.682   4.084 -0.0341  0.9906 -0.2432
   58MOL   C18817402   5.442   0.006   4.142 -0.0703  0.8171 -0.1788
   58MOL   H18917403   5.276   0.123   4.131  0.9218 -2.9145  3.4304
   58MOL   H19017404   5.004   7.758   3.894 -1.1322  1.7492  0.3774
   58MOL   H19117405   5.121   7.669   3.978  0.3000 -0.1317  2.6482
   58MOL   H19217406   4.971   7.696   4.188 -0.6860  0.3234  0.0476
   58MOL   H19317407   4.848   7.739   4.074  0.9437  2.9930  1.7740
   58MOL   H19417408   4.934   7.578   4.051 -0.3651  1.0686 -0.4313
   58MOL   H19517409   5.397   7.902   4.228  0.4241  1.4350  0.4346
   58MOL   H19617410   5.491   7.874   4.083  0.3320  1.1463 -0.2781
   58MOL   C19717411   5.548   0.114   4.187  0.6048  0.0058 -0.0990
   58MOL   O19817412   5.490   0.196   4.285 -0.0741 -0.5658  0.6781
   58MOL   C19917413   5.551   0.307   4.333 -0.8631  0.5305  0.3872
   58MOL   O20017414   5.657   0.358   4.282 -0.5198  0.2753  0.1912
   58MOL   C20117415   5.471   0.376   4.443  0.6424  0.2393 -0.2651
   58MOL   C20217416   5.547   0.477   4.531  0.4386 -0.2365  0.1258
   58MOL   C20317417   5.671   0.041   4.253 -0.4544  1.1351 -0.3955
   58MOL   H20417418   5.582   0.179   4.107  3.5806 -2.3762 -0.8765
   58MOL   H20517419   5.402   0.437   4.386 -0.0949  0.9255  1.3505
   58MOL   H20617420   5.415   0.309   4.508 -1.6623  1.9981 -0.4149
   58MOL   H20717421   5.599   0.553   4.472  1.1927  1.2337  2.5825
   58MOL   H20817422   5.483   0.531   4.602  0.9672 -0.7648  1.0177
   58MOL   H20917423   5.628   0.431   4.589  1.0364 -1.4593 -1.6659
   58MOL   H21017424   5.729   0.110   4.313 -1.5278  1.6264  0.0848
   58MOL   H21117425   5.630   7.921   4.330 -0.4093  1.5108 -0.0565
   58MOL   C21217426   5.753   7.912   4.138 -0.1468 -0.4456  0.0446
   58MOL   O21317427   5.812   0.074   4.061 -0.1660  0.4561  0.1069
   58MOL   C21417428   5.775   0.092   3.932  0.1205  0.0038  0.4612
   58MOL   O21517429   5.698   0.030   3.863  0.4695  0.0675  0.0489
   58MOL   C21617430   5.857   0.209   3.874 -0.5175  0.0140 -0.0473
   58MOL   C21717431   5.896   0.182   3.728 -0.4536 -0.6887  0.1180
   58MOL   C21817432   5.859   7.833   4.196 -0.4229 -0.0720 -0.0206
   58MOL   H21917433   5.690   7.852   4.072  0.7554 -0.3821 -0.8729
   58MOL   H22017434   5.815   0.309   3.889 -1.4552 -0.5831  1.4759
   58MOL   H22117435   5.948   0.228   3.931  0.3944 -1.6566 -0.9319
   58MOL   H22217436   5.906   0.074   3.718 -0.1627 -0.6613  0.1114
   58MOL   H22317437   5.834   0.220   3.647 -0.3358  0.2543  0.4515
   58MOL   H22417438   5.996   0.227   3.718 -1.3622  1.5206  0.5433
   58MOL   H22517439   5.925   7.894   4.258  0.6621 -1.0051 -0.2319
   58MOL   H22617440   5.808   7.755   4.252 -0.8474  0.1074 -0.1551
   58MOL   C22717441   5.945   7.760   4.092  0.3723  0.3509 -0.0036
   58MOL   O22817442   6.034   7.681   4.165  0.3647  0.2457 -0.1323
   58MOL   C22917443   6.164   7.723   4.193  0.3871 -0.1607  0.0695
   58MOL   O23017444   6.213   7.831   4.160 -0.8114  0.4016 -0.2746
   58MOL   C23117445   6.248   7.622   4.271 -0.4260  0.0765 -0.0911
   58MOL   C23217446   6.204   7.642   4.419 -0.1133  0.5513 -0.1218
   58MOL   C23317447   5.862   7.680   3.986 -0.8287 -0.2530  0.0661
   58MOL   H23417448   5.994   7.845   4.044  0.4904  0.9103  1.0944
   58MOL   H23517449   6.225   7.521   4.238 -4.6430  0.4993  1.1795
   58MOL   H23617450   6.353   7.650   4.263 -0.1753 -0.9884 -0.5230
   58MOL   H23717451   6.107   7.596   4.441  0.1945 -0.4882 -0.8775
   58MOL   H23817452   6.277   7.591   4.482  0.4246  1.8714  0.3419
   58MOL   H23917453   6.211   7.748   4.441  0.1410  0.5709 -0.3002
   58MOL   H24017454   5.815   7.607   4.053 -1.4644 -0.6718 -0.8285
   58MOL   H24117455   5.788   7.740   3.933  1.9254  1.0032 -2.4875
   58MOL   C24217456   5.948   7.616   3.882  0.5207  0.0716 -0.1729
   58MOL   O24317457   5.879   7.525   3.795 -0.2905  0.1920  0.1896
   58MOL   C24417458   5.834   7.405   3.832  0.5340 -0.5034  0.2876
   58MOL   O24517459   5.869   7.342   3.937  0.3298  0.0935  0.1701
   58MOL   C24617460   5.737   7.353   3.732 -0.1240  1.3243 -0.4827
   58MOL   C24717461   5.685   7.214   3.773 -0.0667 -0.3511 -0.4776
   58MOL   C24817462   6.013   7.710   3.778 -0.2075 -0.3060 -0.1460
   58MOL   H24917463   6.021   7.560   3.941 -2.0284 -0.7942  2.2589
   58MOL   H25017464   5.656   7.427   3.731 -0.8674  0.5613  1.2841
   58MOL   H25117465   5.792   7.346   3.638  1.2935 -0.3583  0.4478
   58MOL   H25217466   5.662   7.224   3.880  1.3405  1.4069 -0.3185
   58MOL   H25317467   5.597   7.187   3.714 -0.7553  1.8383 -0.4976
   58MOL   H25417468   5.758   7.136   3.753 -1.1327 -1.4396 -0.2054
   58MOL   H25517469   5.943   7.779   3.733  0.3485  1.2758  1.3599
   58MOL   H25617470   6.071   7.784   3.833  1.7935 -1.1449 -1.0859
   58MOL   C25717471   6.108   7.641   3.674 -0.0142 -0.3242 -0.9280
   58MOL   O25817472   6.109   7.736   3.570  0.0749 -0.5478  0.2760
   58MOL   C25917473   6.052   7.712   3.451 -0.2281 -0.3644 -0.1292
   58MOL   O26017474   6.001   7.608   3.408  0.0281 -0.2159  0.3819
   58MOL   C26117475   6.042   7.832   3.358  0.0040 -0.5407 -0.3575
   58MOL   C26217476   5.961   7.816   3.227 -0.3217  0.4345  0.0949
   58MOL   C26317477   6.255   7.632   3.716  0.0742  1.1388 -0.4216
   58MOL   H26417478   6.058   7.551   3.640 -1.6052  0.7540 -1.4868
   58MOL   H26517479   5.994   7.914   3.412  2.9067  0.3601  1.0027
   58MOL   H26617480   6.140   7.875   3.336  0.3703 -0.2533  1.7920
   58MOL   H26717481   5.856   7.832   3.253 -0.1766 -0.5095  1.3222
   58MOL   H26817482   6.005   7.880   3.151 -1.9945  0.1296 -1.1606
   58MOL   H26917483   5.947   7.719   3.179 -1.7963  0.6935 -0.0442
   58MOL   H27017484   6.320   7.588   3.641 -2.2916 -0.1368 -1.7925
   58MOL   H27117485   6.293   7.734   3.722 -2.2633  1.9400  1.6700
   58MOL   C27217486   6.288   7.555   3.844 -0.1627  0.1003  0.3944
   58MOL   O27317487   6.268   7.410   3.825 -0.3384  0.3162  0.2722
   58MOL   C27417488   6.199   7.335   3.916  0.1651 -0.5319 -0.2410
   58MOL   O27517489   6.165   7.378   4.024  0.7305 -0.4268  0.3919
   58MOL   C27617490   6.173   7.195   3.864 -0.5414 -0.0121  0.2207
   58MOL   C27717491   6.125   7.189   3.718 -0.0392  0.2881 -0.3521
   58MOL   C27817492   6.438   7.550   3.866 -0.6925  0.2140 -0.4808
   58MOL   H27917493   6.239   7.593   3.934 -0.2089  2.2245 -0.5100
   58MOL   H28017494   6.269   7.142   3.859  0.1010  0.9462  2.0880
   58MOL   H28117495   6.098   7.148   3.927 -0.0113 -1.8402 -0.4788
   58MOL   H28217496   6.097   7.286   3.676 -2.3257 -0.3246 -0.3329
   58MOL   H28317497   6.186   7.132   3.647 -0.0196  1.1653 -1.0593
   58MOL   H28417498   6.030   7.135   3.715 -0.5421  1.0895  0.9899
   58MOL   H28517499   6.475   7.483   3.789 -0.8555  0.6502 -0.9451
   58MOL   H28617500   6.479   7.646   3.834  0.2134 -0.5151 -1.5069
   58MOL   C28717501   6.488   7.511   4.005 -0.5041  0.2834  0.0998
   58MOL   O28817502   6.472   7.374   4.025  0.0273  0.3611  0.3468
   58MOL   C28917503   6.472   7.313   4.148 -0.0960  0.0933 -0.6341
   58MOL   O29017504   6.495   7.375   4.251  0.1597  0.1749  0.3205
   58MOL   C29117505   6.438   7.161   4.153 -0.0079 -0.2445 -0.0454
   58MOL   C29217506   6.544   7.064   4.087 -0.1159 -0.2645 -0.2297
   58MOL   C29317507   6.637   7.547   4.023 -0.7612  0.0219 -0.0064
   58MOL   H29417508   6.434   7.572   4.077 -1.5261 -2.3781  1.6668
   58MOL   H29517509   6.417   7.147   4.260 -2.3663  1.7355 -0.2015
   58MOL   H29617510   6.340   7.146   4.109  0.6874  0.7940 -1.9810
   58MOL   H29717511   6.606   7.027   4.169  0.8961  0.8632 -0.4854
   58MOL   H29817512   6.502   6.976   4.038  0.9048 -0.6730 -0.3730
   58MOL   H29917513   6.612   7.103   4.012 -0.3735 -0.1756 -0.4193
   58MOL   H30017514   6.672   7.533   4.126  0.9103  1.4482 -0.3499
   58MOL   H30117515   6.710   7.494   3.963 -0.2801  0.7340 -0.0512
   58MOL   H30217516   6.664   7.651   4.003 -1.4949  0.8576  3.0689
   59MOL     C117517   7.165   0.415   5.917  0.8091 -0.2058  0.4627
   59MOL     O217518   7.132   0.285   5.973 -0.4359  0.2525 -0.4131
   59MOL     C317519   7.227   0.223   6.050  0.3782  0.6101  0.0084
   59MOL     O417520   7.337   0.264   6.073  0.1201 -0.8062 -0.5298
   59MOL     C517521   7.188   0.097   6.118  0.1340  0.6926 -0.4485
   59MOL     C617522   7.060   0.117   6.201  0.3146 -0.5461  0.2167
   59MOL     C717523   7.124   0.420   5.769 -0.5975  0.6781 -0.5801
   59MOL     H817524   7.270   0.435   5.935  0.6097 -0.0149  1.4522
   59MOL     H917525   7.163   0.020   6.045 -1.7609  1.9237 -1.1331
   59MOL    H1017526   7.273   0.057   6.174 -1.9418  0.5977  2.7509
   59MOL    H1117527   7.062   0.202   6.270 -0.1224 -1.4411  1.3517
   59MOL    H1217528   6.974   0.130   6.136  0.3210  1.2302  0.5416
   59MOL    H1317529   7.046   0.026   6.259  0.4288 -1.1606 -0.7301
   59MOL    H1417530   7.198   0.360   5.717  1.0663  2.4253 -0.2694
   59MOL    H1517531   7.030   0.368   5.749 -0.4677  0.3162 -0.2571
   59MOL    H1617532   7.103   0.484   5.976  0.0578 -1.1505  0.7993
   59MOL    C1717533   7.119   0.557   5.711  0.6235  0.4481 -0.2513
   59MOL    O1817534   7.239   0.625   5.729  0.7566 -0.3036 -0.4370
   59MOL    C1917535   7.251   0.721   5.831  0.4199 -0.0022 -0.0699
   59MOL    O2017536   7.162   0.758   5.901 -0.3369 -0.4898  0.3859
   59MOL    C2117537   7.390   0.782   5.843 -0.1588  0.6707  0.5728
   59MOL    C2217538   7.497   0.682   5.880  0.8153 -0.3538 -0.3010
   59MOL    C2317539   7.098   0.551   5.562 -0.0327  0.4960  0.9850
   59MOL    H2417540   7.037   0.604   5.765 -0.4325 -0.5706 -0.9384
   59MOL    H2517541   7.411   0.834   5.749 -0.5730 -1.1801 -0.5891
   59MOL    H2617542   7.393   0.861   5.917  1.1488 -0.3216  1.5987
   59MOL    H2717543   7.582   0.731   5.834 -0.4746  2.4340  0.1463
   59MOL    H2817544   7.517   0.677   5.987 -3.6573 -1.5539  0.5972
   59MOL    H2917545   7.487   0.583   5.835 -2.0480  0.2887 -1.2471
   59MOL    H3017546   7.123   0.647   5.517  2.1254 -1.3709 -1.9423
   59MOL    H3117547   7.172   0.483   5.521  0.2699  1.5883 -0.3230
   59MOL    C3217548   6.960   0.500   5.505  0.1571  0.6617 -0.0224
   59MOL    O3317549   6.849   0.583   5.544 -0.5747 -0.4415  0.3051
   59MOL    C3417550   6.743   0.533   5.614  0.0416 -0.2629  0.1512
   59MOL    O3517551   6.735   0.426   5.677  0.0973  0.2468 -0.5461
   59MOL    C3617552   6.616   0.623   5.610 -0.1959  0.4140 -1.1202
   59MOL    C3717553   6.641   0.756   5.676  0.4777 -0.0511 -0.1858
   59MOL    C3817554   6.957   0.507   5.354  0.2145 -0.2832  0.3483
   59MOL    H3917555   6.940   0.397   5.536 -1.3162  0.3929 -1.7406
   59MOL    H4017556   6.587   0.635   5.505 -1.3246  2.3199 -0.6154
   59MOL    H4117557   6.537   0.559   5.648  1.7226 -2.0459 -1.1297
   59MOL    H4217558   6.564   0.829   5.649 -0.4040 -1.4228 -1.4624
   59MOL    H4317559   6.646   0.746   5.784  0.0293  0.1664 -0.1421
   59MOL    H4417560   6.729   0.802   5.632  0.7115 -0.5906 -0.2875
   59MOL    H4517561   6.947   0.608   5.313 -1.1923 -0.0697  1.1995
   59MOL    H4617562   7.053   0.488   5.306 -0.7241 -0.5468 -1.5056
   59MOL    C4717563   6.845   0.437   5.280 -0.4437  0.2852 -0.3334
   59MOL    O4817564   6.852   0.478   5.147  0.0164  0.2141  0.1180
   59MOL    C4917565   6.781   0.583   5.104  0.9692  0.0241  0.7051
   59MOL    O5017566   6.721   0.665   5.173 -0.4200  0.4594  0.5473
   59MOL    C5117567   6.782   0.602   4.952 -0.3363 -0.4701  0.0589
   59MOL    C5217568   6.674   0.701   4.889 -0.3933  0.0618  0.3147
   59MOL    C5317569   6.857   0.286   5.281 -0.7403 -0.4435  0.1578
   59MOL    H5417570   6.750   0.462   5.327  0.9834  1.4282  2.0834
   59MOL    H5517571   6.885   0.624   4.922 -0.1334 -1.2598  0.1799
   59MOL    H5617572   6.779   0.505   4.902 -1.6559 -0.0448 -0.7135
   59MOL    H5717573   6.702   0.806   4.896 -0.2420  0.2543 -2.6008
   59MOL    H5817574   6.662   0.689   4.781  2.4018  0.2884 -0.0422
   59MOL    H5917575   6.578   0.685   4.939 -0.7076 -0.7621 -0.5317
   59MOL    H6017576   6.948   0.237   5.246 -1.4242 -0.5844 -1.4717
   59MOL    H6117577   6.853   0.259   5.386 -0.5747 -0.5378  0.1398
   59MOL    C6217578   6.742   0.215   5.218 -0.0681  0.0633 -0.0333
   59MOL    O6317579   6.774   0.167   5.089  0.2769  0.6966  0.3201
   59MOL    C6417580   6.679   0.147   4.999  0.0885 -0.5469 -0.3690
   59MOL    O6517581   6.567   0.197   5.011 -0.2724  0.1886  0.3160
   59MOL    C6617582   6.725   0.074   4.876 -0.2690  0.4322 -0.2470
   59MOL    C6717583   6.775   0.172   4.770 -0.1563 -0.1410 -0.2151
   59MOL    C6817584   6.682   0.098   5.304 -0.3307 -0.2398 -0.0279
   59MOL    H6917585   6.654   0.278   5.206 -1.2234 -1.0208  2.4661
   59MOL    H7017586   6.812   0.016   4.906  0.2798  0.8474 -1.0362
   59MOL    H7117587   6.649   0.012   4.828  1.8907 -2.5658  0.0027
   59MOL    H7217588   6.701   0.238   4.724 -0.1637 -0.6142 -0.8934
   59MOL    H7317589   6.854   0.236   4.809  1.2651 -0.5428 -2.3359
   59MOL    H7417590   6.829   0.109   4.699  1.4710 -0.4097  1.2266
   59MOL    H7517591   6.622   0.032   5.242 -0.2436  0.6208 -1.0478
   59MOL    H7617592   6.765   0.038   5.342  0.3052  0.1890 -0.7377
   59MOL    C7717593   6.606   0.147   5.426 -0.5522  0.0446  0.3689
   59MOL    O7817594   6.465   0.188   5.398  0.3363 -0.3454  0.2361
   59MOL    C7917595   6.433   0.320   5.411  0.7438 -0.2423  0.1050
   59MOL    O8017596   6.516   0.413   5.421 -0.1833  0.0496 -0.7690
   59MOL    C8117597   6.287   0.355   5.399  0.0518 -0.0283 -0.4404
   59MOL    C8217598   6.230   0.335   5.261  0.5474 -0.3126  0.3777
   59MOL    C8317599   6.592   0.029   5.527 -0.0777  0.7221 -0.0022
   59MOL    H8417600   6.667   0.225   5.470  1.4377 -1.0522 -0.3976
   59MOL    H8517601   6.228   0.296   5.470  0.8673  1.0485  1.1814
   59MOL    H8617602   6.279   0.462   5.415 -1.0713  0.0507 -1.4992
   59MOL    H8717603   6.160   0.412   5.228 -0.0366 -1.8012 -2.0060
   59MOL    H8817604   6.309   0.332   5.186  0.8259  0.2198  0.6474
   59MOL    H8917605   6.182   0.237   5.251 -0.4462  0.0826  1.1646
   59MOL    H9017606   6.511   7.909   5.492  1.0839 -0.3473 -0.7333
   59MOL    H9117607   6.680   7.910   5.517  1.5369  2.6963  1.3166
   59MOL    C9217608   6.577   0.069   5.676 -0.1487  0.0123 -0.0468
   59MOL    O9317609   6.450   0.027   5.722 -0.1191  0.0320  0.7168
   59MOL    C9417610   6.369   0.115   5.777  0.7830 -0.2865  0.0786
   59MOL    O9517611   6.392   0.234   5.784 -0.1983  0.7305  0.1432
   59MOL    C9617612   6.231   0.059   5.823  0.1512  0.0285 -0.0248
   59MOL    C9717613   6.234   7.880   5.923  0.0997 -0.4675 -0.1319
   59MOL    C9817614   6.695   0.010   5.765 -0.6507 -0.3865  0.3856
   59MOL    H9917615   6.592   0.177   5.679 -0.5886  0.2117 -3.2377
   59MOL   H10017616   6.188   0.143   5.877 -0.5514 -1.4448  1.7803
   59MOL   H10117617   6.166   0.029   5.740  0.3897 -1.0677  0.1740
   59MOL   H10217618   6.137   7.877   5.972 -0.0356  0.1153 -0.3562
   59MOL   H10317619   6.251   7.789   5.865  0.3293 -0.2015 -0.4900
   59MOL   H10417620   6.317   7.887   5.993  0.2614 -0.7104 -0.2988
   59MOL   H10517621   6.690   7.847   5.746 -3.4807 -0.0751 -1.0105
   59MOL   H10617622   6.789   0.050   5.729 -1.2169  0.3388 -0.2902
   59MOL   C10717623   6.681   0.047   5.909  0.2800  0.4246 -0.5965
   59MOL   O10817624   6.783   7.911   5.973  0.0687 -0.6020 -0.5144
   59MOL   C10917625   6.766   7.814   6.062 -1.0271  0.7874  0.1882
   59MOL   O11017626   6.655   7.790   6.102  0.1495 -0.3817 -0.0880
   59MOL   C11117627   6.899   7.745   6.113 -0.2314 -1.1984  0.2899
   59MOL   C11217628   6.956   7.646   6.014  0.2077 -0.8614  0.1337
   59MOL   C11317629   6.718   0.197   5.939 -0.8075  0.1800  0.0409
   59MOL   H11417630   6.578   0.028   5.942  0.8322 -2.6967 -0.5322
   59MOL   H11517631   6.976   7.822   6.125  0.5443 -1.7874 -0.7496
   59MOL   H11617632   6.876   7.696   6.207 -1.0175  2.1421  1.8746
   59MOL   H11717633   6.905   7.550   6.008 -0.3458 -0.6795  1.7027
   59MOL   H11817634   6.956   7.693   5.916 -0.9699 -0.2392  0.4194
   59MOL   H11917635   7.060   7.622   6.037 -0.2066 -2.6426  0.2660
   59MOL   H12017636   6.816   0.230   5.903 -1.0562 -0.4042 -1.1979
   59MOL   H12117637   6.656   0.263   5.879 -0.0935 -0.8481 -1.8686
   59MOL   C12217638   6.712   0.254   6.087  0.0680  0.2759  0.4471
   59MOL   O12317639   6.732   0.396   6.072  0.1334  0.5785  0.2177
   59MOL   C12417640   6.838   0.458   6.129  0.0939 -0.7117  0.0211
   59MOL   O12517641   6.921   0.408   6.205 -0.5622 -0.6274 -0.5875
   59MOL   C12617642   6.845   0.608   6.081 -0.1828  0.4364  0.3140
   59MOL   C12717643   6.707   0.676   6.052  0.0527 -0.0263  0.0869
   59MOL   C12817644   6.576   0.238   6.151  0.0097 -0.0005 -0.3367
   59MOL   H12917645   6.784   0.199   6.147  2.5986  1.5719 -1.3136
   59MOL   H13017646   6.898   0.655   6.164 -2.0505  2.8030  0.2112
   59MOL   H13117647   6.904   0.605   5.990  0.6851  2.0831  0.8041
   59MOL   H13217648   6.625   0.609   6.028  0.9798 -1.2844  0.4219
   59MOL   H13317649   6.687   0.729   6.146 -0.0069  1.2559 -0.6293
   59MOL   H13417650   6.691   0.760   5.985  1.2270  1.4496  1.5922
   59MOL   H13517651   6.503   0.288   6.087  0.2643 -0.5445 -1.0645
   59MOL   H13617652   6.556   0.131   6.162  0.8534 -0.0798  0.4495
   59MOL   C13717653   6.554   0.309   6.290 -0.4638  0.2301  0.1587
   59MOL   O13817654   6.426   0.295   6.345  0.2295  0.2181 -0.1123
   59MOL   C13917655   6.321   0.373   6.314  0.0316 -0.2405  0.0844
   59MOL   O14017656   6.332   0.476   6.250 -0.6900 -0.0380  0.0990
   59MOL   C14117657   6.192   0.323   6.379 -0.6563  0.5968 -0.0039
   59MOL   C14217658   6.111   0.437   6.452  0.2513  0.4555 -0.3434
   59MOL   C14317659   6.646   0.248   6.401 -0.7460  0.1303 -0.1514
   59MOL   H14417660   6.575   0.416   6.281 -3.4098  1.0033  1.9077
   59MOL   H14517661   6.136   0.261   6.309  1.6568 -1.7553  0.1442
   59MOL   H14617662   6.223   0.253   6.457  0.6917  0.8179 -0.3382
   59MOL   H14717663   6.084   0.526   6.396 -1.6259 -0.8992 -1.6310
   59MOL   H14817664   6.014   0.401   6.486 -0.1789  0.7330 -1.2807
   59MOL   H14917665   6.161   0.478   6.540  1.4069 -0.3929 -0.5950
   59MOL   H15017666   6.750   0.260   6.373  0.4371 -1.9955  3.0813
   59MOL   H15117667   6.630   0.304   6.494  2.8537  1.1493 -0.0763
   59MOL   C15217668   6.649   0.097   6.440  0.3576 -0.8709  0.7568
   59MOL   O15317669   6.746   0.092   6.546 -0.0642 -0.5950  0.1129
   59MOL   C15417670   6.855   0.016   6.530 -0.2200  1.1164  0.2075
   59MOL   O15517671   6.882   7.884   6.435  0.0674  0.2036  0.3947
   59MOL   C15617672   6.964   0.036   6.637  0.5716  0.0662  0.3836
   59MOL   C15717673   6.943   7.886   6.759 -0.3638 -0.2411 -0.3898
   59MOL   C15817674   6.520   0.036   6.488 -1.1757 -0.2666 -0.4574
   59MOL   H15917675   6.683   0.035   6.356  1.7046 -1.8465  2.0021
   59MOL   H16017676   7.061   0.006   6.596  1.0620  1.3984  0.5386
   59MOL   H16117677   6.964   0.136   6.678 -1.1305  0.9133 -1.5680
   59MOL   H16217678   6.967   0.000   6.848  0.4000 -0.9575 -0.1189
   59MOL   H16317679   6.836   7.868   6.768 -0.3869  0.5003  1.1280
   59MOL   H16417680   7.004   7.796   6.759  0.7213  0.4828  0.0709
   59MOL   H16517681   6.492   0.113   6.560  1.7598 -1.0141  1.5886
   59MOL   H16617682   6.444   0.025   6.411 -1.4168 -1.8173 -0.0090
   59MOL   C16717683   6.537   7.838   6.542  0.8099 -1.1407  0.2793
   59MOL   O16817684   6.403   7.797   6.581 -0.8202 -0.0291 -0.0680
   59MOL   C16917685   6.361   7.806   6.701  0.9898 -0.1196 -0.1462
   59MOL   O17017686   6.423   7.858   6.793 -0.2463 -0.5701  0.4938
   59MOL   C17117687   6.223   7.749   6.726 -0.6264 -0.7896 -0.2216
   59MOL   C17217688   6.111   7.802   6.639  0.3416 -0.3398  0.2358
   59MOL   C17317689   6.579   7.738   6.439 -0.1067 -0.1066 -0.3887
   59MOL   H17417690   6.601   7.846   6.630  1.2717  1.8354 -0.2891
   59MOL   H17517691   6.223   7.640   6.720 -2.3210 -0.7268 -1.7794
   59MOL   H17617692   6.190   7.773   6.827 -0.8316 -2.8118  0.2092
   59MOL   H17717693   6.125   7.764   6.538  2.9283  1.2036 -0.0384
   59MOL   H17817694   6.015   7.765   6.676 -1.2048  0.7456 -2.4967
   59MOL   H17917695   6.106   7.911   6.627  0.4317 -0.6671 -3.0670
   59MOL   H18017696   6.502   7.728   6.363 -0.6483 -0.3803  0.1981
   59MOL   H18117697   6.657   7.793   6.386 -1.0419  1.8664  0.2348
   59MOL   C18217698   6.633   7.604   6.496 -0.9214 -0.1892  0.2311
   59MOL   O18317699   6.702   7.527   6.388  0.4277  0.0381 -0.5708
   59MOL   C18417700   6.636   7.447   6.304 -0.3972 -0.2037  0.0945
   59MOL   O18517701   6.514   7.434   6.301 -0.0431  0.0372  0.2262
   59MOL   C18617702   6.732   7.359   6.221 -0.2426  0.4844  0.3111
   59MOL   C18717703   6.654   7.274   6.119 -0.0693 -0.6285  0.2706
   59MOL   C18817704   6.760   7.616   6.590 -0.7055  0.1366  0.1652
   59MOL   H18917705   6.547   7.553   6.538 -1.3171  0.0088 -0.3322
   59MOL   H19017706   6.809   7.413   6.165  0.7750 -1.5986 -0.3755
   59MOL   H19117707   6.790   7.287   6.280 -0.8418 -0.9005 -0.7523
   59MOL   H19217708   6.623   7.311   6.021  2.4493 -2.3079 -1.2088
   59MOL   H19317709   6.711   7.182   6.103  0.3102 -0.3355 -0.0791
   59MOL   H19417710   6.557   7.244   6.159 -0.6087  2.2894  1.3055
   59MOL   H19517711   6.845   7.650   6.530 -1.9422  3.3066  0.1038
   59MOL   H19617712   6.739   7.707   6.647 -0.5412 -0.5726  1.3650
   59MOL   C19717713   6.797   7.499   6.679  0.1316 -0.7545 -0.2475
   59MOL   O19817714   6.864   7.394   6.601  0.5975  0.3282 -0.7253
   59MOL   C19917715   6.820   7.269   6.593 -0.4209 -0.5105  0.5677
   59MOL   O20017716   6.723   7.222   6.649 -0.9921  0.1406 -0.0696
   59MOL   C20117717   6.914   7.184   6.507 -0.5533 -0.0195  0.5458
   59MOL   C20217718   6.996   7.081   6.587 -0.1558 -0.4851  0.3946
   59MOL   C20317719   6.901   7.543   6.787 -0.4294  0.0825  0.7505
   59MOL   H20417720   6.702   7.459   6.715 -0.8277  1.4148 -0.2941
   59MOL   H20517721   6.862   7.146   6.419 -0.8819  2.2596 -0.2770
   59MOL   H20617722   6.980   7.264   6.474  0.9095 -1.6232 -0.5564
   59MOL   H20717723   7.052   7.128   6.667  0.1373 -0.8427  0.3995
   59MOL   H20817724   6.927   7.018   6.643 -0.7880  1.9840  2.4639
   59MOL   H20917725   7.063   7.015   6.532  0.5667  0.0932  0.5792
   59MOL   H21017726   6.990   7.581   6.738 -0.6690 -0.9123 -0.4733
   59MOL   H21117727   6.855   7.627   6.840 -3.6262 -1.6670  0.9174
   59MOL   C21217728   6.938   7.450   6.904  0.5528 -0.5080 -0.0421
   59MOL   O21317729   7.010   7.525   6.999 -0.0676  0.0514 -0.2894
   59MOL   C21417730   7.110   7.472   7.069  0.2856  0.1570  0.2267
   59MOL   O21517731   7.153   7.358   7.057  0.2486  0.2143 -0.4392
   59MOL   C21617732   7.164   7.570   7.174 -0.3848 -0.1093 -0.5638
   59MOL   C21717733   7.216   7.701   7.112 -0.3748 -0.6626 -0.0128
   59MOL   C21817734   6.822   7.368   6.974 -0.1519 -0.2904 -0.7632
   59MOL   H21917735   7.007   7.376   6.863  0.4099  0.7936 -2.7524
   59MOL   H22017736   7.082   7.606   7.236  0.6605  0.5743  0.4332
   59MOL   H22117737   7.240   7.535   7.243 -1.1295 -1.0512 -0.2132
   59MOL   H22217738   7.322   7.690   7.089 -0.1371  0.6824  0.4201
   59MOL   H22317739   7.169   7.731   7.018  0.9878  0.4689 -0.3409
   59MOL   H22417740   7.224   7.785   7.181  0.4432 -0.5122 -0.2855
   59MOL   H22517741   6.769   7.431   7.045  0.1124 -1.4412  0.4789
   59MOL   H22617742   6.746   7.344   6.899 -1.0307 -1.9496  0.6349
   59MOL   C22717743   6.860   7.241   7.049 -0.6210  0.8543  0.0940
   59MOL   O22817744   6.758   7.193   7.130  0.4779  0.3106 -0.4367
   59MOL   C22917745   6.737   7.248   7.252  0.4230 -0.3622 -0.0817
   59MOL   O23017746   6.800   7.343   7.299 -0.5536  0.2923 -0.3642
   59MOL   C23117747   6.630   7.187   7.337  0.1651  0.1650  0.1766
   59MOL   C23217748   6.652   7.035   7.343  1.2801  0.0539  0.3312
   59MOL   C23317749   6.889   7.127   6.951 -0.3796 -0.7744  0.0277
   59MOL   H23417750   6.947   7.242   7.115 -1.1576  2.1408  0.8000
   59MOL   H23517751   6.645   7.232   7.435  1.0824  1.4915 -0.5613
   59MOL   H23617752   6.532   7.220   7.300 -0.7928 -1.9554  0.7507
   59MOL   H23717753   6.608   6.985   7.257  1.5332 -0.7522  0.6645
   59MOL   H23817754   6.754   6.995   7.347  1.4426  0.1339 -2.4900
   59MOL   H23917755   6.598   6.992   7.428 -1.2753  1.3821 -0.5778
   59MOL   H24017756   6.805   7.123   6.881 -0.2161  1.0351 -0.3024
   59MOL   H24117757   6.976   7.156   6.893  1.0168 -2.8657  1.0269
   59MOL   C24217758   6.911   6.986   7.015  0.4659  0.2749 -0.4481
   59MOL   O24317759   6.899   6.887   6.910  0.3606  0.4154 -0.3088
   59MOL   C24417760   6.782   6.815   6.902  1.5415 -0.0979 -0.1774
   59MOL   O24517761   6.674   6.836   6.955  0.2261 -0.1824 -0.2533
   59MOL   C24617762   6.786   6.700   6.803  0.3952  0.1020  0.2302
   59MOL   C24717763   6.757   6.752   6.654  0.4344  0.3101 -0.3794
   59MOL   C24817764   7.046   6.981   7.079 -0.4954 -0.4114  0.2291
   59MOL   H24917765   6.826   6.974   7.082 -1.1779 -2.8856 -2.9509
   59MOL   H25017766   6.882   6.649   6.811 -1.3405 -3.1959  0.8967
   59MOL   H25117767   6.709   6.627   6.826  0.1094 -0.0670 -1.1902
   59MOL   H25217768   6.763   6.861   6.645 -1.8134  0.5581  0.6139
   59MOL   H25317769   6.820   6.693   6.588 -0.3877 -1.6310  0.5487
   59MOL   H25417770   6.653   6.720   6.652  1.0582 -1.8965  0.8771
   59MOL   H25517771   7.124   7.018   7.013 -0.8257  0.0338  0.0876
   59MOL   H25617772   7.052   7.050   7.163 -1.5248 -2.2044  1.8172
   59MOL   C25717773   7.088   6.837   7.133 -0.8024  0.3519  0.2817
   59MOL   O25817774   7.214   6.853   7.201 -1.1440  0.3716 -0.1418
   59MOL   C25917775   7.303   6.750   7.185  0.0888 -0.0122 -0.6772
   59MOL   O26017776   7.278   6.641   7.126 -0.2291 -0.0858 -0.0258
   59MOL   C26117777   7.440   6.770   7.247  0.4986  0.0785  0.0467
   59MOL   C26217778   7.557   6.774   7.147 -0.0273 -0.6078 -0.9938
   59MOL   C26317779   6.969   6.779   7.230  0.0287  0.1193  0.0868
   59MOL   H26417780   7.100   6.785   7.038  0.5445  2.1390 -0.5590
   59MOL   H26517781   7.439   6.872   7.286  0.9217  0.2907 -0.4769
   59MOL   H26617782   7.454   6.712   7.338 -0.7846  0.4091  0.4532
   59MOL   H26717783   7.529   6.813   7.050  1.1990 -1.2988 -1.6431
   59MOL   H26817784   7.636   6.835   7.191  1.5513 -2.8830 -0.5903
   59MOL   H26917785   7.601   6.675   7.135 -1.0109 -1.3152  0.9537
   59MOL   H27017786   6.969   6.812   7.333 -0.2350  0.0564  0.1081
   59MOL   H27117787   6.874   6.813   7.190  1.3661  1.1432 -2.3314
   59MOL   C27217788   6.970   6.622   7.241  0.0699 -0.3970 -0.0337
   59MOL   O27317789   6.855   6.595   7.320  0.1499 -0.3673  0.7047
   59MOL   C27417790   6.863   6.602   7.448  0.5154 -0.5729 -0.4805
   59MOL   O27517791   6.967   6.608   7.510 -0.3538  0.5187 -0.2802
   59MOL   C27617792   6.743   6.560   7.521 -0.3540 -0.4891  0.1549
   59MOL   C27717793   6.617   6.654   7.492 -0.5415 -0.0167  0.0420
   59MOL   C27817794   6.944   6.545   7.103  0.3447 -1.0764 -0.0026
   59MOL   H27917795   7.061   6.579   7.283 -0.8774  0.3964  2.9804
   59MOL   H28017796   6.729   6.456   7.489 -0.3313 -0.2248 -0.7295
   59MOL   H28117797   6.767   6.565   7.627 -0.2642 -1.3973  0.1813
   59MOL   H28217798   6.655   6.754   7.514  2.5902 -1.1849  0.1775
   59MOL   H28317799   6.582   6.644   7.389 -1.3204 -2.2623  0.4858
   59MOL   H28417800   6.540   6.652   7.569  1.9978  3.3201  2.8545
   59MOL   H28517801   6.840   6.551   7.072  0.8743  0.4880 -1.5375
   59MOL   H28617802   7.011   6.588   7.028  1.7361  2.0026  2.8108
   59MOL   C28717803   6.970   6.395   7.108  0.1693  0.2203  0.0436
   59MOL   O28817804   6.901   6.330   7.002 -0.2481 -0.4308  0.2296
   59MOL   C28917805   6.776   6.280   7.015 -0.7166  0.1482 -0.2849
   59MOL   O29017806   6.691   6.304   7.107 -0.3491  0.2064 -0.1238
   59MOL   C29117807   6.737   6.202   6.890  0.5482 -0.7101 -0.4494
   59MOL   C29217808   6.590   6.160   6.886 -0.1024 -0.0938  0.0074
   59MOL   C29317809   7.124   6.352   7.115 -0.2192 -0.7820 -0.6928
   59MOL   H29417810   6.925   6.368   7.204 -0.3973 -0.0225 -0.2901
   59MOL   H29517811   6.765   6.263   6.803  0.3798 -0.9976 -0.7069
   59MOL   H29617812   6.802   6.116   6.879  0.1679 -1.4041  2.5433
   59MOL   H29717813   6.570   6.129   6.989 -1.9200  0.5847 -0.1214
   59MOL   H29817814   6.530   6.244   6.850 -0.0640 -0.3226 -0.5835
   59MOL   H29917815   6.586   6.073   6.821 -0.9381  0.9134 -1.2984
   59MOL   H30017816   7.188   6.392   7.194 -0.8264 -1.7025  0.2785
   59MOL   H30117817   7.126   6.244   7.117 -0.9061 -0.7958 -0.5856
   59MOL   H30217818   7.185   6.385   7.031 -0.0468 -0.6816 -0.5279
   60MOL     C117819   3.823   5.591   2.239 -0.3107 -0.1888 -0.4559
   60MOL     O217820   3.717   5.502   2.187  0.5690  0.2375  0.0070
   60MOL     C317821   3.582   5.523   2.211  0.2962  0.4459 -0.0680
   60MOL     O417822   3.534   5.612   2.284 -0.2320 -0.2913 -0.3215
   60MOL     C517823   3.495   5.418   2.141 -0.1112 -0.3267  0.4472
   60MOL     C617824   3.350   5.421   2.176  1.3759 -0.5095  0.4785
   60MOL     C717825   3.951   5.518   2.255  0.2021 -0.2338  1.1288
   60MOL     H817826   3.800   5.623   2.341  0.8473 -1.0726  0.0905
   60MOL     H917827   3.522   5.419   2.035 -5.0255 -1.0733 -0.9453
   60MOL    H1017828   3.532   5.323   2.178 -0.9172 -0.6150  0.5329
   60MOL    H1117829   3.299   5.502   2.124  2.0421 -1.1791 -1.2701
   60MOL    H1217830   3.304   5.329   2.141  1.1854 -0.2081 -0.0686
   60MOL    H1317831   3.321   5.431   2.281 -0.0572  0.8247 -0.0149
   60MOL    H1417832   3.933   5.432   2.319  2.4098 -2.1179 -0.6598
   60MOL    H1517833   3.975   5.473   2.159 -1.6778 -0.7285  0.8854
   60MOL    H1617834   3.837   5.688   2.192  0.3125 -0.8062 -1.5512
   60MOL    C1717835   4.070   5.601   2.318  1.0497 -0.0870  0.6665
   60MOL    O1817836   4.018   5.648   2.444  0.1710 -0.2182  0.0996
   60MOL    C1917837   4.073   5.757   2.500  0.3380  0.4067 -0.0327
   60MOL    O2017838   4.146   5.836   2.445  0.4835 -0.0501  0.5857
   60MOL    C2117839   4.036   5.788   2.643  0.1146 -1.1443  0.1764
   60MOL    C2217840   3.883   5.828   2.656  0.1883 -0.1664  0.2597
   60MOL    C2317841   4.191   5.513   2.361  0.3178  0.4680  0.2748
   60MOL    H2417842   4.106   5.690   2.267 -0.3962  0.5057  0.6681
   60MOL    H2517843   4.071   5.698   2.695  1.4939 -1.5647 -1.4509
   60MOL    H2617844   4.102   5.866   2.679 -0.6730 -0.8168  0.9458
   60MOL    H2717845   3.828   5.740   2.624  1.7625 -0.5509 -1.4903
   60MOL    H2817846   3.856   5.837   2.762 -2.0957 -0.6275 -0.2560
   60MOL    H2917847   3.867   5.924   2.608  3.2107  0.5042  0.4755
   60MOL    H3017848   4.272   5.577   2.397  1.0861 -0.3987  0.0973
   60MOL    H3117849   4.161   5.453   2.447  0.3929 -1.0348 -0.7262
   60MOL    C3217850   4.253   5.427   2.248  0.6178  0.0818  0.6418
   60MOL    O3317851   4.307   5.490   2.129  0.2318  0.0475 -0.6308
   60MOL    C3417852   4.286   5.442   2.010 -0.3709 -0.2379  0.5740
   60MOL    O3517853   4.199   5.358   1.984  0.3464  0.1118 -0.4149
   60MOL    C3617854   4.379   5.505   1.908 -0.1112  0.4169  0.2847
   60MOL    C3717855   4.526   5.463   1.936 -1.2221 -0.2927  0.2785
   60MOL    C3817856   4.366   5.343   2.322  0.0130 -0.4418 -0.4241
   60MOL    H3917857   4.169   5.361   2.225 -1.1366  1.8631  1.7454
   60MOL    H4017858   4.332   5.468   1.817 -0.6969 -0.9381  1.1221
   60MOL    H4117859   4.381   5.614   1.907  2.3362  0.4071 -1.2597
   60MOL    H4217860   4.573   5.496   2.029 -1.1056  1.2539 -0.3132
   60MOL    H4317861   4.544   5.357   1.953 -0.7766  0.1808  2.9474
   60MOL    H4417862   4.584   5.501   1.852 -0.3391 -2.1750  0.0263
   60MOL    H4517863   4.444   5.419   2.326 -1.6604  1.3254 -0.9269
   60MOL    H4617864   4.353   5.321   2.428 -0.9494  0.7157 -0.2974
   60MOL    C4717865   4.414   5.211   2.262  0.0171 -0.1149 -0.0162
   60MOL    O4817866   4.531   5.161   2.330 -0.5115  0.1107  0.0834
   60MOL    C4917867   4.654   5.170   2.273 -0.4741 -0.5512  0.6190
   60MOL    O5017868   4.673   5.243   2.178 -0.8362  0.1688  0.2075
   60MOL    C5117869   4.769   5.095   2.344 -0.7535  0.5221  0.8890
   60MOL    C5217870   4.723   4.961   2.402 -0.1859  0.3873  0.4120
   60MOL    C5317871   4.317   5.090   2.255 -0.1958  0.6413 -0.9801
   60MOL    H5417872   4.438   5.245   2.161  1.9195 -0.7950  0.1911
   60MOL    H5517873   4.851   5.079   2.274 -0.7357  2.6530  0.3983
   60MOL    H5617874   4.806   5.167   2.416 -2.7037  0.4630  1.9909
   60MOL    H5717875   4.663   4.965   2.493  0.3018  0.7955  0.7237
   60MOL    H5817876   4.670   4.903   2.327 -1.6030  1.5906  0.4664
   60MOL    H5917877   4.816   4.906   2.420  0.3685  1.0978 -0.2447
   60MOL    H6017878   4.375   5.000   2.280 -1.8017 -1.1783 -3.5960
   60MOL    H6117879   4.244   5.101   2.335  0.2129  1.0926 -0.6635
   60MOL    C6217880   4.249   5.059   2.124 -0.5571 -0.9113  0.2529
   60MOL    O6317881   4.352   5.042   2.027 -0.2422  0.0298  0.2870
   60MOL    C6417882   4.333   5.050   1.899  0.7133 -0.7640  0.8573
   60MOL    O6517883   4.221   5.043   1.843 -0.4803  0.0844  0.3878
   60MOL    C6617884   4.463   5.074   1.820 -0.0744  0.2709 -0.2644
   60MOL    C6717885   4.593   5.054   1.894 -0.1753 -0.5491 -0.2939
   60MOL    C6817886   4.169   4.923   2.126 -0.1838 -0.3671 -0.1371
   60MOL    H6917887   4.181   5.134   2.084 -1.7609 -2.1966 -0.1615
   60MOL    H7017888   4.473   5.005   1.737 -1.1283 -2.1990  1.5885
   60MOL    H7117889   4.464   5.176   1.781 -1.1308  0.4802  0.2462
   60MOL    H7217890   4.665   5.060   1.812  0.5175 -0.5657  0.3052
   60MOL    H7317891   4.597   5.137   1.964 -1.1463  0.8253 -1.8259
   60MOL    H7417892   4.603   4.952   1.931  1.1478 -0.0007  0.9140
   60MOL    H7517893   4.137   4.894   2.026 -0.1396  2.5374 -1.0165
   60MOL    H7617894   4.243   4.846   2.147 -0.8280 -0.6452  1.2157
   60MOL    C7717895   4.051   4.920   2.212 -0.4957 -0.8575 -0.5184
   60MOL    O7817896   3.938   4.974   2.149  0.9749  0.5140 -1.0183
   60MOL    C7917897   3.909   5.109   2.168 -0.1598 -0.1424 -0.7293
   60MOL    O8017898   3.970   5.189   2.240 -0.2867 -0.1370 -0.3936
   60MOL    C8117899   3.780   5.150   2.089  0.3317  0.2041 -0.1911
   60MOL    C8217900   3.783   5.134   1.937 -0.3567 -0.2258 -0.3336
   60MOL    C8317901   4.011   4.781   2.259  0.3878 -0.1473  0.2480
   60MOL    H8417902   4.063   4.981   2.302  0.5623 -2.4238  0.4179
   60MOL    H8517903   3.690   5.106   2.131 -0.9446  2.9827  0.1605
   60MOL    H8617904   3.754   5.252   2.119 -1.5940  1.0310 -4.3783
   60MOL    H8717905   3.796   5.030   1.907  0.4454 -0.2069 -0.0368
   60MOL    H8817906   3.681   5.159   1.906 -0.3302 -0.0582 -0.2878
   60MOL    H8917907   3.840   5.218   1.898 -1.2246  0.6460  0.2485
   60MOL    H9017908   4.012   4.718   2.170 -1.8468  0.7777 -0.4569
   60MOL    H9117909   4.087   4.732   2.320  0.9590 -0.9325 -1.0876
   60MOL    C9217910   3.872   4.777   2.322  0.3362 -0.0437 -0.5412
   60MOL    O9317911   3.851   4.640   2.354 -0.2760 -0.0156  0.6072
   60MOL    C9417912   3.733   4.582   2.338 -0.0085  0.2080  0.7571
   60MOL    O9517913   3.623   4.637   2.312  0.4327  0.5189  0.2110
   60MOL    C9617914   3.733   4.427   2.378 -0.5083 -0.0900  0.1801
   60MOL    C9717915   3.603   4.352   2.395  1.1983 -0.7157  0.2353
   60MOL    C9817916   3.845   4.875   2.445 -0.1597  0.1791  0.2799
   60MOL    H9917917   3.796   4.801   2.247 -0.4482 -1.2317 -0.1363
   60MOL   H10017918   3.810   4.376   2.322 -0.8185 -0.0592 -0.2756
   60MOL   H10117919   3.787   4.423   2.473 -1.4456  0.6488  0.7606
   60MOL   H10217920   3.527   4.416   2.439 -0.9004 -2.5588 -0.6542
   60MOL   H10317921   3.579   4.321   2.293  2.1538 -0.6872 -0.0022
   60MOL   H10417922   3.619   4.262   2.455 -0.4169 -0.9300  0.3668
   60MOL   H10517923   3.882   4.970   2.407 -0.3101  0.6685  1.3446
   60MOL   H10617924   3.739   4.882   2.468 -0.4435 -1.5554 -0.3640
   60MOL   C10717925   3.918   4.842   2.571 -0.4811 -0.4780 -0.3736
   60MOL   O10817926   3.918   4.955   2.664 -0.3931 -0.0241  0.3254
   60MOL   C10917927   4.000   5.059   2.652 -0.2851 -0.4658  0.2883
   60MOL   O11017928   4.071   5.075   2.550 -0.2174  0.4795 -0.2729
   60MOL   C11117929   3.994   5.159   2.763 -0.1891 -0.5608  0.1786
   60MOL   C11217930   4.063   5.296   2.739 -0.5712  0.2156 -0.0486
   60MOL   C11317931   3.853   4.730   2.653 -0.1051  0.5477  0.2477
   60MOL   H11417932   4.017   4.801   2.550 -0.3747  0.1028 -1.0075
   60MOL   H11517933   3.893   5.184   2.797  0.0196  0.7426 -0.1335
   60MOL   H11617934   4.055   5.105   2.835  1.0348  0.8962  0.2371
   60MOL   H11717935   4.170   5.277   2.746 -0.7896 -1.4372 -0.8535
   60MOL   H11817936   4.031   5.349   2.649 -1.1947 -0.1158 -0.0265
   60MOL   H11917937   4.040   5.354   2.828  0.3021 -0.4509  0.6097
   60MOL   H12017938   3.764   4.765   2.705  0.4606  3.1401 -0.4464
   60MOL   H12117939   3.807   4.652   2.593 -2.8163  1.1329  1.5108
   60MOL   C12217940   3.950   4.662   2.746  0.0932 -0.2430  0.8175
   60MOL   O12317941   3.869   4.639   2.866  0.1864  0.2737 -0.0836
   60MOL   C12417942   3.877   4.722   2.968  0.1424  0.2511 -0.8631
   60MOL   O12517943   3.943   4.830   2.975  0.5947 -0.1113  0.8825
   60MOL   C12617944   3.790   4.678   3.085  0.3180 -0.3860 -0.4256
   60MOL   C12717945   3.643   4.670   3.057 -0.2556  0.0219 -0.4520
   60MOL   C12817946   4.007   4.529   2.689 -0.0040  1.3037 -0.5005
   60MOL   H12917947   4.028   4.736   2.769 -0.7995  1.2866 -0.9033
   60MOL   H13017948   3.838   4.586   3.118 -1.5537 -0.3898  2.4167
   60MOL   H13117949   3.819   4.740   3.169 -1.6787  1.7946 -1.2743
   60MOL   H13217950   3.619   4.618   2.964  0.3803 -1.6458  0.2938
   60MOL   H13317951   3.594   4.629   3.145 -0.7686 -1.8806 -1.5951
   60MOL   H13417952   3.616   4.776   3.056 -0.6546 -0.0513  0.9276
   60MOL   H13517953   3.933   4.453   2.664 -0.5919  1.6548  0.1754
   60MOL   H13617954   4.045   4.560   2.591 -0.2313  0.7577 -0.7622
   60MOL   C13717955   4.128   4.465   2.757 -0.1845  0.0096 -0.4836
   60MOL   O13817956   4.080   4.393   2.868  0.2060  0.9339  0.3344
   60MOL   C13917957   4.132   4.415   2.994  0.0161  0.5899  0.1358
   60MOL   O14017958   4.230   4.482   3.016 -0.0558 -0.4812  0.3690
   60MOL   C14117959   4.054   4.345   3.102 -0.4181  0.4183 -0.3167
   60MOL   C14217960   4.139   4.335   3.229 -0.6377  0.1455 -0.7871
   60MOL   C14317961   4.204   4.362   2.673  0.0024 -0.2346  0.2280
   60MOL   H14417962   4.190   4.549   2.787 -0.1038  0.6771 -2.4665
   60MOL   H14517963   3.950   4.375   3.116 -1.5615 -2.8946 -1.1307
   60MOL   H14617964   4.032   4.240   3.083 -1.9650  0.2487  2.1621
   60MOL   H14717965   4.089   4.279   3.308  1.6825  0.7559  1.1722
   60MOL   H14817966   4.233   4.282   3.213 -0.2104  0.6630 -0.0441
   60MOL   H14917967   4.173   4.431   3.270 -0.7309 -0.0007 -0.3612
   60MOL   H15017968   4.271   4.318   2.747  0.0883  1.0713  0.9339
   60MOL   H15117969   4.138   4.282   2.642  0.1017 -0.8526  1.5995
   60MOL   C15217970   4.279   4.417   2.553 -0.0602  0.0629 -0.9060
   60MOL   O15317971   4.416   4.434   2.586 -0.6133  0.4849  0.2072
   60MOL   C15417972   4.455   4.558   2.635  0.0541 -0.3540 -0.5505
   60MOL   O15517973   4.377   4.649   2.642  0.3370  0.2200 -0.4837
   60MOL   C15617974   4.607   4.557   2.680  0.3662 -0.3211  0.3751
   60MOL   C15717975   4.664   4.687   2.744  0.4126 -0.2632 -0.4595
   60MOL   C15817976   4.272   4.317   2.436 -0.5919 -0.3070 -0.1465
   60MOL   H15917977   4.237   4.511   2.516  2.2062  2.1675  1.6244
   60MOL   H16017978   4.620   4.479   2.755 -1.5301  1.4779  2.6581
   60MOL   H16117979   4.664   4.524   2.593  2.3053  2.6124  0.4421
   60MOL   H16217980   4.614   4.704   2.839  0.4182 -0.5841 -0.3994
   60MOL   H16317981   4.768   4.673   2.772  0.6632 -0.9374 -1.6966
   60MOL   H16417982   4.651   4.771   2.675 -0.8131 -0.8779 -1.0078
   60MOL   H16517983   4.347   4.238   2.436  0.9193  1.0894  0.2176
   60MOL   H16617984   4.174   4.269   2.434 -0.9097  0.3634 -2.7036
   60MOL   C16717985   4.285   4.378   2.293 -0.0870 -0.3331 -0.2406
   60MOL   O16817986   4.416   4.437   2.284 -0.2071  0.2596  0.5609
   60MOL   C16917987   4.428   4.575   2.277 -0.1709  0.2098  0.2634
   60MOL   O17017988   4.330   4.652   2.286 -0.0219  0.2129 -0.5067
   60MOL   C17117989   4.569   4.623   2.252  0.1968 -0.1130 -0.5343
   60MOL   C17217990   4.681   4.516   2.224  0.2465  0.0109  0.0697
   60MOL   C17317991   4.283   4.266   2.181 -0.4705 -0.5724  0.1595
   60MOL   H17417992   4.216   4.460   2.272  1.0488  0.3602 -1.3398
   60MOL   H17517993   4.566   4.691   2.166 -0.7072  0.0408 -0.3808
   60MOL   H17617994   4.600   4.700   2.322  0.0490 -1.6530  1.2489
   60MOL   H17717995   4.776   4.569   2.225  1.4806 -2.1418 -0.4986
   60MOL   H17817996   4.666   4.437   2.298  1.1948 -0.7861 -0.5844
   60MOL   H17917997   4.671   4.469   2.126  0.6292 -0.2966  0.1784
   60MOL   H18017998   4.359   4.293   2.108 -1.3412 -0.8688 -0.8720
   60MOL   H18117999   4.324   4.172   2.219 -1.7352 -1.5038 -0.7382
   60MOL   C18218000   4.142   4.233   2.125 -0.3459  0.0260 -0.0212
   60MOL   O18318001   4.042   4.204   2.225 -0.3657  0.2492  0.3298
   60MOL   C18418002   3.993   4.081   2.243 -0.5809  0.3781 -0.2374
   60MOL   O18518003   4.033   3.978   2.186 -0.8334  0.0533 -0.1230
   60MOL   C18618004   3.887   4.073   2.346 -0.0823 -0.0125  0.8672
   60MOL   C18718005   3.960   4.075   2.472  0.5419 -0.2005 -0.6641
   60MOL   C18818006   4.097   4.346   2.032 -1.0997 -0.2554 -0.5363
   60MOL   H18918007   4.171   4.149   2.062  0.2504 -0.1986  0.5418
   60MOL   H19018008   3.824   4.161   2.332 -1.0366 -0.4307  2.4368
   60MOL   H19118009   3.827   3.982   2.332 -0.7288  0.5270  0.0091
   60MOL   H19218010   3.977   4.175   2.510  0.5294 -0.2416 -0.5508
   60MOL   H19318011   3.894   4.022   2.541  0.7734  0.2825 -0.0661
   60MOL   H19418012   4.058   4.028   2.463  0.6649  0.1960 -1.4502
   60MOL   H19518013   4.072   4.438   2.084  0.6811  0.2490 -0.5374
   60MOL   H19618014   4.184   4.379   1.976 -2.5832  1.3279 -1.9383
   60MOL   C19718015   3.996   4.297   1.926 -0.3205  0.0215  0.2425
   60MOL   O19818016   3.865   4.291   1.979 -0.3676 -0.1913 -0.1961
   60MOL   C19918017   3.775   4.189   1.950  0.0156 -0.6395 -0.3169
   60MOL   O20018018   3.800   4.089   1.882 -0.2837  0.1626 -0.2202
   60MOL   C20118019   3.635   4.213   2.009 -0.1669 -0.6470  0.6543
   60MOL   C20218020   3.578   4.353   2.000 -0.0317 -0.3401  0.0541
   60MOL   C20318021   3.997   4.380   1.798  0.8980  0.9207 -0.4367
   60MOL   H20418022   4.027   4.198   1.894 -0.0836 -0.0893  0.8198
   60MOL   H20518023   3.562   4.149   1.960 -1.2571  1.7838 -0.9513
   60MOL   H20618024   3.627   4.179   2.113 -2.9397 -2.5773 -0.1345
   60MOL   H20718025   3.494   4.374   2.066 -0.2542 -0.8080 -0.0777
   60MOL   H20818026   3.652   4.425   2.035  0.1615 -0.8915  0.8092
   60MOL   H20918027   3.549   4.378   1.898 -0.8554 -1.1959  0.0719
   60MOL   H21018028   3.922   4.349   1.726  0.8739  0.7261 -0.3275
   60MOL   H21118029   3.957   4.477   1.827 -2.4287 -0.0568 -1.5722
   60MOL   C21218030   4.134   4.374   1.723  0.7653 -0.0455 -0.8085
   60MOL   O21318031   4.160   4.242   1.671 -0.2872  0.3194  0.0942
   60MOL   C21418032   4.262   4.171   1.719  0.3668  0.5399  0.0069
   60MOL   O21518033   4.342   4.209   1.804  0.1722 -0.2750  0.3381
   60MOL   C21618034   4.273   4.028   1.679  0.3322  0.3708  0.1583
   60MOL   C21718035   4.242   4.005   1.528 -0.1684  0.1498  0.1776
   60MOL   C21818036   4.141   4.468   1.601  0.6794  0.4639 -0.1499
   60MOL   H21918037   4.220   4.409   1.779  1.2122  0.3120 -1.7088
   60MOL   H22018038   4.376   3.995   1.694 -0.4447 -2.3878 -0.1471
   60MOL   H22118039   4.206   3.977   1.748  2.2535 -1.4025  0.7719
   60MOL   H22218040   4.229   3.899   1.509 -0.2902 -0.1737  1.9782
   60MOL   H22318041   4.146   4.044   1.494 -0.3560 -0.5241 -0.0704
   60MOL   H22418042   4.334   4.027   1.474 -1.3094 -0.8461 -2.2223
   60MOL   H22518043   4.231   4.452   1.543 -0.0841 -1.1047 -0.9305
   60MOL   H22618044   4.058   4.438   1.537 -0.3802 -0.4589  1.6185
   60MOL   C22718045   4.135   4.624   1.623 -0.0863  0.5128 -0.4479
   60MOL   O22818046   4.263   4.647   1.682 -0.2226  0.2181  0.0915
   60MOL   C22918047   4.287   4.674   1.820 -0.4789  0.0320  0.7722
   60MOL   O23018048   4.202   4.674   1.910  0.3129  0.4134  0.6063
   60MOL   C23118049   4.430   4.708   1.857 -0.5003  0.0280 -0.3541
   60MOL   C23218050   4.528   4.585   1.861 -0.1781  0.4745  0.4054
   60MOL   C23318051   4.135   4.704   1.503  0.0953  0.2202 -0.1415
   60MOL   H23418052   4.050   4.648   1.686  0.3514  0.3210  0.2259
   60MOL   H23518053   4.455   4.772   1.772  0.4288  0.3108  0.1273
   60MOL   H23618054   4.441   4.763   1.950  0.3837 -0.6504 -0.0491
   60MOL   H23718055   4.628   4.628   1.872 -0.6775  1.4436  1.1946
   60MOL   H23818056   4.504   4.524   1.948 -3.2046  0.0807 -0.6567
   60MOL   H23918057   4.533   4.522   1.773  0.6759  2.5304 -1.0545
   60MOL   H24018058   4.214   4.671   1.436 -0.0549 -2.7480  1.0730
   60MOL   H24118059   4.041   4.679   1.453  0.1022  1.7839 -0.9597
   60MOL   C24218060   4.141   4.853   1.539 -0.5229  0.0799 -1.0661
   60MOL   O24318061   4.124   4.923   1.420  0.2692 -0.4340  0.4494
   60MOL   C24418062   4.222   5.017   1.392 -0.4401 -0.0511  0.1573
   60MOL   O24518063   4.313   5.045   1.469 -0.0200 -0.1483  0.1073
   60MOL   C24618064   4.209   5.082   1.262  0.2718  0.6429  0.1066
   60MOL   C24718065   4.178   5.228   1.268  0.0385 -0.6676  0.7642
   60MOL   C24818066   4.031   4.912   1.637 -0.9532  0.5006  0.1240
   60MOL   H24918067   4.237   4.871   1.586  0.7932 -2.3291 -2.7645
   60MOL   H25018068   4.309   5.061   1.226  0.4399 -2.0315  2.0272
   60MOL   H25118069   4.136   5.023   1.206  0.6679 -0.9613  1.2677
   60MOL   H25218070   4.071   5.249   1.268  0.0905 -0.3989  0.5064
   60MOL   H25318071   4.225   5.273   1.357  2.0501 -0.6462 -0.2795
   60MOL   H25418072   4.220   5.270   1.177 -1.8889 -0.7255 -0.1700
   60MOL   H25518073   4.057   4.877   1.737  0.4245 -2.1972 -1.1092
   60MOL   H25618074   4.049   5.019   1.646  1.8965 -0.1159  2.6174
   60MOL   C25718075   3.889   4.886   1.595 -0.0918  0.0333 -0.5262
   60MOL   O25818076   3.824   4.843   1.711  0.3742 -0.0983 -0.1212
   60MOL   C25918077   3.762   4.720   1.712 -0.2465 -0.1009 -0.0966
   60MOL   O26018078   3.774   4.630   1.624  0.2451  0.2693 -0.4451
   60MOL   C26118079   3.687   4.696   1.848  0.8285  0.1247 -0.3046
   60MOL   C26218080   3.792   4.694   1.965 -0.3766 -0.4588 -0.4250
   60MOL   C26318081   3.807   5.011   1.551  0.1330  0.1948  0.5327
   60MOL   H26418082   3.894   4.814   1.513 -1.2174  0.2655 -0.8109
   60MOL   H26518083   3.614   4.774   1.867 -0.0092  0.0481 -2.9798
   60MOL   H26618084   3.639   4.599   1.839  3.1870 -0.8365 -3.3663
   60MOL   H26718085   3.735   4.672   2.056 -1.8534  1.4967 -0.8465
   60MOL   H26818086   3.871   4.623   1.940 -0.2953 -0.1602 -1.0150
   60MOL   H26918087   3.838   4.792   1.975  1.6893 -1.2459 -1.9434
   60MOL   H27018088   3.778   5.063   1.642  1.5400 -2.2147  2.4364
   60MOL   H27118089   3.874   5.071   1.489 -0.2419  0.2063  0.1380
   60MOL   C27218090   3.678   4.975   1.475  1.0970  0.4318 -0.1599
   60MOL   O27318091   3.580   4.958   1.575 -0.3458 -0.8542 -0.3461
   60MOL   C27418092   3.465   4.879   1.559  0.6848  0.9978 -0.4954
   60MOL   O27518093   3.433   4.816   1.458  0.5622 -0.2786  0.7056
   60MOL   C27618094   3.373   4.886   1.681  0.1561  0.5901 -0.6737
   60MOL   C27718095   3.306   4.762   1.713 -0.1815  0.4381 -0.0073
   60MOL   C27818096   3.640   5.090   1.379  0.1810  0.5250 -0.1466
   60MOL   H27918097   3.683   4.883   1.416  0.2258  1.9439 -2.6557
   60MOL   H28018098   3.431   4.913   1.769 -0.2056 -0.0133 -0.2424
   60MOL   H28118099   3.289   4.954   1.670 -0.1454  0.2784 -0.3161
   60MOL   H28218100   3.300   4.770   1.822  3.4245  0.2985  0.2599
   60MOL   H28318101   3.202   4.761   1.679 -0.2016  0.5819  0.0480
   60MOL   H28418102   3.345   4.664   1.687  0.4029  0.9637 -1.1070
   60MOL   H28518103   3.532   5.107   1.385  0.2196  0.1019  2.1534
   60MOL   H28618104   3.680   5.187   1.411  0.3892 -0.0356  1.3184
   60MOL   C28718105   3.680   5.056   1.229  0.3462 -0.3639  0.0931
   60MOL   O28818106   3.612   5.149   1.148  0.1784 -0.3022  0.3341
   60MOL   C28918107   3.546   5.109   1.037  0.3363 -0.1501 -0.4894
   60MOL   O29018108   3.527   4.996   1.003 -0.2241 -0.1085  0.0727
   60MOL   C29118109   3.488   5.228   0.955  0.2473 -0.6880  0.6429
   60MOL   C29218110   3.397   5.185   0.841 -0.4786  0.5447  0.0153
   60MOL   C29318111   3.832   5.066   1.206  0.4211 -0.2490  0.7621
   60MOL   H29418112   3.650   4.955   1.200 -1.6661 -0.1551  1.3183
   60MOL   H29518113   3.435   5.296   1.021 -0.6295 -1.6153  0.9005
   60MOL   H29618114   3.573   5.286   0.918  0.2519  0.0080  1.7139
   60MOL   H29718115   3.444   5.111   0.776 -2.3302 -0.2685 -0.4204
   60MOL   H29818116   3.301   5.147   0.876 -0.0174 -1.8716 -1.2064
   60MOL   H29918117   3.377   5.271   0.778  1.6094  2.9936  2.5894
   60MOL   H30018118   3.871   5.168   1.209  1.5533 -0.6668  0.4032
   60MOL   H30118119   3.891   5.001   1.271 -0.2709 -2.4229 -0.7139
   60MOL   H30218120   3.856   5.020   1.110 -1.2674  1.5618 -0.5744
   61MOL     C118121   7.178   7.520   3.470  0.0111  0.1330 -0.4617
   61MOL     O218122   7.097   7.431   3.395  0.5563  0.4796 -0.5977
   61MOL     C318123   7.117   7.303   3.394  0.1428 -0.5907 -0.2103
   61MOL     O418124   7.214   7.254   3.452  0.3042  0.1330  0.4600
   61MOL     C518125   7.006   7.226   3.317 -0.2627 -0.3101 -1.2182
   61MOL     C618126   7.070   7.108   3.247  0.1565  0.7560  0.7683
   61MOL     C718127   7.144   7.658   3.417  0.3094 -0.2340 -0.5266
   61MOL     H818128   7.284   7.506   3.450  0.5659 -0.2783  2.6209
   61MOL     H918129   6.945   7.177   3.392  0.7694  1.1049  0.5758
   61MOL    H1018130   6.946   7.290   3.253  1.9525  1.4442 -1.6300
   61MOL    H1118131   7.165   7.133   3.201  0.4590  0.5760  1.2887
   61MOL    H1218132   7.088   7.026   3.317  0.1050 -0.6148 -0.7917
   61MOL    H1318133   6.999   7.069   3.174  0.1555  2.7770 -0.3531
   61MOL    H1418134   7.203   7.732   3.471  1.4314 -2.2162  1.0035
   61MOL    H1518135   7.184   7.647   3.317  1.1527  0.8879 -0.3227
   61MOL    H1618136   7.153   7.501   3.574  1.0320 -4.3217 -0.9266
   61MOL    C1718137   6.998   7.705   3.436  0.5752  0.5242 -0.1248
   61MOL    O1818138   6.990   7.723   3.577  0.0754 -0.3953 -0.1345
   61MOL    C1918139   6.872   7.732   3.632 -0.3521  0.7676 -0.8226
   61MOL    O2018140   6.765   7.722   3.571 -0.0915  0.5482  0.2041
   61MOL    C2118141   6.876   7.731   3.781  0.3578 -1.4929 -0.0753
   61MOL    C2218142   6.931   7.596   3.830  0.0040  0.3177 -0.4225
   61MOL    C2318143   6.972   7.834   3.355  0.3743 -0.5423  0.2434
   61MOL    H2418144   6.930   7.625   3.406  0.7825  0.0120  0.7617
   61MOL    H2518145   6.924   7.826   3.805 -1.6057 -0.7157  0.8778
   61MOL    H2618146   6.777   7.744   3.824  0.9773 -0.0204  0.8947
   61MOL    H2718147   7.026   7.566   3.786  0.6640 -0.1469  1.2789
   61MOL    H2818148   6.961   7.603   3.935  0.9835 -3.2213 -0.3776
   61MOL    H2918149   6.855   7.518   3.821 -1.5991  1.8972 -0.7698
   61MOL    H3018150   6.874   7.877   3.375  0.6223  0.5487 -0.8093
   61MOL    H3118151   7.036   7.915   3.390  0.8586 -0.0498 -1.7044
   61MOL    C3218152   6.986   7.814   3.201 -1.0771 -0.4067 -0.6005
   61MOL    O3318153   6.865   7.757   3.150  0.0885 -0.1148  0.2307
   61MOL    C3418154   6.854   7.631   3.106  0.0181 -0.0419  0.2936
   61MOL    O3518155   6.943   7.551   3.089  0.3903  0.3032  0.0440
   61MOL    C3618156   6.702   7.591   3.092 -0.4721 -0.1907 -0.1860
   61MOL    C3718157   6.677   7.448   3.034  0.1940  0.2139  0.1089
   61MOL    C3818158   7.002   7.939   3.122 -0.3476 -0.3763  0.0813
   61MOL    H3918159   7.066   7.745   3.178 -1.6019 -1.9569  2.0073
   61MOL    H4018160   6.654   7.599   3.189  1.8476 -1.6736  1.1213
   61MOL    H4118161   6.651   7.670   3.036 -0.1683  0.5942  0.6341
   61MOL    H4218162   6.736   7.375   3.088 -1.3109 -1.7128 -0.7811
   61MOL    H4318163   6.572   7.426   3.055  0.0436  2.6612  2.2153
   61MOL    H4418164   6.689   7.442   2.926  1.7722 -1.0726  0.3455
   61MOL    H4518165   6.914   0.058   3.113 -0.1006  0.0224  0.4694
   61MOL    H4618166   7.086   0.048   3.168  0.0309 -0.0274 -0.9937
   61MOL    C4718167   7.054   7.909   2.983  0.8707 -0.4986  0.0338
   61MOL    O4818168   6.943   7.913   2.891 -0.0247 -0.2862  0.0755
   61MOL    C4918169   6.942   7.844   2.779  0.6671  0.3299 -0.0892
   61MOL    O5018170   7.027   7.765   2.739 -0.0067  0.0063  0.0731
   61MOL    C5118171   6.814   7.858   2.696 -0.3161  0.2472 -0.1158
   61MOL    C5218172   6.694   7.784   2.753  0.3397  0.0381 -0.7966
   61MOL    C5318173   7.169   0.059   2.931 -0.8779 -0.5905  0.3427
   61MOL    H5418174   7.101   7.811   2.981 -2.6694 -2.2953  0.0725
   61MOL    H5518175   6.788   0.017   2.675 -0.0525  0.1973 -0.6998
   61MOL    H5618176   6.839   7.825   2.595  0.2842  0.5914 -0.0835
   61MOL    H5718177   6.610   7.782   2.684 -0.6284 -0.0641  0.3819
   61MOL    H5818178   6.728   7.685   2.782 -1.3325 -0.3015  0.0185
   61MOL    H5918179   6.668   7.839   2.843 -1.9109  0.4178 -1.6367
   61MOL    H6018180   7.198   0.016   2.835 -1.6507 -2.3665  0.8830
   61MOL    H6118181   7.129   0.160   2.924 -0.0201 -0.2463  0.3527
   61MOL    C6218182   7.300   0.059   3.016 -0.2704 -0.9399 -0.1583
   61MOL    O6318183   7.374   7.891   2.973 -0.0264  0.3717 -0.1650
   61MOL    C6418184   7.368   7.768   3.026 -0.5856  0.3429  0.0148
   61MOL    O6518185   7.336   7.737   3.142 -0.3417  0.0447  0.0682
   61MOL    C6618186   7.433   7.667   2.943 -0.1277  0.2269  1.1755
   61MOL    C6718187   7.572   7.709   2.899  0.5645  0.3612  0.0572
   61MOL    C6818188   7.403   0.176   2.989 -0.2373 -0.5404 -0.3333
   61MOL    H6918189   7.289   0.058   3.125 -1.4978 -1.0909 -0.2805
   61MOL    H7018190   7.431   7.564   2.979  0.0584 -0.6863 -1.3400
   61MOL    H7118191   7.382   7.657   2.847  4.0091 -1.9387 -0.9297
   61MOL    H7218192   7.621   7.633   2.837 -2.8965 -2.2693  0.3751
   61MOL    H7318193   7.575   7.803   2.844  1.1490  1.2402  1.5659
   61MOL    H7418194   7.626   7.715   2.993 -0.3393 -0.2338  0.6194
   61MOL    H7518195   7.417   0.168   2.882 -0.3953 -0.1061 -0.3846
   61MOL    H7618196   7.358   0.275   2.988 -1.5580 -1.1394 -0.6212
   61MOL    C7718197   7.543   0.178   3.047  1.1119  0.0087 -0.0310
   61MOL    O7818198   7.602   0.299   3.027  0.4421 -0.4201  0.4713
   61MOL    C7918199   7.656   0.339   2.911 -0.0696  0.4976 -0.2516
   61MOL    O8018200   7.657   0.280   2.805 -0.1941 -0.8735  0.0533
   61MOL    C8118201   7.726   0.468   2.919 -1.0155 -0.0230  0.4721
   61MOL    C8218202   7.873   0.464   2.874 -0.2337 -0.2721  0.1708
   61MOL    C8318203   7.538   0.155   3.199 -0.1246 -0.2233  0.3742
   61MOL    H8418204   7.596   0.093   3.002 -2.2615 -1.9615 -0.4602
   61MOL    H8518205   7.665   0.538   2.863 -1.2845  0.2099  1.0596
   61MOL    H8618206   7.718   0.505   3.021  0.5928  0.7266  0.3335
   61MOL    H8718207   7.891   0.457   2.766 -0.4794  0.9555  0.0466
   61MOL    H8818208   7.912   0.560   2.907  0.8918 -1.1716  1.5365
   61MOL    H8918209   7.930   0.393   2.934  0.7021  1.2433  1.1235
   61MOL    H9018210   7.502   0.053   3.208  2.9340 -1.2078  2.3344
   61MOL    H9118211   7.639   0.153   3.239  0.2098 -0.9846 -0.5043
   61MOL    C9218212   7.455   0.247   3.293 -0.1274 -0.3515  0.1146
   61MOL    O9318213   7.439   0.187   3.423  0.6226  0.2653  0.0257
   61MOL    C9418214   7.353   0.086   3.456 -0.0778  0.1466  0.3717
   61MOL    O9518215   7.268   0.044   3.380  0.5820 -0.4033 -0.2534
   61MOL    C9618216   7.342   0.059   3.606 -0.1740 -0.1118  0.4160
   61MOL    C9718217   7.437   7.896   3.654 -0.1047 -0.1083  0.0266
   61MOL    C9818218   7.500   0.394   3.315 -0.2128 -0.0640 -0.5035
   61MOL    H9918219   7.350   0.246   3.263  0.0714 -0.0344 -0.6029
   61MOL   H10018220   7.356   0.155   3.656  0.4915 -0.9774  1.9430
   61MOL   H10118221   7.236   0.036   3.622 -0.3871  0.8104  0.3930
   61MOL   H10218222   7.539   7.925   3.632 -0.2985  0.7307  0.2115
   61MOL   H10318223   7.413   7.890   3.760  0.3386 -2.2158  0.0115
   61MOL   H10418224   7.410   7.798   3.616  0.2561 -0.9718  1.9497
   61MOL   H10518225   7.471   0.453   3.228  0.0015 -0.1697 -0.6461
   61MOL   H10618226   7.443   0.431   3.400  0.0479 -0.8607  0.0215
   61MOL   C10718227   7.651   0.415   3.348 -0.2286  0.4933 -0.5594
   61MOL   O10818228   7.684   0.547   3.306 -0.3424  0.3013 -0.6692
   61MOL   C10918229   7.801   0.584   3.265  0.2016  0.2030  0.7778
   61MOL   O11018230   7.894   0.503   3.242  0.1091 -0.2831 -0.2314
   61MOL   C11118231   7.824   0.735   3.239 -0.7536 -0.5640 -0.4093
   61MOL   C11218232   7.864   0.810   3.370  0.3501  0.2360 -0.0038
   61MOL   C11318233   7.680   0.394   3.496  0.0726  0.3053 -0.0568
   61MOL   H11418234   7.711   0.340   3.296  1.0506  1.6643 -0.7816
   61MOL   H11518235   7.909   0.744   3.171 -0.5933 -1.7135 -0.3677
   61MOL   H11618236   7.746   0.775   3.174 -0.6079  0.2179 -0.1084
   61MOL   H11718237   7.898   0.909   3.339  0.0725 -0.1970 -1.7383
   61MOL   H11818238   7.778   0.815   3.436 -1.2704 -0.4541 -2.0082
   61MOL   H11918239   0.006   0.763   3.416  1.1182  0.8588 -0.7917
   61MOL   H12018240   7.645   0.482   3.551  0.9474  0.5059  0.1800
   61MOL   H12118241   7.636   0.298   3.521  0.9770 -0.3036 -0.7595
   61MOL   C12218242   7.827   0.379   3.537  0.9875 -1.0155  0.4330
   61MOL   O12318243   7.836   0.374   3.679 -0.3297 -0.1072 -1.0271
   61MOL   C12418244   7.892   0.480   3.746  0.1802  0.3764  0.1575
   61MOL   O12518245   7.928   0.584   3.691 -0.7552  0.2971  0.4829
   61MOL   C12618246   7.883   0.467   3.898 -0.1993 -0.0444  0.4010
   61MOL   C12718247   0.043   0.380   3.964 -0.4004  0.2809 -0.2557
   61MOL   C12818248   7.902   0.255   3.484 -0.0430  0.2291  0.4638
   61MOL   H12918249   7.874   0.463   3.486  0.7663 -1.0969  0.0921
   61MOL   H13018250   7.908   0.562   3.944  0.2882  0.6963 -1.3499
   61MOL   H13118251   7.781   0.445   3.929 -0.0287  0.1185  1.0918
   61MOL   H13218252   0.139   0.381   3.913 -1.1451 -0.4317 -1.7109
   61MOL   H13318253   0.055   0.403   4.070  1.0847  0.6708 -0.4967
   61MOL   H13418254   0.005   0.279   3.954  0.1107 -0.0732  1.2335
   61MOL   H13518255   7.887   0.177   3.559  1.3499 -0.0663  0.4397
   61MOL   H13618256   7.848   0.214   3.399  0.6817 -0.0007  0.1157
   61MOL   C13718257   0.098   0.289   3.450  0.4455 -0.0362  0.4928
   61MOL   O13818258   0.161   0.375   3.545  0.2784  0.0181  0.3853
   61MOL   C13918259   0.257   0.460   3.502 -0.5719 -0.7771 -0.5998
   61MOL   O14018260   0.288   0.479   3.388 -0.0259  0.1194  0.0714
   61MOL   C14118261   0.346   0.513   3.620 -0.4330  0.3770 -0.6676
   61MOL   C14218262   0.439   0.412   3.664 -0.1285  0.5161 -0.0687
   61MOL   C14318263   0.191   0.169   3.430 -0.0586 -0.4214  0.1495
   61MOL   H14418264   0.071   0.339   3.357  2.2687 -0.9117 -0.5297
   61MOL   H14518265   0.396   0.606   3.595  1.1277 -0.2701 -0.0246
   61MOL   H14618266   0.271   0.542   3.693  0.6788  2.6372 -0.3727
   61MOL   H14718267   0.494   0.438   3.754 -0.2147 -0.0956  0.1613
   61MOL   H14818268   0.388   0.316   3.675 -1.6331  1.3986  0.9104
   61MOL   H14918269   0.510   0.375   3.590  0.2829 -1.8019  1.4235
   61MOL   H15018270   0.137   0.104   3.361  2.7011 -0.5719 -1.9861
   61MOL   H15118271   0.274   0.205   3.368 -0.1810  1.1740  0.9024
   61MOL   C15218272   0.234   0.092   3.548  0.4191 -0.4238  0.1474
   61MOL   O15318273   0.128   0.046   3.632 -0.1303 -0.3751 -0.1767
   61MOL   C15418274   0.138   0.058   3.764 -0.3679 -0.0955  0.4252
   61MOL   O15518275   0.229   0.116   3.820  1.0675  0.2471  0.0431
   61MOL   C15618276   0.036   7.920   3.839 -0.1721  0.1775  0.5123
   61MOL   C15718277   7.847   7.901   3.765 -0.0022 -0.2130 -0.0287
   61MOL   C15818278   0.315   7.916   3.504  0.0749 -0.7000  0.1704
   61MOL   H15918279   0.321   0.147   3.586 -0.2472  0.4999  0.3496
   61MOL   H16018280   0.079   7.823   3.868  2.0280  1.1964  0.7788
   61MOL   H16118281   0.018   0.032   3.930  2.3903  0.2945  1.0083
   61MOL   H16218282   7.768   7.856   3.826  1.5778 -2.6707  0.2547
   61MOL   H16318283   7.808   0.043   3.711  0.5268 -0.7326 -1.2689
   61MOL   H16418284   7.874   7.827   3.690 -0.3324  1.2066 -1.5901
   61MOL   H16518285   0.370   7.882   3.591  0.6314 -0.6931 -0.1754
   61MOL   H16618286   0.238   7.842   3.482 -0.1780 -1.0528  2.1481
   61MOL   C16718287   0.423   7.932   3.391  0.5160 -0.2219 -0.6566
   61MOL   O16818288   0.543   0.047   3.445  0.5500 -0.9103  0.0338
   61MOL   C16918289   0.617   0.137   3.359  0.2472 -0.2388  0.3304
   61MOL   O17018290   0.595   0.156   3.243 -0.4110 -0.0847  0.0339
   61MOL   C17118291   0.743   0.206   3.420  0.6592  0.3067  1.0176
   61MOL   C17218292   0.734   0.356   3.400 -0.7918  0.2347 -0.3259
   61MOL   C17318293   0.465   7.791   3.346 -0.3512  0.4757  0.6443
   61MOL   H17418294   0.378   0.043   3.309 -0.8365 -0.1194  0.1514
   61MOL   H17518295   0.736   0.177   3.525 -0.8417  1.0727  1.1455
   61MOL   H17618296   0.834   0.154   3.390 -1.0183 -0.8885 -2.2319
   61MOL   H17718297   0.633   0.397   3.392 -1.1814  0.2658  3.7239
   61MOL   H17818298   0.795   0.415   3.468  2.3678 -2.0744 -1.0705
   61MOL   H17918299   0.779   0.370   3.302  0.0898  1.2108  0.2130
   61MOL   H18018300   0.518   7.739   3.426  0.7602 -0.4612 -0.6916
   61MOL   H18118301   0.378   7.725   3.340 -0.1184  0.3223 -1.3692
   61MOL   C18218302   0.543   7.771   3.213  0.5664 -0.4301  0.1034
   61MOL   O18318303   0.651   7.680   3.227 -0.3418 -1.0486  0.3654
   61MOL   C18418304   0.776   7.717   3.281 -0.1421 -0.2748 -0.2175
   61MOL   O18518305   0.801   7.828   3.337 -0.3376 -0.1299  0.1499
   61MOL   C18618306   0.886   7.611   3.262  0.5055 -0.4240 -0.1720
   61MOL   C18718307   1.015   7.637   3.325  0.3013 -0.0849  0.1989
   61MOL   C18818308   0.449   7.713   3.104 -0.6015  0.6840  0.9679
   61MOL   H18918309   0.574   7.871   3.181 -0.8406 -0.1145 -0.3233
   61MOL   H19018310   0.851   7.511   3.289  0.3777 -0.2952  0.1364
   61MOL   H19118311   0.898   7.604   3.154  0.0757 -2.5184 -0.1011
   61MOL   H19218312   1.055   7.735   3.296 -0.0007 -0.0576 -0.1441
   61MOL   H19318313   1.013   7.632   3.433  0.6921 -1.5334  0.1384
   61MOL   H19418314   1.083   7.565   3.279 -1.1703 -3.5181  3.1653
   61MOL   H19518315   0.509   7.697   3.014 -0.2062  1.4491  1.0950
   61MOL   H19618316   0.419   7.613   3.136 -1.1690  0.7228  0.5645
   61MOL   C19718317   0.321   7.786   3.073 -0.2794  0.2286 -0.3474
   61MOL   O19818318   0.362   7.916   3.035  0.2315 -0.1356  0.0410
   61MOL   C19918319   0.291   0.077   3.070 -0.1343 -0.2997 -0.3930
   61MOL   O20018320   0.188   0.074   3.140  0.2976 -0.2072  0.1582
   61MOL   C20118321   0.349   0.211   3.021  0.1426 -0.1365 -0.0425
   61MOL   C20218322   0.263   0.331   3.063  0.2524 -0.0514  0.2517
   61MOL   C20318323   0.257   7.717   2.951  1.0458 -0.5265  0.5766
   61MOL   H20418324   0.256   7.788   3.160 -2.9858  1.0109 -2.3380
   61MOL   H20518325   0.453   0.219   3.053 -0.3312 -0.1172  1.5196
   61MOL   H20618326   0.350   0.204   2.912  0.4259 -1.3060  0.0239
   61MOL   H20718327   0.248   0.330   3.171 -1.7358 -2.1472 -0.0192
   61MOL   H20818328   0.302   0.428   3.031 -1.1348  1.1052  1.9592
   61MOL   H20918329   0.163   0.325   3.020  0.4791 -0.7412 -0.1901
   61MOL   H21018330   0.315   7.730   2.860 -1.9291 -0.0464 -1.3264
   61MOL   H21118331   0.258   7.609   2.969  0.9812 -0.6578 -0.2096
   61MOL   C21218332   0.112   7.764   2.929  0.2541  0.4246  0.0087
   61MOL   O21318333   0.107   7.847   2.810 -0.1386  0.1365 -0.8057
   61MOL   C21418334   0.027   7.944   2.795 -0.2042  0.5920  0.1625
   61MOL   O21518335   7.889   0.027   2.880 -0.2861  0.3572  0.2554
   61MOL   C21618336   0.051   0.080   2.664  0.5233 -0.7043 -0.0553
   61MOL   C21718337   7.879   0.163   2.613  1.1767  0.5466  0.5830
   61MOL   C21818338   0.000   7.651   2.914 -0.2038  0.2291 -0.3505
   61MOL   H21918339   0.096   7.831   3.014  0.1295  0.7341 -0.2565
   61MOL   H22018340   0.129   0.145   2.703  0.6541  0.4806 -2.2221
   61MOL   H22118341   0.100   0.007   2.599  1.4751 -0.3241  0.2358
   61MOL   H22218342   7.873   0.262   2.659 -1.2613  0.5911  0.2408
   61MOL   H22318343   7.886   0.186   2.506 -0.2618  2.1238  0.8023
   61MOL   H22418344   7.791   0.098   2.611  1.8637 -0.3766  0.1826
   61MOL   H22518345   7.851   7.701   2.890  0.1954  1.2198  0.1300
   61MOL   H22618346   0.020   7.585   2.829  1.4698  0.3007 -0.0419
   61MOL   C22718347   7.923   7.568   3.043 -0.8323 -0.0628 -0.7761
   61MOL   O22818348   7.869   7.643   3.151  0.2498 -0.1339  0.5102
   61MOL   C22918349   7.927   7.652   3.278 -0.0751 -0.1880  0.3500
   61MOL   O23018350   0.078   7.588   3.315  0.5097  0.2386  0.0528
   61MOL   C23118351   7.850   7.746   3.375  0.1647  0.1808 -0.4246
   61MOL   C23218352   7.808   7.876   3.313  0.2480 -0.1793  0.5747
   61MOL   C23318353   7.839   7.444   3.015  0.6089 -0.0289 -0.1736
   61MOL   H23418354   0.077   7.533   3.072 -0.5543  0.9062 -0.5192
   61MOL   H23518355   7.768   7.699   3.429  3.3996 -0.8573  3.7834
   61MOL   H23618356   7.921   7.778   3.451 -0.6624  0.4435  0.2435
   61MOL   H23718357   7.901   7.906   3.264 -0.7907  0.5370 -0.9956
   61MOL   H23818358   7.734   7.864   3.234  0.4523 -1.2061  0.5278
   61MOL   H23918359   7.766   0.005   3.381  0.4717 -0.6924  1.2667
   61MOL   H24018360   7.738   7.476   2.989 -0.6183 -1.3482  2.7749
   61MOL   H24118361   7.874   7.386   2.930  0.8398  0.1146 -0.1751
   61MOL   C24218362   7.821   7.340   3.127  0.0165 -0.4563  0.4727
   61MOL   O24318363   7.693   7.281   3.119  0.1247 -0.5928 -0.6644
   61MOL   C24418364   7.583   7.329   3.185  0.0439  0.3150 -0.2235
   61MOL   O24518365   7.573   7.451   3.202 -0.1817  0.2620 -0.5516
   61MOL   C24618366   7.469   7.230   3.204 -0.4092 -0.8359 -0.0253
   61MOL   C24718367   7.501   7.121   3.300  0.4103  0.0239 -0.0483
   61MOL   C24818368   7.923   7.232   3.125 -0.0325  0.9237 -0.0908
   61MOL   H24918369   7.840   7.390   3.222  1.4271 -0.8680  0.4144
   61MOL   H25018370   7.384   7.288   3.238 -1.1348 -1.6265 -0.4762
   61MOL   H25118371   7.437   7.188   3.109  0.2154 -1.1519 -0.1009
   61MOL   H25218372   7.423   7.045   3.288  0.7722 -0.0412 -2.0253
   61MOL   H25318373   7.598   7.078   3.277  1.3437  1.6187  0.8704
   61MOL   H25418374   7.500   7.152   3.405  0.2733 -0.3263  0.0560
   61MOL   H25518375   7.924   7.182   3.028 -0.4498 -0.6277  0.6812
   61MOL   H25618376   0.077   7.273   3.144  0.0697  0.3076  0.7896
   61MOL   C25718377   7.909   7.128   3.235  0.0898 -0.2922  0.3149
   61MOL   O25818378   0.051   7.012   3.202 -0.8994 -0.8506  0.3764
   61MOL   C25918379   7.941   6.890   3.177  0.1784  0.3236  0.1962
   61MOL   O26018380   7.821   6.869   3.164  0.3274 -0.3300 -0.1000
   61MOL   C26118381   0.102   6.784   3.170  0.3997  0.1979 -0.3168
   61MOL   C26218382   0.128   6.748   3.027 -0.2933 -0.7518  0.9350
   61MOL   C26318383   0.002   7.158   3.379  0.2333 -0.0576 -0.9309
   61MOL   H26418384   7.806   7.093   3.236  0.0882 -0.3502 -0.7752
   61MOL   H26518385   0.196   6.823   3.209  1.0523 -1.3749 -0.3001
   61MOL   H26618386   0.089   6.704   3.243 -1.2193 -0.4788 -1.3118
   61MOL   H26718387   0.101   6.821   2.951 -0.1039  0.8190  2.3303
   61MOL   H26818388   0.233   6.720   3.015 -0.0770  0.5757 -0.3306
   61MOL   H26918389   0.069   6.660   3.002  0.3539 -1.1485  0.8043
   61MOL   H27018390   0.103   7.122   3.400 -0.2091 -0.1077  1.1358
   61MOL   H27118391   7.939   7.265   3.398 -1.1420 -0.1163 -1.1364
   61MOL   C27218392   7.857   7.080   3.484 -0.2568  0.1058  0.2192
   61MOL   O27318393   7.854   6.937   3.466  0.1398 -0.2353 -0.1333
   61MOL   C27418394   7.748   6.870   3.471  0.4424  0.1116 -0.0042
   61MOL   O27518395   7.637   6.923   3.497 -0.1569  0.1949  0.0030
   61MOL   C27618396   7.771   6.725   3.454  0.1453  0.1800  0.3247
   61MOL   C27718397   7.906   6.676   3.515  0.3216  0.1820  0.3822
   61MOL   C27818398   7.907   7.106   3.625  0.1170 -0.2073 -0.7675
   61MOL   H27918399   7.759   7.128   3.476  0.1724  0.7256 -1.6489
   61MOL   H28018400   7.680   6.684   3.498  0.3585  0.0147  0.6144
   61MOL   H28118401   7.767   6.697   3.349  1.1802  0.3502  0.2326
   61MOL   H28218402   0.044   6.728   3.466 -0.3173 -0.8428 -1.8200
   61MOL   H28318403   7.913   6.692   3.623 -2.1133 -1.3107  0.7887
   61MOL   H28418404   7.934   6.570   3.514  0.2745  0.1596  1.2681
   61MOL   H28518405   7.847   7.038   3.685 -0.2899 -0.2921 -1.2712
   61MOL   H28618406   0.065   7.071   3.618 -0.8623 -3.0501 -1.4902
   61MOL   C28718407   7.915   7.246   3.683  0.1343 -0.1785  0.0377
   61MOL   O28818408   7.782   7.293   3.698  0.4709  0.2949  0.1478
   61MOL   C28918409   7.735   7.415   3.671 -0.1766 -0.5123  0.9050
   61MOL   O29018410   7.804   7.502   3.613 -0.1393 -0.2249 -0.2437
   61MOL   C29118411   7.596   7.443   3.704  0.0429  0.2390  0.3189
   61MOL   C29218412   7.504   7.454   3.581 -0.2289  0.1326 -0.1165
   61MOL   C29318413   0.034   7.241   3.822 -0.2524 -0.6358 -0.0307
   61MOL   H29418414   0.022   7.310   3.612  0.1745 -0.9232 -0.6082
   61MOL   H29518415   7.558   7.373   3.779  0.0351 -1.0449 -0.8632
   61MOL   H29618416   7.600   7.537   3.759  0.7607 -2.2525  4.7948
   61MOL   H29718417   7.529   7.543   3.522  1.1745 -0.1408  0.0610
   61MOL   H29818418   7.522   7.370   3.515  1.5356 -0.2248  0.7838
   61MOL   H29918419   7.399   7.445   3.610 -0.1332  1.4408  0.6970
   61MOL   H30018420   0.027   7.339   3.869  1.2181 -0.5190 -0.0423
   61MOL   H30118421   7.932   7.163   3.882 -1.9256  0.1730 -0.2514
   61MOL   H30218422   0.139   7.214   3.826  0.1385  0.6426 -1.1901
   62MOL     C118423   1.445   4.278   7.559  0.3340 -0.1984 -0.0622
   62MOL     O218424   1.578   4.225   7.564 -0.2946 -0.7129 -0.0990
   62MOL     C318425   1.592   4.098   7.604  0.6903  0.2408  0.7138
   62MOL     O418426   1.509   4.018   7.645 -0.2591 -0.1548  0.5710
   62MOL     C518427   1.736   4.052   7.587 -0.3805 -1.0509  0.4677
   62MOL     C618428   1.780   4.024   7.442 -0.0848  0.4499  0.5292
   62MOL     C718429   1.433   4.387   7.458 -0.3802  0.8514  0.2230
   62MOL     H818430   1.428   4.318   7.659 -1.3526  0.1458 -0.4618
   62MOL     H918431   1.799   4.121   7.643  0.1629 -0.4310 -0.8886
   62MOL    H1018432   1.740   3.958   7.640 -0.6377  0.1818  2.7185
   62MOL    H1118433   1.712   3.953   7.395 -1.3198  1.2522  1.0728
   62MOL    H1218434   1.780   4.116   7.382  1.4053 -0.3904 -0.7765
   62MOL    H1318435   1.887   4.004   7.438 -0.0714  0.2993  1.5613
   62MOL    H1418436   1.333   4.425   7.477 -1.1627 -0.7966 -0.5087
   62MOL    H1518437   1.511   4.458   7.485  0.9014 -0.7113  0.6796
   62MOL    H1618438   1.369   4.200   7.555 -0.0123  0.2023 -1.6030
   62MOL    C1718439   1.449   4.348   7.308 -0.1048 -0.0628 -0.6380
   62MOL    O1818440   1.351   4.255   7.269  0.0800 -0.4038  0.1886
   62MOL    C1918441   1.385   4.137   7.214  0.2606  0.4935 -0.4908
   62MOL    O2018442   1.496   4.090   7.207  0.1208 -0.0480 -0.4812
   62MOL    C2118443   1.272   4.077   7.137  0.0216  0.7893  0.4795
   62MOL    C2218444   1.215   4.169   7.027 -0.6582  0.5451  0.2388
   62MOL    C2318445   1.431   4.472   7.211  0.3564  1.1749 -0.2551
   62MOL    H2418446   1.543   4.293   7.302 -0.6749 -0.8890 -2.7942
   62MOL    H2518447   1.289   3.982   7.085 -1.0283  0.9648 -0.1938
   62MOL    H2618448   1.198   4.062   7.215  0.0125  0.6123  0.4374
   62MOL    H2718449   1.278   4.190   6.941 -0.4904  0.4825  0.3470
   62MOL    H2818450   1.131   4.114   6.984 -0.4156  1.2911 -1.2187
   62MOL    H2918451   1.182   4.266   7.066 -0.2032 -0.1475  2.3944
   62MOL    H3018452   1.399   4.445   7.110 -0.1826 -1.5258  0.5837
   62MOL    H3118453   1.362   4.538   7.263  0.5641  0.5822  0.7883
   62MOL    C3218454   1.559   4.557   7.181 -0.6322  0.4520 -0.5899
   62MOL    O3318455   1.657   4.481   7.106 -0.1272 -0.4430  0.3985
   62MOL    C3418456   1.755   4.422   7.176  0.1061 -0.2842  0.1338
   62MOL    O3518457   1.766   4.413   7.301  0.0869  0.8178 -0.5897
   62MOL    C3618458   1.871   4.374   7.089 -1.1596 -0.4297  0.3405
   62MOL    C3718459   1.814   4.270   6.988 -0.2028  0.2554 -0.1864
   62MOL    C3818460   1.523   4.683   7.099  0.6963 -0.3554  0.1072
   62MOL    H3918461   1.599   4.590   7.276  0.6800 -1.7768 -0.3391
   62MOL    H4018462   1.913   4.458   7.033  1.2771 -2.2485 -0.6792
   62MOL    H4118463   1.964   4.346   7.140  0.9992  0.0350 -3.1733
   62MOL    H4218464   1.887   4.243   6.912  0.5715 -0.9651  0.9840
   62MOL    H4318465   1.783   4.179   7.039 -0.0121  1.2096  1.7009
   62MOL    H4418466   1.724   4.306   6.938  0.0609  2.1793  0.6800
   62MOL    H4518467   1.486   4.659   7.000 -0.7708  1.6722  0.1371
   62MOL    H4618468   1.436   4.734   7.139  0.9154 -0.7522  1.1264
   62MOL    C4718469   1.636   4.792   7.092  0.1196 -0.1517  0.4597
   62MOL    O4818470   1.718   4.781   6.982 -0.1203 -0.1715 -0.2677
   62MOL    C4918471   1.846   4.742   6.994  0.0657 -0.3724 -0.1892
   62MOL    O5018472   1.903   4.725   7.104  0.1798 -0.4193  0.2573
   62MOL    C5118473   1.915   4.736   6.860 -0.3712  0.9045 -0.4835
   62MOL    C5218474   2.053   4.673   6.857  0.3743 -0.0942 -0.0548
   62MOL    C5318475   1.562   4.927   7.074  0.0471 -0.8013 -0.1602
   62MOL    H5418476   1.689   4.804   7.186  0.2451  0.0547  0.3634
   62MOL    H5518477   1.850   4.681   6.792  0.1412 -1.6029  0.9796
   62MOL    H5618478   1.925   4.837   6.820 -0.5256  1.5451  1.0592
   62MOL    H5718479   2.072   4.627   6.760  1.2445  2.3810 -1.1091
   62MOL    H5818480   2.125   4.754   6.874 -1.0894  1.3669 -0.6294
   62MOL    H5918481   2.062   4.596   6.934  0.5684 -0.8429 -0.8195
   62MOL    H6018482   1.500   4.919   6.985 -1.6582  1.0375  0.8475
   62MOL    H6118483   1.488   4.938   7.153 -0.6051 -0.3550 -0.8277
   62MOL    C6218484   1.656   5.047   7.062  0.5750 -0.2822  0.4978
   62MOL    O6318485   1.566   5.146   7.020 -0.4482 -0.6016  0.0840
   62MOL    C6418486   1.611   5.250   6.959  0.6488 -1.3979  0.0263
   62MOL    O6518487   1.726   5.272   6.919 -0.2437 -0.3631  0.0705
   62MOL    C6618488   1.499   5.346   6.925 -0.0053 -0.4113  0.1250
   62MOL    C6718489   1.460   5.433   7.047 -0.0034 -1.0084 -0.1427
   62MOL    C6818490   1.748   5.084   7.185 -0.0806  0.0554  1.0892
   62MOL    H6918491   1.726   5.022   6.982 -0.6212 -1.2104 -0.2756
   62MOL    H7018492   1.526   5.402   6.836  1.8796  0.8989  1.4961
   62MOL    H7118493   1.420   5.271   6.910  0.6569 -1.4512  1.6429
   62MOL    H7218494   1.544   5.501   7.061  0.4732 -1.8945  1.4005
   62MOL    H7318495   1.366   5.487   7.040  1.0694  1.1603  1.5355
   62MOL    H7418496   1.453   5.376   7.140  3.3704  0.7550  1.2774
   62MOL    H7518497   1.816   4.999   7.187 -1.9153 -1.5018 -0.1671
   62MOL    H7618498   1.803   5.174   7.157 -0.5036  0.2831  0.9800
   62MOL    C7718499   1.692   5.098   7.319 -0.6650 -0.4735 -0.0922
   62MOL    O7818500   1.670   4.972   7.369 -0.2237  0.0991 -0.0381
   62MOL    C7918501   1.563   4.938   7.447  0.0432 -0.1581 -0.2129
   62MOL    O8018502   1.483   5.018   7.492 -1.2335  0.1860  0.5115
   62MOL    C8118503   1.554   4.796   7.485 -0.1318 -0.0677 -0.4816
   62MOL    C8218504   1.687   4.735   7.538  0.1188 -0.0266 -0.2218
   62MOL    C8318505   1.786   5.185   7.403 -0.0460  0.0762  0.5438
   62MOL    H8418506   1.599   5.148   7.293 -1.7787 -2.8679 -0.8172
   62MOL    H8518507   1.484   4.775   7.565  0.9738  0.5791  0.6716
   62MOL    H8618508   1.522   4.742   7.396  2.1921  0.4402 -1.6677
   62MOL    H8718509   1.747   4.802   7.600 -0.9712 -1.5385  2.5814
   62MOL    H8818510   1.682   4.650   7.606  0.2540  0.4213  0.3494
   62MOL    H8918511   1.754   4.709   7.456  1.5867  1.1389  0.5728
   62MOL    H9018512   1.864   5.116   7.435  1.7871  0.7798 -2.2338
   62MOL    H9118513   1.848   5.262   7.357  1.3379 -0.0794  2.0900
   62MOL    C9218514   1.730   5.239   7.529  0.4165 -0.2392 -0.3327
   62MOL    O9318515   1.833   5.312   7.596 -0.1734 -0.1884  0.4614
   62MOL    C9418516   1.883   5.264   7.707 -0.1744 -0.2017  0.0876
   62MOL    O9518517   1.853   5.157   7.756 -0.3032 -0.3477 -0.0374
   62MOL    C9618518   1.990   5.352   7.764  0.5022  0.0844 -0.0564
   62MOL    C9718519   1.934   5.469   7.843  0.1370  0.2682  0.6515
   62MOL    C9818520   1.616   5.350   7.525 -0.1809  0.2308  0.5638
   62MOL    H9918521   1.700   5.150   7.585 -2.8859  0.9073 -0.1790
   62MOL   H10018522   2.038   5.292   7.840 -2.9842  0.0941  2.2422
   62MOL   H10118523   2.072   5.372   7.694 -0.0954 -0.4098 -0.9123
   62MOL   H10218524   1.864   5.520   7.777  0.4949  1.2126  0.9895
   62MOL   H10318525   1.882   5.441   7.935 -1.6947  0.8232 -0.1970
   62MOL   H10418526   2.006   5.548   7.868 -0.8807  0.8196  1.9392
   62MOL   H10518527   1.656   5.431   7.465 -0.2734 -0.9424 -1.1298
   62MOL   H10618528   1.532   5.315   7.464 -0.7317  1.2296  0.7398
   62MOL   C10718529   1.562   5.397   7.668 -0.1978 -0.7470  0.3297
   62MOL   O10818530   1.497   5.514   7.638  0.2465  0.3930  0.0977
   62MOL   C10918531   1.542   5.630   7.660  0.7756 -0.0673 -0.2050
   62MOL   O11018532   1.655   5.656   7.706  0.1958 -0.0232  0.1838
   62MOL   C11118533   1.444   5.740   7.613 -0.0564 -0.1165  0.0539
   62MOL   C11218534   1.437   5.740   7.455  0.7535 -0.3560 -0.0626
   62MOL   C11318535   1.453   5.313   7.731 -0.2297  0.4963 -0.0764
   62MOL   H11418536   1.642   5.431   7.734 -2.3612  1.5522  1.8791
   62MOL   H11518537   1.353   5.712   7.667  1.8969 -1.5032  2.7682
   62MOL   H11618538   1.472   5.836   7.656 -1.7751  0.2207  0.4884
   62MOL   H11718539   1.359   5.799   7.406  1.2135 -0.4329 -0.8983
   62MOL   H11818540   1.536   5.765   7.417  0.5929 -0.4108 -0.5290
   62MOL   H11918541   1.429   5.634   7.432  0.7812 -0.4347  0.2885
   62MOL   H12018542   1.378   5.381   7.771  0.1565 -0.3091  2.0425
   62MOL   H12118543   1.400   5.261   7.652 -1.2009  1.5551 -0.1258
   62MOL   C12218544   1.498   5.224   7.850 -0.0950  0.2310  0.5726
   62MOL   O12318545   1.478   5.284   0.036 -0.1732  0.0699  0.9344
   62MOL   C12418546   1.584   5.325   0.108  0.1660  0.4379  0.0779
   62MOL   O12518547   1.699   5.335   0.070  0.5439  0.5572  0.2053
   62MOL   C12618548   1.539   5.340   0.250  0.6926 -0.7286 -0.4850
   62MOL   C12718549   1.626   5.431   0.332 -0.5911 -0.2939 -0.2000
   62MOL   C12818550   1.413   5.099   7.844 -0.5535  0.6158  0.0226
   62MOL   H12918551   1.603   5.197   7.842 -0.1117 -0.0248  1.1654
   62MOL   H13018552   1.436   5.375   0.255  1.2773  0.9251  0.4413
   62MOL   H13118553   1.532   5.236   0.282  0.7401 -0.3314  0.8537
   62MOL   H13218554   1.733   5.412   0.334 -0.1140  1.6769 -3.1708
   62MOL   H13318555   1.597   5.533   0.307 -1.0593 -0.3097  0.2877
   62MOL   H13418556   1.593   5.412   0.434  0.8851  2.7446  0.9256
   62MOL   H13518557   1.310   5.127   7.865 -0.4807 -0.4257  1.8288
   62MOL   H13618558   1.410   5.047   7.748  1.6850 -0.6390  0.6040
   62MOL   C13718559   1.469   4.996   7.939  1.0961  0.2260 -0.1563
   62MOL   O13818560   1.354   4.933   0.052  0.9108  0.1651 -0.2874
   62MOL   C13918561   1.296   4.978   0.163  0.5864 -0.0657  0.1789
   62MOL   O14018562   1.348   5.051   0.254  0.4517 -0.1301 -0.4149
   62MOL   C14118563   1.159   4.910   0.185 -0.0212 -0.6944  0.7059
   62MOL   C14218564   1.034   4.982   0.122  0.4089 -0.5359 -0.0718
   62MOL   C14318565   1.553   4.888   7.863  0.3312  0.4239  0.2208
   62MOL   H14418566   1.538   5.049   0.059 -0.4377  2.0897  0.0121
   62MOL   H14518567   1.165   4.810   0.143  0.2704 -0.3690 -0.0312
   62MOL   H14618568   1.138   4.903   0.292  0.5124 -3.8306  0.6553
   62MOL   H14718569   0.940   4.963   0.174 -0.4650  1.3389 -0.9163
   62MOL   H14818570   1.051   5.089   0.115 -0.5124 -0.3784 -0.0320
   62MOL   H14918571   1.001   4.942   0.026 -0.7352 -0.6437  0.3553
   62MOL   H15018572   1.483   4.824   7.809 -0.5405  1.8895 -0.4377
   62MOL   H15118573   1.621   4.927   7.788 -0.2326 -3.2966 -2.3630
   62MOL   C15218574   1.652   4.813   0.014 -0.1874  0.3121 -0.1639
   62MOL   O15318575   1.748   4.901   0.068  0.4370  0.1311  0.1880
   62MOL   C15418576   1.863   4.927   0.004 -0.4145  0.3132  0.6064
   62MOL   O15518577   1.909   4.881   7.844 -0.0385 -0.4555 -0.1427
   62MOL   C15618578   1.956   5.011   0.087 -0.3850  0.0409  0.4820
   62MOL   C15718579   2.050   4.930   0.176  0.3455  0.4171 -0.4341
   62MOL   C15818580   1.597   4.736   0.142 -0.4779 -0.6068  0.6304
   62MOL   H15918581   1.701   4.732   7.905 -1.2827  0.2829 -1.1476
   62MOL   H16018582   2.017   5.060   0.011 -1.6965  1.0961  0.0766
   62MOL   H16118583   1.900   5.090   0.136  0.6437  1.1286 -0.0749
   62MOL   H16218584   2.009   4.887   0.267  4.5248 -1.3577  0.7220
   62MOL   H16318585   2.074   4.838   0.124  2.4229 -0.2206  1.5748
   62MOL   H16418586   2.147   4.974   0.201 -0.2123  1.6125 -0.3277
   62MOL   H16518587   1.680   4.695   0.200  0.4460 -1.3428 -1.1578
   62MOL   H16618588   1.542   4.804   0.207 -0.5639 -0.6846  0.6397
   62MOL   C16718589   1.502   4.619   0.109 -0.3458  0.3614  0.2569
   62MOL   O16818590   1.591   4.524   0.046 -0.2737 -0.1228 -0.4493
   62MOL   C16918591   1.594   4.509   7.859  0.3875  0.0333  0.3863
   62MOL   O17018592   1.522   4.568   7.782  0.4680  0.4587  0.5537
   62MOL   C17118593   1.698   4.414   7.810  0.3248 -0.1336  0.2423
   62MOL   C17218594   1.834   4.452   7.862  0.5572  0.2719  0.4600
   62MOL   C17318595   1.426   4.558   0.228  0.2371 -0.0301 -0.7952
   62MOL   H17418596   1.423   4.648   0.039 -1.0382 -0.6971  0.5935
   62MOL   H17518597   1.681   4.310   7.839  1.8349 -1.0783 -2.1297
   62MOL   H17618598   1.695   4.419   7.701 -3.1056  1.5103  0.3644
   62MOL   H17718599   1.907   4.380   7.822  2.5857  2.7707 -0.4880
   62MOL   H17818600   1.869   4.549   7.828 -0.9881  0.7121  0.1371
   62MOL   H17918601   1.828   4.462   0.026 -2.4324 -0.9578  0.4401
   62MOL   H18018602   1.500   4.537   0.305  1.7337  2.9289 -1.3359
   62MOL   H18118603   1.375   4.636   0.284  0.7917  0.7575 -1.3666
   62MOL   C18218604   1.353   4.426   0.193 -0.2953  0.3646  0.2204
   62MOL   O18318605   1.304   4.378   0.320  0.0362 -0.0469 -0.0130
   62MOL   C18418606   1.383   4.293   0.391 -0.4823 -0.3735  0.3751
   62MOL   O18518607   1.496   4.261   0.363 -0.3607 -0.4636  0.0054
   62MOL   C18618608   1.323   4.243   0.515 -0.5970  0.1178  1.0266
   62MOL   C18718609   1.191   4.175   0.485 -0.5442 -0.4321 -0.4916
   62MOL   C18818610   1.228   4.461   0.109 -0.4151  0.3713 -0.5789
   62MOL   H18918611   1.417   4.356   0.140 -0.0474 -0.1670  1.2007
   62MOL   H19018612   1.394   4.174   0.561 -1.9679 -2.4751 -0.6571
   62MOL   H19118613   1.305   4.320   0.590 -0.8406 -0.2821  1.3810
   62MOL   H19218614   1.127   4.225   0.413  0.9981  2.1699 -0.0932
   62MOL   H19318615   1.205   4.089   0.419  0.3843  0.2527 -1.2030
   62MOL   H19418616   1.140   4.133   0.572  1.8378  0.6027  1.4771
   62MOL   H19518617   1.182   4.542   0.166 -2.5680 -0.7714 -0.6570
   62MOL   H19618618   1.263   4.507   0.016  0.1526  1.7948  0.3151
   62MOL   C19718619   1.137   4.338   0.085  0.0794  0.3315 -0.1168
   62MOL   O19818620   1.023   4.388   0.022  0.0641 -0.1631 -0.4018
   62MOL   C19918621   0.899   4.360   0.063  0.5346 -0.2202 -0.4332
   62MOL   O20018622   0.868   4.298   0.166 -0.0648 -0.0280 -0.0327
   62MOL   C20118623   0.788   4.427   7.927 -0.1028  0.0961  0.3187
   62MOL   C20218624   0.765   4.569   0.033 -0.0838  0.0546 -0.2424
   62MOL   C20318625   1.205   4.235   7.938 -0.6423 -0.1243  0.4999
   62MOL   H20418626   1.112   4.291   0.180 -1.7236 -0.7930 -1.1317
   62MOL   H20518627   0.831   4.436   7.827  1.9276 -1.0693  1.0493
   62MOL   H20618628   0.697   4.368   7.921 -0.0296 -0.1145  1.2176
   62MOL   H20718629   0.697   4.574   0.118  0.9413 -1.0835  0.6807
   62MOL   H20818630   0.860   4.613   0.064 -0.0818 -0.6381  0.7811
   62MOL   H20918631   0.719   4.632   7.902  1.7442 -0.1893 -1.5788
   62MOL   H21018632   1.299   4.271   7.896 -1.8688  1.5466 -0.9030
   62MOL   H21118633   1.229   4.152   0.059  1.2940 -0.8963 -1.1243
   62MOL   C21218634   1.113   4.163   7.831  0.2803 -0.3719 -0.4924
   62MOL   O21318635   1.115   4.240   7.715 -0.6171 -0.9051 -0.1620
   62MOL   C21418636   1.004   4.258   7.653  0.5258  0.7639  0.3944
   62MOL   O21518637   0.891   4.232   7.688  0.5891 -0.8298  0.4138
   62MOL   C21618638   1.019   4.324   7.516 -0.0980  0.1789  0.5706
   62MOL   C21718639   0.918   4.259   7.414  0.7948 -0.1938 -0.0883
   62MOL   C21818640   1.168   4.027   7.791  0.3123  0.8678  0.4488
   62MOL   H21918641   1.010   4.154   7.867 -0.1281  1.6717 -1.1237
   62MOL   H22018642   0.998   4.431   7.519  0.6441  0.3109  1.3801
   62MOL   H22118643   1.125   4.310   7.495 -0.3539 -1.4758  0.2651
   62MOL   H22218644   0.821   4.308   7.427  0.8716 -0.6561  2.5501
   62MOL   H22318645   0.934   4.295   7.313 -0.7610  2.4741  0.5504
   62MOL   H22418646   0.898   4.152   7.411 -0.2053 -0.0238  0.1141
   62MOL   H22518647   1.261   4.037   7.736  1.1176  0.7912  1.7637
   62MOL   H22618648   1.203   3.980   7.883  2.3199  0.2932 -0.5868
   62MOL   C22718649   1.067   3.935   7.709 -0.1123 -0.0417 -0.2005
   62MOL   O22818650   1.149   3.832   7.648  0.0449  0.6249  0.3209
   62MOL   C22918651   1.223   3.859   7.539 -0.0634 -0.1663  0.5086
   62MOL   O23018652   1.214   3.968   7.474  0.6476 -0.0470 -0.2266
   62MOL   C23118653   1.315   3.744   7.495 -1.2473 -0.1894  0.5810
   62MOL   C23218654   1.410   3.797   7.378  0.0606  0.2866 -0.2913
   62MOL   C23318655   0.957   3.871   7.803  0.0758 -0.7671 -0.2979
   62MOL   H23418656   1.017   3.991   7.630 -0.5587  0.4112  0.4022
   62MOL   H23518657   1.377   3.712   7.578  0.5770  0.5130 -0.4780
   62MOL   H23618658   1.254   3.662   7.457 -1.3130  0.9315 -1.8438
   62MOL   H23718659   1.449   3.898   7.389  1.2382  0.1071 -2.5959
   62MOL   H23818660   1.492   3.725   7.375 -0.3240 -0.2419  1.4460
   62MOL   H23918661   1.355   3.791   7.284  2.3897 -0.5865 -1.6297
   62MOL   H24018662   0.994   3.780   7.850 -0.4794  0.6157  2.9393
   62MOL   H24118663   0.935   3.941   7.884  0.1938 -1.8858  0.7084
   62MOL   C24218664   0.821   3.843   7.730  0.2319  0.8809  0.3400
   62MOL   O24318665   0.758   3.966   7.686  0.2651 -0.0409  0.2212
   62MOL   C24418666   0.671   4.033   7.776 -0.3535  0.2407  0.5360
   62MOL   O24518667   0.669   4.016   7.898  0.2265 -0.4331 -0.6061
   62MOL   C24618668   0.580   4.133   7.708  0.3928 -0.7222  0.0568
   62MOL   C24718669   0.463   4.178   7.791 -0.2556  0.2553 -0.4669
   62MOL   C24818670   0.849   3.765   7.598 -0.0916  0.6435 -0.2253
   62MOL   H24918671   0.754   3.791   7.798  1.5372  0.1595  1.1086
   62MOL   H25018672   0.645   4.216   7.680  0.7889 -1.0761 -0.0861
   62MOL   H25118673   0.561   4.079   7.615  1.2293  0.4033 -0.7914
   62MOL   H25218674   0.375   4.174   7.727  0.0403 -0.5056 -0.8298
   62MOL   H25318675   0.435   4.105   7.867 -1.9310 -1.1951 -2.4025
   62MOL   H25418676   0.479   4.278   7.831 -0.2979 -0.1786  0.6572
   62MOL   H25518677   0.874   3.844   7.527 -0.6408  2.2744  1.3698
   62MOL   H25618678   0.930   3.691   7.600 -1.7045 -1.1379  0.5162
   62MOL   C25718679   0.727   3.688   7.554 -0.5531  0.1332  0.1576
   62MOL   O25818680   0.622   3.776   7.513 -0.6786  0.1399  0.3916
   62MOL   C25918681   0.502   3.751   7.565  0.2274  0.7813  0.0776
   62MOL   O26018682   0.467   3.648   7.626 -0.1477 -0.1383  0.1596
   62MOL   C26118683   0.400   3.859   7.550  0.5969  0.1488 -0.1642
   62MOL   C26218684   0.351   3.899   7.406  1.2303  0.2146  0.6287
   62MOL   C26318685   0.766   3.598   7.430  0.1358  0.0816  0.2742
   62MOL   H26418686   0.703   3.625   7.639  0.1864  0.1888  0.4165
   62MOL   H26518687   0.313   3.816   7.599  1.2974 -3.7377 -2.1311
   62MOL   H26618688   0.426   3.951   7.602  1.3131 -0.8847  1.3524
   62MOL   H26718689   0.304   3.997   7.408 -2.7195 -1.5856  1.7752
   62MOL   H26818690   0.429   3.900   7.330  0.8965  0.5903  0.2905
   62MOL   H26918691   0.279   3.827   7.369  0.5507  0.7804  0.8373
   62MOL   H27018692   0.834   3.519   7.463 -1.8162 -1.7852 -0.0580
   62MOL   H27118693   0.671   3.554   7.398  0.5307 -1.4546  1.1577
   62MOL   C27218694   0.835   3.659   7.306 -0.0745 -0.2184 -0.1157
   62MOL   O27318695   0.922   3.559   7.249  0.5873 -0.0438  0.0312
   62MOL   C27418696   1.039   3.590   7.186 -0.3045 -0.4102  0.0181
   62MOL   O27518697   1.099   3.698   7.187  0.1259 -0.0677  0.5523
   62MOL   C27618698   1.111   3.465   7.142 -0.0116 -0.3850  0.2019
   62MOL   C27718699   1.261   3.461   7.192  0.3430 -0.4277  0.0814
   62MOL   C27818700   0.737   3.720   7.202 -0.6283 -0.1907  0.2431
   62MOL   H27918701   0.901   3.739   7.338  0.9617 -1.0612 -0.1311
   62MOL   H28018702   1.052   3.390   7.194 -1.4504  0.1044 -0.6835
   62MOL   H28118703   1.099   3.446   7.035  1.4136  0.7184 -0.1749
   62MOL   H28218704   1.308   3.377   7.141 -2.2780 -1.8581 -0.0648
   62MOL   H28318705   1.317   3.554   7.181  2.7470 -1.9652 -0.7891
   62MOL   H28418706   1.265   3.445   7.300 -0.0039  1.5707  0.4237
   62MOL   H28518707   0.697   3.634   7.150  2.3779 -0.4759 -1.7163
   62MOL   H28618708   0.642   3.759   7.239 -1.0449 -1.1387  0.1737
   62MOL   C28718709   0.801   3.822   7.105 -0.4832 -0.0019  0.7003
   62MOL   O28818710   0.727   3.816   6.985  0.8442 -0.4660 -0.0763
   62MOL   C28918711   0.745   3.718   6.893 -0.6219 -0.3061  0.1665
   62MOL   O29018712   0.810   3.616   6.915  0.4371 -0.0446 -0.1126
   62MOL   C29118713   0.653   3.742   6.774 -0.7138  0.4128  0.3374
   62MOL   C29218714   0.631   3.614   6.686  0.2365  0.1680 -0.1820
   62MOL   C29318715   0.827   3.964   7.163 -0.5480 -0.2243  0.3548
   62MOL   H29418716   0.900   3.785   7.079 -0.8541 -0.3642 -0.2152
   62MOL   H29518717   0.556   3.777   6.809 -0.9209  1.6093 -1.3656
   62MOL   H29618718   0.688   3.831   6.721  0.3392 -1.2186 -1.8323
   62MOL   H29718719   0.580   3.641   6.593 -0.2386  0.3393  0.1262
   62MOL   H29818720   0.728   3.571   6.662  0.8763  1.5524 -0.1687
   62MOL   H29918721   0.564   3.545   6.736  0.4036  0.4564  0.4383
   62MOL   H30018722   0.904   3.962   7.240 -1.1648 -2.4219  0.9512
   62MOL   H30118723   0.868   4.030   7.087 -0.4274  1.9177  2.2137
   62MOL   H30218724   0.732   3.999   7.205 -0.3633  0.1768  0.4353
   63MOL     C118725   0.903   5.228   6.570  0.0943 -0.1305 -0.6541
   63MOL     O218726   0.922   5.179   6.441  0.3533 -0.0339  0.5755
   63MOL     C318727   0.815   5.162   6.355  0.3887  0.7365  0.2838
   63MOL     O418728   0.697   5.196   6.370 -0.2312 -1.1238  0.1207
   63MOL     C518729   0.862   5.080   6.239  0.7764  0.2402 -0.1487
   63MOL     C618730   1.007   5.103   6.206 -0.7963  0.5770  0.3621
   63MOL     C718731   1.028   5.287   6.622 -0.5815 -0.1347 -0.0542
   63MOL     H818732   0.867   5.144   6.630  3.2102 -2.0626 -1.3817
   63MOL     H918733   0.837   4.974   6.239 -2.5058  0.9341  1.0581
   63MOL    H1018734   0.795   5.113   6.159  1.3981 -1.4676 -1.3842
   63MOL    H1118735   1.038   5.049   6.116  1.1943  2.8287 -0.3551
   63MOL    H1218736   1.038   5.208   6.197 -0.1913  0.3505 -0.2315
   63MOL    H1318737   1.068   5.062   6.286 -2.2536 -0.1077  1.1360
   63MOL    H1418738   1.090   5.201   6.647  0.6193  0.8007  0.2096
   63MOL    H1518739   1.083   5.319   6.534 -2.9883  2.8574 -0.5347
   63MOL    H1618740   0.824   5.303   6.570  0.1442 -0.0592  1.3772
   63MOL    C1718741   1.006   5.401   6.729  0.1386  0.1830 -0.0385
   63MOL    O1818742   0.972   5.339   6.851 -0.0828 -0.0643 -0.7405
   63MOL    C1918743   0.864   5.377   6.918 -0.4203  0.2272 -0.2479
   63MOL    O2018744   0.780   5.453   6.874 -0.3362 -0.5510  0.2123
   63MOL    C2118745   0.839   5.293   7.052  0.2975 -0.3664 -0.1976
   63MOL    C2218746   0.731   5.190   7.037 -0.0995  0.3173  0.4957
   63MOL    C2318747   1.129   5.494   6.746 -0.4001  0.4595  0.1766
   63MOL    H2418748   0.923   5.465   6.699  0.9915 -0.2011 -3.4081
   63MOL    H2518749   0.929   5.239   7.082 -0.2204 -0.5461  1.0821
   63MOL    H2618750   0.805   5.355   7.135  0.1153 -0.1694 -0.4188
   63MOL    H2718751   0.702   5.141   7.130  0.4686  0.4605  0.7525
   63MOL    H2818752   0.642   5.240   6.999  0.4721  1.2439  0.3505
   63MOL    H2918753   0.761   5.114   6.965 -0.5937  1.0583 -0.5214
   63MOL    H3018754   1.190   5.464   6.831 -0.8095 -0.5504  0.1198
   63MOL    H3118755   1.200   5.489   6.664 -0.8789  1.3365 -0.2997
   63MOL    C3218756   1.068   5.630   6.769  0.5172 -0.1789  0.2603
   63MOL    O3318757   1.159   5.721   6.830 -0.2710  0.2648  0.2990
   63MOL    C3418758   1.183   5.708   6.961  0.6032 -0.4710 -0.1982
   63MOL    O3518759   1.123   5.636   7.046  0.1280 -0.1546  0.3312
   63MOL    C3618760   1.288   5.813   6.996 -0.4086 -0.2871 -0.4714
   63MOL    C3718761   1.313   5.811   7.151 -0.6240 -0.0890  0.5742
   63MOL    C3818762   1.034   5.688   6.638 -0.5834  0.0616 -0.2358
   63MOL    H3918763   0.986   5.610   6.838 -1.2916  0.2025 -1.7249
   63MOL    H4018764   1.374   5.795   6.932  0.2785  0.3531  0.2504
   63MOL    H4118765   1.264   5.914   6.963  2.3196  0.7582  0.5715
   63MOL    H4218766   1.365   5.719   7.178 -1.9295 -0.6140  1.3301
   63MOL    H4318767   1.393   5.882   7.172  1.8273 -2.9464  1.4389
   63MOL    H4418768   1.228   5.820   7.219 -1.0139 -2.1158  0.3869
   63MOL    H4518769   1.129   5.725   6.598 -0.2936 -0.7125 -0.2790
   63MOL    H4618770   1.004   5.603   6.575 -0.6214 -0.3148  0.2867
   63MOL    C4718771   0.934   5.807   6.627 -0.3870  0.6494  0.2377
   63MOL    O4818772   0.813   5.747   6.658 -0.4250  0.3035 -0.1887
   63MOL    C4918773   0.723   5.697   6.573 -0.4884  0.4259 -0.5057
   63MOL    O5018774   0.733   5.690   6.450 -0.3985 -0.1377  0.3885
   63MOL    C5118775   0.605   5.642   6.651  0.4591 -0.6770 -0.3840
   63MOL    C5218776   0.511   5.555   6.578 -0.3333 -0.8820  0.1018
   63MOL    C5318777   0.955   5.933   6.710 -0.4385 -0.2241 -0.4765
   63MOL    H5418778   0.924   5.841   6.524  0.4760  1.4325  0.4043
   63MOL    H5518779   0.643   5.601   6.744  2.6711 -1.9000 -1.7657
   63MOL    H5618780   0.549   5.734   6.668  1.2693 -0.2766  0.1113
   63MOL    H5718781   0.434   5.515   6.644  0.6289  0.0011  1.7823
   63MOL    H5818782   0.458   5.605   6.497 -2.4479 -1.6599  0.9654
   63MOL    H5918783   0.571   5.473   6.538 -0.6413 -0.4942 -1.1687
   63MOL    H6018784   0.870   5.998   6.691  2.0736  2.2025 -4.1771
   63MOL    H6118785   0.966   5.919   6.817 -0.1074 -1.6496 -0.6807
   63MOL    C6218786   1.073   6.012   6.662  0.1744 -0.4611  0.0699
   63MOL    O6318787   1.043   6.071   6.541 -0.5405 -0.0549 -0.8341
   63MOL    C6418788   1.129   6.059   6.434  0.1182  0.4032  0.3051
   63MOL    O6518789   1.242   6.027   6.440  0.1672  0.1857 -0.4969
   63MOL    C6618790   1.075   6.106   6.300  0.0963  0.2509 -0.6205
   63MOL    C6718791   1.040   6.255   6.307  0.1446 -0.6986 -0.3029
   63MOL    C6818792   1.114   6.118   6.771  0.0210  0.5993  0.6694
   63MOL    H6918793   1.157   5.944   6.644 -0.4058 -1.4203  0.9215
   63MOL    H7018794   1.142   6.086   6.217  0.3516 -0.8039 -0.1682
   63MOL    H7118795   0.987   6.044   6.288  1.0300 -1.3225  0.4833
   63MOL    H7218796   1.086   6.308   6.223  1.2765  0.0996  0.8074
   63MOL    H7318797   0.933   6.276   6.301  0.7438  2.3848 -1.1396
   63MOL    H7418798   1.072   6.317   6.391  0.5143  0.6971 -1.4494
   63MOL    H7518799   1.139   6.069   6.866 -0.3176 -0.6040  0.1493
   63MOL    H7618800   1.212   6.148   6.733 -0.1080 -2.0621 -1.9672
   63MOL    C7718801   1.027   6.240   6.800 -0.2618  0.0864  0.5958
   63MOL    O7818802   0.904   6.189   6.851  0.3778  0.0474 -0.1089
   63MOL    C7918803   0.788   6.266   6.838  0.2899  0.5759  0.0847
   63MOL    O8018804   0.778   6.362   6.765 -0.0509 -0.2506  0.1931
   63MOL    C8118805   0.664   6.212   6.917 -0.3038  0.4130  0.8563
   63MOL    C8218806   0.611   6.073   6.858 -0.8395  0.0329  0.2922
   63MOL    C8318807   1.089   6.343   6.896 -0.7634  0.2783  0.1731
   63MOL    H8418808   1.006   6.299   6.710 -1.1851  1.6661  1.8160
   63MOL    H8518809   0.700   6.198   7.018 -0.7526 -1.5231  0.7708
   63MOL    H8618810   0.587   6.289   6.915 -0.6595  0.0555  0.0459
   63MOL    H8718811   0.565   6.005   6.929  0.9870 -0.2477  1.2389
   63MOL    H8818812   0.550   6.088   6.768  1.6768  0.9653 -1.3242
   63MOL    H8918813   0.695   6.020   6.813  0.0615  0.2027  1.7470
   63MOL    H9018814   1.022   6.428   6.904 -1.4627 -0.2931  0.4163
   63MOL    H9118815   1.101   6.295   6.993 -0.6384 -0.2960 -0.1237
   63MOL    C9218816   1.219   6.415   6.855 -0.1508 -0.2445  0.9739
   63MOL    O9318817   1.195   6.510   6.754 -0.2017 -0.3733  0.4584
   63MOL    C9418818   1.215   6.476   6.624  0.1475 -0.1133 -0.0392
   63MOL    O9518819   1.282   6.381   6.589 -0.4623  0.1088 -0.2614
   63MOL    C9618820   1.158   6.566   6.512  0.5126 -0.5273 -0.1200
   63MOL    C9718821   1.008   6.564   6.503 -0.5738 -0.3893 -0.0455
   63MOL    C9818822   1.279   6.500   6.967  0.0566  0.4782 -0.6168
   63MOL    H9918823   1.288   6.342   6.814  0.2852  1.4663 -1.4872
   63MOL   H10018824   1.188   6.669   6.526 -0.9936 -0.0296 -0.4676
   63MOL   H10118825   1.223   6.542   6.427 -0.2325  0.7360 -1.0667
   63MOL   H10218826   0.975   6.662   6.538 -1.2732 -0.1608 -1.2996
   63MOL   H10318827   0.977   6.557   6.398  2.7440 -2.5667 -0.9411
   63MOL   H10418828   0.954   6.482   6.549 -0.4195  0.1043  1.0196
   63MOL   H10518829   1.357   6.572   6.939  1.4827 -1.2526 -1.2085
   63MOL   H10618830   1.207   6.560   7.022 -0.5638 -0.9228  0.0956
   63MOL   C10718831   1.340   6.409   7.076 -0.0739 -0.0501  0.0359
   63MOL   O10818832   1.467   6.355   7.038  0.5689  0.0117 -0.0246
   63MOL   C10918833   1.485   6.235   6.995 -0.0784 -0.9535 -0.4406
   63MOL   O11018834   1.395   6.152   6.971 -0.5862 -0.2208 -0.2140
   63MOL   C11118835   1.628   6.196   6.974 -0.0680  0.4886  0.0446
   63MOL   C11218836   1.695   6.250   6.849  0.2812  0.0512  0.6648
   63MOL   C11318837   1.376   6.470   7.214 -0.0384 -0.2241 -0.1149
   63MOL   H11418838   1.270   6.330   7.103  0.2173  0.6170  2.8173
   63MOL   H11518839   1.689   6.234   7.055  0.0065  0.1122  0.1667
   63MOL   H11618840   1.637   6.087   6.977  0.4539  0.5582  1.0633
   63MOL   H11718841   1.668   6.190   6.761 -0.6498 -0.1399  1.0679
   63MOL   H11818842   1.664   6.353   6.830 -0.8021 -0.4813 -0.5850
   63MOL   H11918843   1.803   6.238   6.846  0.1959 -0.3645 -2.0297
   63MOL   H12018844   1.444   6.411   7.275 -1.0182 -0.8153  0.4276
   63MOL   H12118845   1.433   6.562   7.204 -2.2192  1.2030  0.2469
   63MOL   C12218846   1.251   6.496   7.298 -0.1877  0.2560  0.0386
   63MOL   O12318847   1.179   6.378   7.335  0.5415  0.2476  0.6333
   63MOL   C12418848   1.062   6.344   7.276  0.6707  0.6458 -0.5914
   63MOL   O12518849   1.001   6.404   7.189  0.1010 -0.2190  0.2724
   63MOL   C12618850   0.998   6.219   7.338 -0.1948  0.2569 -0.6882
   63MOL   C12718851   0.935   6.244   7.474 -0.1116 -0.5768  0.0794
   63MOL   C12818852   1.292   6.556   7.432  0.5882 -0.0281 -0.4772
   63MOL   H12918853   1.183   6.571   7.257  1.7312  1.8268 -0.3416
   63MOL   H13018854   0.922   6.190   7.266  1.2251  0.0862 -2.1306
   63MOL   H13118855   1.081   6.148   7.329 -0.1495  0.1135  0.6634
   63MOL   H13218856   0.893   6.155   7.521 -2.7595 -0.1641 -1.4043
   63MOL   H13318857   1.019   6.266   7.540 -1.1199 -0.2864  1.2777
   63MOL   H13418858   0.858   6.320   7.463 -3.2443 -3.3873  1.5106
   63MOL   H13518859   1.206   6.561   7.500 -1.9335 -4.3242 -3.1103
   63MOL   H13618860   1.362   6.490   7.482 -0.2474  1.9203  3.5306
   63MOL   C13718861   1.357   6.703   7.435  0.0911  0.4982 -0.5942
   63MOL   O13818862   1.286   6.812   7.374  0.0537  0.9466  0.1391
   63MOL   C13918863   1.321   6.868   7.260  0.0601  0.0505 -0.0002
   63MOL   O14018864   1.429   6.842   7.205  0.1257 -0.0243  0.1473
   63MOL   C14118865   1.233   6.965   7.202  0.3927  0.5196  0.0560
   63MOL   C14218866   1.220   7.102   7.266  0.6056  0.2362  0.2192
   63MOL   C14318867   1.393   6.746   7.580 -0.6692 -0.2479 -0.1235
   63MOL   H14418868   1.454   6.689   7.387  0.4635  0.5908  0.1295
   63MOL   H14518869   1.276   6.978   7.103 -2.0307  1.3659 -0.9310
   63MOL   H14618870   1.138   6.920   7.174  0.7041  1.3516 -2.5561
   63MOL   H14718871   1.169   7.170   7.198  0.6687  0.3190  0.2562
   63MOL   H14818872   1.169   7.104   7.362 -1.6087  0.5693 -0.9250
   63MOL   H14918873   1.319   7.143   7.285  0.7469  0.8638 -1.7841
   63MOL   H15018874   1.296   6.757   7.627 -0.9081 -0.0238 -0.6680
   63MOL   H15118875   1.445   6.671   7.639 -3.6401 -0.7388  1.9348
   63MOL   C15218876   1.470   6.882   7.591  0.3632  0.2863 -1.1401
   63MOL   O15318877   1.450   6.937   7.722 -0.4364 -0.2950 -0.3253
   63MOL   C15418878   1.362   7.036   7.741  0.0332  0.5989  0.2543
   63MOL   O15518879   1.300   7.092   7.649 -0.1961  0.1993 -0.5894
   63MOL   C15618880   1.358   7.083   7.888  0.7773 -0.3428 -0.3313
   63MOL   C15718881   1.315   6.970   0.045  0.2654 -1.0362 -0.1091
   63MOL   C15818882   1.623   6.857   7.573  0.2838  0.3050 -0.1734
   63MOL   H15918883   1.445   6.958   7.518  1.6671  1.8473 -0.0119
   63MOL   H16018884   1.453   7.133   7.906  0.3920  0.2049  0.1839
   63MOL   H16118885   1.290   7.167   7.885  0.1980 -0.7734  0.6512
   63MOL   H16218886   1.387   6.888   0.054 -0.4660 -1.8478 -1.4693
   63MOL   H16318887   1.291   7.008   0.144 -0.9957 -0.8834 -0.4732
   63MOL   H16418888   1.221   6.925   0.013  0.9149 -3.6363  1.4228
   63MOL   H16518889   1.659   6.770   7.628 -0.8024  2.3424  3.9543
   63MOL   H16618890   1.629   6.842   7.465  1.4889  2.2072 -0.4064
   63MOL   C16718891   1.715   6.979   7.603 -0.1856  0.5556 -0.1152
   63MOL   O16818892   1.753   6.954   7.739 -0.4831  0.3421 -0.7173
   63MOL   C16918893   1.758   7.061   7.830  0.1653 -0.3741 -0.9015
   63MOL   O17018894   1.732   7.179   7.803 -0.4942 -0.0273  0.3548
   63MOL   C17118895   1.809   7.013   0.020  0.2858  0.6462 -0.4198
   63MOL   C17218896   1.805   7.124   0.130 -0.1861  0.2477  0.1579
   63MOL   C17318897   1.834   6.989   7.512 -0.0932  0.9990 -0.4410
   63MOL   H17418898   1.648   7.066   7.602  0.8863  1.3740 -1.7031
   63MOL   H17518899   1.743   6.933   0.053  1.9106 -0.4342  0.2336
   63MOL   H17618900   1.912   6.980   0.017  0.0523 -0.0014 -1.6519
   63MOL   H17718901   1.880   7.203   0.122 -2.0868  2.2343  1.4611
   63MOL   H17818902   1.711   7.179   0.132  0.1143  0.7363  1.4381
   63MOL   H17918903   1.822   7.078   0.228  0.1443 -1.3142 -0.6222
   63MOL   H18018904   1.780   6.985   7.417  0.2110 -1.8665 -0.5305
   63MOL   H18118905   1.887   7.084   7.518  1.2297  0.2441 -0.0537
   63MOL   C18218906   1.943   6.872   7.519 -0.4058 -0.3482  0.2248
   63MOL   O18318907   1.911   6.780   7.415 -0.9802  0.0388  0.0836
   63MOL   C18418908   1.887   6.650   7.448  0.4412  0.3365  0.5946
   63MOL   O18518909   1.866   6.620   7.564  0.4254 -0.2498 -0.1692
   63MOL   C18618910   1.883   6.558   7.323  0.2192 -0.2530  0.2333
   63MOL   C18718911   1.834   6.417   7.344 -0.2537  0.1479  0.4291
   63MOL   C18818912   2.088   6.921   7.495 -0.6596  0.3618 -0.0230
   63MOL   H18918913   1.933   6.828   7.618  2.7898  0.3595  0.9094
   63MOL   H19018914   1.819   6.611   7.253 -0.5053 -1.2325  0.1367
   63MOL   H19118915   1.984   6.561   7.282  0.7379  0.9836  1.5500
   63MOL   H19218916   1.849   6.358   7.254 -0.0108  2.6320 -1.2066
   63MOL   H19318917   1.888   6.370   7.426 -1.0892 -0.8487  0.4198
   63MOL   H19418918   1.727   6.424   7.366 -0.2485  0.9120  0.2333
   63MOL   H19518919   2.087   7.003   7.424 -1.6496  1.2433  0.9848
   63MOL   H19618920   2.111   6.978   7.585  2.9959 -0.7841 -0.1600
   63MOL   C19718921   2.199   6.818   7.470  0.1829  0.8337  0.3047
   63MOL   O19818922   2.253   6.827   7.336 -0.0920  0.0275 -0.2192
   63MOL   C19918923   2.317   6.726   7.271 -0.2768  0.3383 -0.0581
   63MOL   O20018924   2.308   6.610   7.298 -0.1152  0.2803 -0.1674
   63MOL   C20118925   2.394   6.779   7.149 -0.4018  0.0859 -0.4451
   63MOL   C20218926   2.527   6.849   7.186 -0.2996 -0.1505  0.9414
   63MOL   C20318927   2.321   6.835   7.563  0.0589  0.3288  0.2865
   63MOL   H20418928   2.163   6.717   7.487  0.7200  0.3120 -1.5294
   63MOL   H20518929   2.409   6.693   7.084  1.2718 -1.4310  1.8574
   63MOL   H20618930   2.334   6.853   7.096  0.2120  0.9172  0.0153
   63MOL   H20718931   2.523   6.913   7.274  0.9697  2.5863 -0.9072
   63MOL   H20818932   2.600   6.770   7.203 -1.6960 -1.2914  1.6975
   63MOL   H20918933   2.558   6.922   7.111  0.4499 -1.8146 -0.3985
   63MOL   H21018934   2.389   6.751   7.547 -1.5749 -1.0660  0.5377
   63MOL   H21118935   2.385   6.917   7.532 -0.3847  1.2438  1.7591
   63MOL   C21218936   2.288   6.838   7.718 -0.0940 -0.2249  0.5824
   63MOL   O21318937   2.227   6.717   7.735 -0.5923 -0.2216 -0.4897
   63MOL   C21418938   2.130   6.695   7.825  0.2750  0.7526  0.4617
   63MOL   O21518939   2.061   6.772   7.890  0.7162 -0.5079  0.2815
   63MOL   C21618940   2.131   6.543   7.863  0.1551 -0.1963 -0.0422
   63MOL   C21718941   2.269   6.502   7.926 -0.5019  0.2863 -0.3999
   63MOL   C21818942   2.414   6.850   7.797 -0.8221 -0.4824  0.3057
   63MOL   H21918943   2.213   6.913   7.740 -0.3171 -0.0658 -0.6612
   63MOL   H22018944   2.053   6.523   7.936  2.1822  0.1140  2.2623
   63MOL   H22118945   2.098   6.489   7.774  0.0268  0.9655 -0.7031
   63MOL   H22218946   2.260   6.402   0.025  3.2449 -0.2853 -0.7545
   63MOL   H22318947   2.343   6.502   7.846 -1.2466  2.1662 -1.1100
   63MOL   H22418948   2.292   6.568   0.064 -2.6847  1.5406 -0.7691
   63MOL   H22518949   2.476   6.762   7.782  1.9129  1.0161  2.2864
   63MOL   H22618950   2.465   6.936   7.754 -0.4109 -0.1775  1.3838
   63MOL   C22718951   2.397   6.874   7.945  0.1935  0.7910 -0.0580
   63MOL   O22818952   2.503   6.831   0.083  0.5147 -0.6756  0.4392
   63MOL   C22918953   2.482   6.750   0.190 -0.1519 -0.2221 -0.3704
   63MOL   O23018954   2.371   6.725   0.244  0.3329 -0.0314  0.4402
   63MOL   C23118955   2.612   6.675   0.228  0.0371  0.7248  0.4304
   63MOL   C23218956   2.672   6.711   0.358  0.0466 -0.5307  0.0632
   63MOL   C23318957   2.373   7.019   0.022 -0.6336 -0.4158  0.0365
   63MOL   H23418958   2.308   6.823   0.036 -0.7644  1.9754 -0.7032
   63MOL   H23518959   2.594   6.568   0.216 -1.5803  0.7361  2.4285
   63MOL   H23618960   2.682   6.700   0.149 -0.7167 -0.1230 -0.5201
   63MOL   H23718961   2.602   6.695   0.440  1.6306 -2.7210  1.0645
   63MOL   H23818962   2.764   6.655   0.377 -1.0248 -2.2467  0.3089
   63MOL   H23918963   2.688   6.818   0.353 -0.2140 -0.5778 -2.5672
   63MOL   H24018964   2.469   7.069   0.010  0.1671 -1.4211  2.0642
   63MOL   H24118965   2.305   7.057   7.890  0.2120 -1.4467 -1.2350
   63MOL   C24218966   2.314   7.057   0.160 -0.5136 -0.2001 -0.0439
   63MOL   O24318967   2.313   7.193   0.173 -0.6332  0.2627  0.2320
   63MOL   C24418968   2.418   7.256   0.222  0.0744  0.4556 -0.3932
   63MOL   O24518969   2.537   7.215   0.222  0.2212  0.3263 -0.2786
   63MOL   C24618970   2.373   7.386   0.291 -1.0865 -0.2302  0.4171
   63MOL   C24718971   2.488   7.478   0.326 -0.4120 -1.0113 -0.1442
   63MOL   C24818972   2.168   7.013   0.188 -0.2060  0.0790 -0.4252
   63MOL   H24918973   2.377   7.023   0.242 -2.3063 -0.4683  1.2642
   63MOL   H25018974   2.301   7.451   0.240 -2.6153 -2.1345  0.1174
   63MOL   H25118975   2.344   7.347   0.388 -0.1961  0.7129  1.0823
   63MOL   H25218976   2.521   7.531   0.237 -1.5080 -2.1490 -1.2514
   63MOL   H25318977   2.456   7.560   0.389 -0.5771 -1.1359 -0.0662
   63MOL   H25418978   2.569   7.422   0.374 -0.7449 -1.3168  0.0670
   63MOL   H25518979   2.091   7.054   0.122  2.0815  0.5349 -2.8684
   63MOL   H25618980   2.168   6.905   0.175 -0.7400 -0.3941  2.8817
   63MOL   C25718981   2.139   7.026   0.332  1.3224  0.0816  0.1767
   63MOL   O25818982   2.077   7.158   0.336  0.2114  0.9489 -0.1865
   63MOL   C25918983   2.090   7.238   0.445  0.4345  0.3954  0.8770
   63MOL   O26018984   2.153   7.202   0.547 -0.3971 -0.2779  0.5473
   63MOL   C26118985   2.044   7.384   0.433  0.3042 -0.4513 -0.2088
   63MOL   C26218986   1.906   7.403   0.355 -0.4969  0.3783 -0.2578
   63MOL   C26318987   2.028   6.922   0.370  0.4949  0.0524  0.1203
   63MOL   H26418988   2.224   7.015   0.399  0.6773 -3.2829  0.5351
   63MOL   H26518989   2.054   7.427   0.533  0.0838  1.5700 -1.0412
   63MOL   H26618990   2.116   7.441   0.374  1.1253  0.1225  1.2994
   63MOL   H26718991   1.840   7.347   0.421 -1.4332  2.3884  0.5459
   63MOL   H26818992   1.878   7.508   0.357 -4.4434 -0.5827  0.4539
   63MOL   H26918993   1.909   7.359   0.255 -0.5107  1.6564 -0.8296
   63MOL   H27018994   1.945   6.929   0.300 -1.5373 -1.6696  2.2641
   63MOL   H27118995   2.060   6.820   0.351 -1.7909 -0.9059  1.2151
   63MOL   C27218996   1.969   6.934   0.509  0.1296 -0.6920  0.4980
   63MOL   O27318997   1.846   6.849   0.518 -0.6532 -0.0472  0.3148
   63MOL   C27418998   1.728   6.898   0.481  0.1389 -0.8185  0.1709
   63MOL   O27518999   1.710   7.017   0.455  0.1406  0.1236  0.1969
   63MOL   C27619000   1.628   6.790   0.447 -0.2995  0.2385 -0.2929
   63MOL   C27719001   1.560   6.810   0.307 -0.8140 -0.3915  0.0518
   63MOL   C27819002   2.070   6.899   0.621 -0.6330  0.2806 -0.3548
   63MOL   H27919003   1.946   7.037   0.536  0.6423 -0.5897  0.5504
   63MOL   H28019004   1.694   6.703   0.444 -0.4115  0.1531 -0.2742
   63MOL   H28119005   1.567   6.759   0.531  2.6642 -3.3355  0.6710
   63MOL   H28219006   1.530   6.713   0.266  1.8307 -1.6026  0.9013
   63MOL   H28319007   1.480   6.884   0.315 -1.5950 -1.0825 -1.1528
   63MOL   H28419008   1.625   6.870   0.243 -0.4584  0.6220  1.3433
   63MOL   H28519009   2.109   6.797   0.621 -2.8980 -0.6173 -1.3796
   63MOL   H28619010   2.166   6.950   0.611 -0.2269 -0.3123  0.4192
   63MOL   C28719011   2.029   6.943   0.763 -0.1092 -0.0667 -0.0041
   63MOL   O28819012   1.903   6.884   0.800 -0.2592 -0.1484  0.0099
   63MOL   C28919013   1.826   6.927   0.893 -1.1857 -0.3523  0.1571
   63MOL   O29019014   1.857   7.028   0.960  0.1653  0.6299 -0.7212
   63MOL   C29119015   1.690   6.856   0.898 -0.7809  0.3303  0.3793
   63MOL   C29219016   1.699   6.706   0.933 -0.1144 -0.0322 -0.8527
   63MOL   C29319017   2.136   6.911   0.873  0.5803 -0.0972 -0.7487
   63MOL   H29419018   2.007   7.050   0.752 -0.2293 -0.0296  0.5683
   63MOL   H29519019   1.626   6.900   0.974 -1.6536 -1.2672  0.6047
   63MOL   H29619020   1.641   6.869   0.801 -0.7251  1.3254  0.4774
   63MOL   H29719021   1.602   6.677   0.975  1.4308 -0.5919  2.5569
   63MOL   H29819022   1.743   6.650   0.851  0.3568  1.4039 -1.5983
   63MOL   H29919023   1.771   6.688   1.013 -0.0905 -2.5694 -1.4181
   63MOL   H30019024   2.123   6.972   0.963 -0.1964 -1.5391  0.1313
   63MOL   H30119025   2.124   6.811   0.913 -0.3740  0.4749  0.4196
   63MOL   H30219026   2.239   6.933   0.843  1.1957 -1.8245  0.0486
   64MOL     C119027   3.029   4.550   5.103  0.6892 -0.2628 -0.1480
   64MOL     O219028   2.964   4.672   5.127  0.8172 -0.2196 -0.5524
   64MOL     C319029   2.932   4.754   5.028  0.4862  0.1610  0.3446
   64MOL     O419030   2.919   4.727   4.908 -0.4871  0.2237  0.2099
   64MOL     C519031   2.908   4.904   5.078 -0.1186 -0.7510  0.1699
   64MOL     C619032   3.017   4.964   5.164 -0.6797 -0.9321 -0.0793
   64MOL     C719033   3.184   4.550   5.094  0.0338  0.1693 -0.3267
   64MOL     H819034   2.988   4.515   5.008 -1.6865  1.3410  0.2565
   64MOL     H919035   2.902   4.969   4.991  1.2799  1.2486  1.5328
   64MOL    H1019036   2.821   4.919   5.142  0.0576 -1.9804  0.7190
   64MOL    H1119037   2.983   4.982   5.266 -1.9775 -1.7120 -0.3687
   64MOL    H1219038   3.089   4.885   5.186 -1.0934 -0.7100  2.1671
   64MOL    H1319039   3.077   5.045   5.123 -1.8392  1.0671  2.0652
   64MOL    H1419040   3.226   4.456   5.059  2.3162  1.8483 -2.2994
   64MOL    H1519041   3.221   4.601   5.004 -1.9812  3.8841  0.8409
   64MOL    H1619042   2.986   4.474   5.169 -1.8224  0.3563 -1.0106
   64MOL    C1719043   3.260   4.592   5.220 -1.1446 -0.1086  0.2915
   64MOL    O1819044   3.221   4.502   5.328 -0.0208 -0.2341 -0.0109
   64MOL    C1919045   3.160   4.556   5.440  0.4331  0.4793 -0.0041
   64MOL    O2019046   3.134   4.675   5.461 -0.9190  0.0903 -0.5100
   64MOL    C2119047   3.116   4.450   5.541 -0.0245  0.1559 -0.0607
   64MOL    C2219048   3.055   4.321   5.489 -0.0187 -0.4054  0.9810
   64MOL    C2319049   3.411   4.595   5.182  1.1212  0.3571  0.0109
   64MOL    H2419050   3.227   4.695   5.232  2.1035  1.1367 -0.7772
   64MOL    H2519051   3.199   4.429   5.610 -1.4324 -0.1947  1.5670
   64MOL    H2619052   3.040   4.493   5.607  0.4913 -2.8827  2.6363
   64MOL    H2719053   3.116   4.274   5.412 -0.9641  0.1480 -0.1192
   64MOL    H2819054   3.044   4.250   5.571  1.7063  0.5811  2.0918
   64MOL    H2919055   2.953   4.336   5.454  0.3111 -0.5624 -0.0712
   64MOL    H3019056   3.420   4.491   5.153 -0.5320 -0.0844  1.0251
   64MOL    H3119057   3.428   4.654   5.091 -2.4780  0.3514 -0.7468
   64MOL    C3219058   3.511   4.633   5.299 -0.0082 -0.3567 -0.9702
   64MOL    O3319059   3.639   4.586   5.249 -0.1541 -0.1210  0.0108
   64MOL    C3419060   3.683   4.459   5.269  0.1392  0.8446  0.8710
   64MOL    O3519061   3.630   4.372   5.335  0.0961  0.0821  0.1081
   64MOL    C3619062   3.814   4.447   5.203 -0.6971  0.2465 -0.1304
   64MOL    C3719063   3.798   4.453   5.051  0.0799 -1.1060  0.4325
   64MOL    C3819064   3.520   4.779   5.337 -0.5633  1.3012 -0.5933
   64MOL    H3919065   3.490   4.566   5.383 -0.9580  2.5924  1.2351
   64MOL    H4019066   3.884   4.521   5.242 -1.2291 -0.7458  2.7906
   64MOL    H4119067   3.849   4.347   5.230 -1.1216  0.7088  2.2298
   64MOL    H4219068   3.753   4.545   5.015  1.2918 -0.8957 -0.5642
   64MOL    H4319069   3.898   4.460   5.008 -0.3173 -0.2046 -0.3592
   64MOL    H4419070   3.743   4.366   5.015 -0.4929 -1.0305  1.1031
   64MOL    H4519071   3.542   4.839   5.248 -0.4596  1.7909 -0.2399
   64MOL    H4619072   3.419   4.816   5.357 -0.3736  1.7119 -0.3790
   64MOL    C4719073   3.606   4.792   5.465 -0.0288  0.2259 -0.0890
   64MOL    O4819074   3.749   4.778   5.437  0.2472 -0.4350  0.0474
   64MOL    C4919075   3.830   4.695   5.496 -0.1282 -0.0910  0.0652
   64MOL    O5019076   3.803   4.619   5.591 -0.5170  0.0710 -0.1154
   64MOL    C5119077   3.978   4.700   5.439 -0.3840  0.1044  0.5343
   64MOL    C5219078   4.084   4.680   5.549  0.1118 -0.2720  0.0670
   64MOL    C5319079   3.585   4.929   5.540 -0.0420  0.2320  0.9219
   64MOL    H5419080   3.582   4.717   5.541 -0.9437 -1.3101 -1.8631
   64MOL    H5519081   3.998   4.631   5.357  1.4749  1.2783 -0.0149
   64MOL    H5619082   3.985   4.806   5.415  1.0457  0.0867  0.8271
   64MOL    H5719083   4.068   4.731   5.644  1.3838 -0.8113  0.5834
   64MOL    H5819084   4.102   4.575   5.573  0.0018 -0.8188 -2.1108
   64MOL    H5919085   4.182   4.714   5.516  0.3807  0.5439  1.6760
   64MOL    H6019086   3.658   4.948   5.620  0.8570 -0.9591  0.4023
   64MOL    H6119087   3.593   5.008   5.466 -2.9138  1.2028  1.5882
   64MOL    C6219088   3.454   4.946   5.616 -1.0801 -0.0801  0.2428
   64MOL    O6319089   3.472   4.859   5.729 -0.2962  0.5131 -0.3214
   64MOL    C6419090   3.377   4.778   5.774  0.1113 -0.0297 -0.0686
   64MOL    O6519091   3.257   4.772   5.734  0.6242  0.3690 -0.0210
   64MOL    C6619092   3.414   4.686   5.893  0.4930 -0.1610 -0.6936
   64MOL    C6719093   3.567   4.686   5.912 -0.3518 -0.3332 -0.6159
   64MOL    C6819094   3.435   5.089   5.665  0.1048 -0.2575 -0.4991
   64MOL    H6919095   3.365   4.914   5.564 -0.1556 -0.6547 -1.0070
   64MOL    H7019096   3.367   4.725   5.983 -0.1938 -1.3650 -0.5236
   64MOL    H7119097   3.384   4.583   5.876 -1.4394  0.1219  0.8932
   64MOL    H7219098   3.597   4.766   5.980 -0.7650  0.9154 -1.8687
   64MOL    H7319099   3.589   4.592   5.962 -1.6117  0.5263  1.6252
   64MOL    H7419100   3.631   4.698   5.824  0.1065  0.3709 -0.1938
   64MOL    H7519101   3.521   5.130   5.719 -0.2882 -0.4141  0.2529
   64MOL    H7619102   3.435   5.151   5.575 -1.3259  3.3138  1.8236
   64MOL    C7719103   3.307   5.118   5.750  0.0307  0.4118  0.2064
   64MOL    O7819104   3.316   5.249   5.812  0.1615  0.1952 -0.1219
   64MOL    C7919105   3.323   5.371   5.754 -0.7010  1.3038 -0.5749
   64MOL    O8019106   3.301   5.399   5.641  0.2279  0.1043 -0.1817
   64MOL    C8119107   3.333   5.487   5.852  0.0551 -0.2480  0.0908
   64MOL    C8219108   3.466   5.562   5.853  0.1571  0.3961  0.0341
   64MOL    C8319109   3.179   5.086   5.674 -1.0064 -0.0863  0.5309
   64MOL    H8419110   3.317   5.045   5.830  0.5363 -0.1923 -0.3961
   64MOL    H8519111   3.247   5.554   5.855  0.2592  0.0553 -1.0312
   64MOL    H8619112   3.329   5.434   5.948 -0.1368 -1.2642 -0.4658
   64MOL    H8719113   3.453   5.657   5.802 -0.6548 -0.4229 -1.3050
   64MOL    H8819114   3.489   5.589   5.957  0.2418  0.1117  0.0911
   64MOL    H8919115   3.551   5.513   5.805  0.5262 -0.5322  1.6072
   64MOL    H9019116   3.158   5.162   5.598  0.8830  0.1676  0.2521
   64MOL    H9119117   3.178   4.988   5.627 -2.0152  0.4036 -0.4975
   64MOL    C9219118   3.065   5.074   5.774  0.2529  0.1437 -0.6875
   64MOL    O9319119   2.994   5.198   5.784 -0.3899  0.5926 -0.6001
   64MOL    C9419120   2.970   5.246   5.903 -0.1086 -0.0404  0.2485
   64MOL    O9519121   2.993   5.196   6.010 -0.2882 -0.2074 -0.1629
   64MOL    C9619122   2.909   5.387   5.897  0.8451 -0.1333 -0.7830
   64MOL    C9719123   2.771   5.373   5.845  0.0800 -0.0567 -0.7167
   64MOL    C9819124   2.957   4.964   5.742 -0.6679 -0.5160  0.5273
   64MOL    H9919125   3.109   5.048   5.871  1.1820 -1.3320 -1.5000
   64MOL   H10019126   2.917   5.426   5.999  2.6362 -2.0280 -0.1626
   64MOL   H10119127   2.971   5.454   5.839  3.7380 -1.6601  0.4288
   64MOL   H10219128   2.767   5.305   5.760  1.0261 -0.4691 -0.4322
   64MOL   H10319129   2.698   5.336   5.917  1.2400 -1.3306 -0.1868
   64MOL   H10419130   2.737   5.474   5.822  1.9821  1.2037  1.8110
   64MOL   H10519131   2.891   4.995   5.660 -1.4169 -3.8390 -0.2217
   64MOL   H10619132   3.016   4.882   5.701  0.6684  1.8553 -2.5440
   64MOL   C10719133   2.889   4.908   5.867 -0.4027 -0.1857  0.2455
   64MOL   O10819134   2.774   4.831   5.838 -0.5880  0.4385  0.0851
   64MOL   C10919135   2.649   4.882   5.842  0.0830 -0.4859 -0.4144
   64MOL   O11019136   2.619   4.998   5.864 -0.3080  0.1211 -0.7329
   64MOL   C11119137   2.534   4.788   5.803  0.2310 -0.1725  0.2638
   64MOL   C11219138   2.577   4.636   5.796  0.6375 -0.0713  0.4755
   64MOL   C11319139   2.971   4.830   5.965 -0.7752 -0.5757  0.4626
   64MOL   H11419140   2.853   4.992   5.927  0.0229 -0.6630  1.1799
   64MOL   H11519141   2.448   4.810   5.867 -0.6638  2.3274 -1.6842
   64MOL   H11619142   2.503   4.820   5.703 -0.3316  0.0962  0.5211
   64MOL   H11719143   2.684   4.622   5.812  0.8218  1.6853  0.8547
   64MOL   H11819144   2.528   4.558   5.855 -0.5153 -0.1326 -0.5468
   64MOL   H11919145   2.560   4.599   5.695  0.0213  1.1963  0.1092
   64MOL   H12019146   2.946   4.724   5.956  0.6536 -0.8051 -0.9594
   64MOL   H12119147   3.076   4.838   5.936 -0.6989 -0.3187  0.8072
   64MOL   C12219148   2.951   4.869   6.116 -0.1863 -0.0877  0.2918
   64MOL   O12319149   2.810   4.843   6.152  0.3122  0.3114  0.1239
   64MOL   C12419150   2.736   4.943   6.203  0.2298 -0.5553  0.3460
   64MOL   O12519151   2.772   5.057   6.242  0.1081  0.4130 -0.2776
   64MOL   C12619152   2.584   4.909   6.210 -0.2321  0.0583 -0.3555
   64MOL   C12719153   2.521   4.936   6.342 -0.4296 -0.2976 -0.1265
   64MOL   C12819154   3.046   4.787   6.210 -0.1574 -0.4765 -0.4121
   64MOL   H12919155   2.968   4.975   6.136 -2.2798  0.6650 -1.6442
   64MOL   H13019156   2.542   4.971   6.132  1.0066  0.1483 -0.9715
   64MOL   H13119157   2.554   4.807   6.186 -1.2534  0.6033 -1.4181
   64MOL   H13219158   2.413   4.918   6.344 -0.5540  0.3149  4.7563
   64MOL   H13319159   2.562   4.880   6.426  0.7276 -1.8444 -1.7145
   64MOL   H13419160   2.525   5.040   6.375 -3.3549 -1.5262  4.6918
   64MOL   H13519161   3.008   4.816   6.308 -0.2259 -1.5434 -0.1182
   64MOL   H13619162   3.025   4.680   6.199 -1.1768 -0.6279  2.4707
   64MOL   C13719163   3.193   4.812   6.190  0.0380 -0.3557 -0.6682
   64MOL   O13819164   3.221   4.952   6.218 -1.7091 -0.1003  0.4921
   64MOL   C13919165   3.314   5.016   6.148 -0.0036 -0.3198  0.5849
   64MOL   O14019166   3.386   4.967   6.058 -0.0698 -0.1956  0.0385
   64MOL   C14119167   3.309   5.161   6.187 -0.0376 -0.4288 -0.9267
   64MOL   C14219168   3.358   5.187   6.332 -0.4247 -0.1657  0.7200
   64MOL   C14319169   3.287   4.730   6.271 -0.0605  0.4122  0.3585
   64MOL   H14419170   3.214   4.803   6.083  1.9107  1.2001 -0.4458
   64MOL   H14519171   3.373   5.221   6.121  0.5031 -0.3698 -0.3502
   64MOL   H14619172   3.210   5.205   6.177 -0.1136 -0.6201 -1.0133
   64MOL   H14719173   3.369   5.291   6.362 -2.0434  0.1684  0.2061
   64MOL   H14819174   3.288   5.143   6.402 -1.3612 -0.0226 -0.1139
   64MOL   H14919175   3.449   5.127   6.341 -1.7754 -2.6621 -1.4556
   64MOL   H15019176   3.389   4.748   6.238  0.5996 -1.2232  1.4368
   64MOL   H15119177   3.289   4.754   6.377 -0.3647  0.0407  0.4539
   64MOL   C15219178   3.267   4.573   6.258 -0.5878  0.9393  0.1182
   64MOL   O15319179   3.247   4.535   6.122  0.0054  0.4584 -0.5814
   64MOL   C15419180   3.161   4.439   6.089 -0.9289 -0.8516  0.3783
   64MOL   O15519181   3.076   4.392   6.168 -0.5527 -0.1567  0.2026
   64MOL   C15619182   3.164   4.395   5.946 -0.7339  0.6245 -0.1532
   64MOL   C15719183   3.095   4.257   5.925  0.1963 -0.2298  0.5168
   64MOL   C15819184   3.389   4.488   6.301 -0.1415 -0.4317  0.3237
   64MOL   H15919185   3.179   4.549   6.318 -0.6129 -0.2059 -0.3708
   64MOL   H16019186   3.139   4.471   5.872  0.4735  0.8153 -0.3802
   64MOL   H16119187   3.270   4.379   5.925 -1.1405 -0.9099 -1.1586
   64MOL   H16219188   3.152   4.169   5.954  0.9957  0.1183  0.0111
   64MOL   H16319189   2.998   4.249   5.975  1.0072 -0.7524  2.0326
   64MOL   H16419190   3.088   4.241   5.817  0.4702  0.9580  0.3198
   64MOL   H16519191   3.386   4.385   6.265  1.4425 -0.1333 -0.7253
   64MOL   H16619192   3.469   4.518   6.233 -0.4661 -1.2930 -0.4522
   64MOL   C16719193   3.436   4.504   6.445  0.5822 -0.1339 -0.1490
   64MOL   O16819194   3.341   4.433   6.527  0.2173  0.8834 -0.2170
   64MOL   C16919195   3.277   4.502   6.621 -0.0335  0.5245  0.4256
   64MOL   O17019196   3.268   4.625   6.638 -0.3332 -0.5776  0.6845
   64MOL   C17119197   3.205   4.413   6.721 -0.8884 -0.2702  0.3460
   64MOL   C17219198   3.057   4.423   6.707 -0.0081 -0.4636 -0.1675
   64MOL   C17319199   3.576   4.433   6.460  0.0591  0.4407  0.0594
   64MOL   H17419200   3.442   4.611   6.463 -0.0554 -0.1988  0.4437
   64MOL   H17519201   3.243   4.313   6.701 -3.1227 -1.3735  1.4118
   64MOL   H17619202   3.237   4.442   6.821 -0.4322 -1.4850  0.5556
   64MOL   H17719203   2.998   4.357   6.770  1.5809 -1.9472 -0.2080
   64MOL   H17819204   3.024   4.526   6.723  1.1359  0.2093 -1.9465
   64MOL   H17919205   3.037   4.402   6.602  0.2669  1.4611 -0.6332
   64MOL   H18019206   3.604   4.425   6.565 -0.2770  0.7688  0.1781
   64MOL   H18119207   3.567   4.333   6.416  0.8675 -0.0161  0.9181
   64MOL   C18219208   3.700   4.495   6.386 -0.2450 -0.4867 -0.0565
   64MOL   O18319209   3.722   4.623   6.434  0.0894 -0.3161 -1.2387
   64MOL   C18419210   3.742   4.728   6.347  0.3704 -0.1524 -0.8991
   64MOL   O18519211   3.779   4.718   6.231 -0.0157  0.5998  0.7890
   64MOL   C18619212   3.718   4.860   6.408 -0.6239  0.1512 -0.0510
   64MOL   C18719213   3.574   4.862   6.452 -0.5170 -0.2958 -0.2973
   64MOL   C18819214   3.824   4.404   6.418 -0.8764  0.1619  0.0519
   64MOL   H18919215   3.680   4.492   6.279 -1.9614  1.1308  0.1838
   64MOL   H19019216   3.787   4.878   6.491 -1.0595 -0.6030  0.4878
   64MOL   H19119217   3.733   4.937   6.333  0.8479  1.0725  1.1550
   64MOL   H19219218   3.539   4.965   6.449  1.9831  0.5373 -1.7648
   64MOL   H19319219   3.504   4.820   6.380 -1.2318 -0.4269  0.4619
   64MOL   H19419220   3.558   4.815   6.549  1.2186  2.1016  1.1938
   64MOL   H19519221   3.866   4.408   6.519  0.6804 -1.4316 -0.5054
   64MOL   H19619222   3.797   4.299   6.414 -1.8879  0.4458 -0.6881
   64MOL   C19719223   3.934   4.422   6.308  0.4548 -0.2811 -0.3695
   64MOL   O19819224   4.042   4.346   6.352  0.0170  0.8487 -0.4320
   64MOL   C19919225   4.142   4.391   6.435  0.6553  0.1292  1.0677
   64MOL   O20019226   4.153   4.505   6.485  0.0765  0.2233 -0.3079
   64MOL   C20119227   4.248   4.284   6.455  0.2417  0.5665  0.7544
   64MOL   C20219228   4.364   4.296   6.549  0.1425 -0.0135 -0.6757
   64MOL   C20319229   3.892   4.384   6.162  0.2400  0.9628 -0.0699
   64MOL   H20419230   3.962   4.527   6.302 -0.8277  0.1776  1.2456
   64MOL   H20519231   4.195   4.191   6.477  1.1902 -0.3264 -0.5850
   64MOL   H20619232   4.293   4.254   6.360 -0.0522 -0.4538  0.9268
   64MOL   H20719233   4.441   4.220   6.533  0.2395 -0.2460  0.8230
   64MOL   H20819234   4.415   4.391   6.531 -1.9299  1.1074 -0.7451
   64MOL   H20919235   4.336   4.293   6.654 -3.5795  2.5064 -1.4851
   64MOL   H21019236   3.838   4.468   6.118  0.2336 -0.1259 -2.1821
   64MOL   H21119237   3.982   4.373   6.103  1.4905  0.2484  1.9124
   64MOL   C21219238   3.793   4.259   6.150 -0.7530  0.3984 -0.7261
   64MOL   O21319239   3.744   4.239   6.017 -0.0175  0.4244  0.0683
   64MOL   C21419240   3.629   4.284   5.978  0.7456 -0.5370  0.2541
   64MOL   O21519241   3.548   4.357   6.035  0.1062  0.1579  1.0532
   64MOL   C21619242   3.598   4.256   5.834 -0.2285 -0.4205  0.0980
   64MOL   C21719243   3.676   4.354   5.733 -0.5228  0.0535 -0.0101
   64MOL   C21819244   3.869   4.130   6.192  0.2146  0.3992 -0.2464
   64MOL   H21919245   3.708   4.279   6.216 -2.7406  0.5684 -3.2556
   64MOL   H22019246   3.624   4.154   5.808 -0.8265 -0.6031  0.2184
   64MOL   H22119247   3.494   4.270   5.806 -1.0207 -2.9210  1.6926
   64MOL   H22219248   3.667   4.318   5.630  0.8094  2.4672 -1.0089
   64MOL   H22319249   3.629   4.452   5.737  0.3467  0.5244 -0.9570
   64MOL   H22419250   3.783   4.362   5.750 -0.2011 -0.2208 -1.7345
   64MOL   H22519251   3.928   4.114   6.101  0.1882  1.7680 -0.5156
   64MOL   H22619252   3.936   4.159   6.273 -1.2522  2.2550  0.3270
   64MOL   C22719253   3.787   4.006   6.226 -0.1432  0.2184 -0.0554
   64MOL   O22819254   3.697   4.019   6.337 -0.4008  0.0395  0.0402
   64MOL   C22919255   3.757   4.033   6.463 -0.2429  0.3956 -0.4171
   64MOL   O23019256   3.871   4.058   6.494  0.2897 -0.2168 -0.0638
   64MOL   C23119257   3.646   4.012   6.566 -0.5724  0.5792 -0.2517
   64MOL   C23219258   3.668   4.100   6.685 -0.5176  0.0405 -0.2945
   64MOL   C23319259   3.707   3.951   6.110 -0.1181 -0.0565  0.4617
   64MOL   H23419260   3.863   3.932   6.254 -1.0929  0.0907  2.2316
   64MOL   H23519261   3.552   4.028   6.514 -0.8739  1.2782  0.4841
   64MOL   H23619262   3.650   3.910   6.604  2.7291  0.9342  0.5422
   64MOL   H23719263   3.710   4.042   6.766  1.9514 -0.6488 -2.0059
   64MOL   H23819264   3.717   4.197   6.677  1.3439 -0.8564  0.1200
   64MOL   H23919265   3.569   4.131   6.721 -0.2178 -0.3838  0.9053
   64MOL   H24019266   3.656   3.863   6.151  1.3031 -2.4517 -2.7684
   64MOL   H24119267   3.630   4.017   6.071 -0.8114 -0.6560  0.7923
   64MOL   C24219268   3.787   3.908   5.986 -0.5146 -0.7097 -0.0095
   64MOL   O24319269   3.891   3.823   6.026 -0.3071 -0.0890 -0.1579
   64MOL   C24419270   4.007   3.812   5.951  0.2982  1.6515 -0.1283
   64MOL   O24519271   4.042   3.891   5.863  0.3942  0.2272 -0.1190
   64MOL   C24619272   4.087   3.684   5.987 -0.2806  0.5231  0.1719
   64MOL   C24719273   4.229   3.685   5.920  0.1758 -0.6837  0.3667
   64MOL   C24819274   3.707   3.864   5.860  0.6967 -0.1017 -0.1822
   64MOL   H24919275   3.830   4.000   5.947  1.0561 -1.4544 -0.0870
   64MOL   H25019276   4.096   3.666   6.094 -2.0252 -1.5343  0.0191
   64MOL   H25119277   4.023   3.604   5.949 -0.0696  0.6922 -0.5458
   64MOL   H25219278   4.218   3.692   5.811  2.9497  0.0957  0.0993
   64MOL   H25319279   4.291   3.768   5.953 -2.6654 -0.1221  4.6395
   64MOL   H25419280   4.283   3.591   5.929 -0.4884 -1.3228 -1.9140
   64MOL   H25519281   3.645   3.945   5.820  1.1547 -0.1453 -0.9824
   64MOL   H25619282   3.775   3.835   5.781  1.2625  0.2891  0.1615
   64MOL   C25719283   3.616   3.739   5.883 -0.2702 -0.1259 -0.1445
   64MOL   O25819284   3.494   3.784   5.944  0.6469  0.3892 -0.0692
   64MOL   C25919285   3.405   3.702   6.011 -0.0858 -0.3018 -0.3248
   64MOL   O26019286   3.415   3.581   6.011  0.2893  0.1664 -0.2732
   64MOL   C26119287   3.289   3.768   6.083 -0.3236  0.6024  0.2955
   64MOL   C26219288   3.231   3.891   6.010  0.1663 -0.1198  0.0774
   64MOL   C26319289   3.595   3.656   5.759 -0.6319 -0.0849  0.1278
   64MOL   H26419290   3.661   3.671   5.955 -0.8060 -0.3722 -0.0369
   64MOL   H26519291   3.203   3.702   6.097 -0.0944  0.4706  1.1495
   64MOL   H26619292   3.328   3.791   6.182 -2.2942  1.1316  0.9707
   64MOL   H26719293   3.259   3.984   6.060  3.3606 -1.4881  0.9496
   64MOL   H26819294   3.265   3.889   5.907  1.7238 -3.2659  0.6027
   64MOL   H26919295   3.122   3.890   6.009  0.1459  0.9804  0.3231
   64MOL   H27019296   3.498   3.606   5.768 -1.1183  1.1956  2.6470
   64MOL   H27119297   3.587   3.730   5.679 -1.2373 -0.7315 -0.4140
   64MOL   C27219298   3.686   3.535   5.721 -0.3268  0.2395 -0.8080
   64MOL   O27319299   3.817   3.576   5.682  0.2608  0.3760 -0.3011
   64MOL   C27419300   3.864   3.563   5.549  0.4357  0.7512  0.2135
   64MOL   O27519301   3.797   3.529   5.449  0.4899  0.7323  0.2554
   64MOL   C27619302   4.001   3.613   5.535  0.5574  0.0904  1.0871
   64MOL   C27719303   4.013   3.768   5.541  0.0929 -0.0726  0.3078
   64MOL   C27819304   3.699   3.435   5.838  0.1442 -0.8758 -0.0636
   64MOL   H27919305   3.638   3.483   5.638  1.1342 -1.1293 -0.8290
   64MOL   H28019306   4.057   3.552   5.606 -2.3846 -1.9770  1.7458
   64MOL   H28119307   4.031   3.587   5.434 -0.1054  0.1377  0.8757
   64MOL   H28219308   3.984   3.801   5.641  0.8626  0.3187  0.4087
   64MOL   H28319309   4.117   3.791   5.515 -0.5033 -1.6400 -3.8645
   64MOL   H28419310   3.948   3.815   5.468  0.1243 -0.2583  0.1601
   64MOL   H28519311   3.754   3.470   5.926 -0.6782  1.2855 -0.3839
   64MOL   H28619312   3.601   3.417   5.881  0.0774 -2.0671 -0.7112
   64MOL   C28719313   3.749   3.301   5.794  0.2794  0.6683 -0.6781
   64MOL   O28819314   3.888   3.296   5.770 -0.9897  0.1933  0.3040
   64MOL   C28919315   3.939   3.210   5.688  0.2061 -0.5387  1.0709
   64MOL   O29019316   3.876   3.146   5.602 -0.0754  0.3748 -0.0131
   64MOL   C29119317   4.089   3.214   5.702  0.0686  0.1939  0.2788
   64MOL   C29219318   4.160   3.120   5.595  0.0894 -0.1275 -0.0895
   64MOL   C29319319   3.703   3.200   5.906  0.2984  0.4264  0.3708
   64MOL   H29419320   3.691   3.283   5.703  0.8911 -0.6615 -0.8124
   64MOL   H29519321   4.114   3.320   5.690 -1.1410  0.6872  2.0331
   64MOL   H29619322   4.115   3.193   5.805 -1.5398 -0.5987  0.5337
   64MOL   H29719323   4.266   3.144   5.593 -0.1419  0.8469 -1.4326
   64MOL   H29819324   4.147   3.015   5.618 -0.2292 -0.6956 -2.7838
   64MOL   H29919325   4.119   3.128   5.494  0.6570 -0.8245 -0.3759
   64MOL   H30019326   3.727   3.095   5.893  1.9175  1.2026 -3.2713
   64MOL   H30119327   3.747   3.232   6.000  0.8419 -0.6536  0.4875
   64MOL   H30219328   3.596   3.209   5.926  0.2744 -0.0283  0.4437
   65MOL     C119329   5.698   4.612   4.350 -0.2122 -0.5767  0.0048
   65MOL     O219330   5.764   4.734   4.397 -0.7472  0.1030 -0.5870
   65MOL     C319331   5.786   4.833   4.300 -0.2242  0.1830  0.0483
   65MOL     O419332   5.734   4.843   4.194  0.2373  0.1454  0.4785
   65MOL     C519333   5.881   4.935   4.362  0.0821 -0.3819 -0.4926
   65MOL     C619334   6.028   4.889   4.340 -0.0906  0.3407 -0.1684
   65MOL     C719335   5.756   4.489   4.418  0.6909 -0.0128 -0.2176
   65MOL     H819336   5.704   4.621   4.242 -0.7952 -1.7637 -0.1315
   65MOL     H919337   5.857   5.033   4.321 -0.4377  0.2297  1.2222
   65MOL    H1019338   5.853   4.949   4.466 -0.0637  1.6057 -0.7862
   65MOL    H1119339   6.085   4.951   4.410  3.4339  0.4043 -2.9587
   65MOL    H1219340   6.043   4.791   4.384 -0.6262  0.6254  0.6699
   65MOL    H1319341   6.067   4.899   4.239 -0.2964  0.1468 -0.2638
   65MOL    H1419342   5.824   4.437   4.350  2.0291  0.3498  0.8144
   65MOL    H1519343   5.802   4.507   4.515 -2.1550 -1.0073  1.3758
   65MOL    H1619344   5.590   4.608   4.368 -0.0689  0.3202  1.1351
   65MOL    C1719345   5.649   4.384   4.447  0.0417 -0.4468  0.2227
   65MOL    O1819346   5.634   4.308   4.323 -0.1254 -0.5885 -0.0003
   65MOL    C1919347   5.548   4.350   4.223 -0.1761 -1.0276 -0.0689
   65MOL    O2019348   5.486   4.453   4.234  0.3543  0.6224  0.0661
   65MOL    C2119349   5.549   4.271   4.095 -0.0977  0.0967  0.3033
   65MOL    C2219350   5.679   4.306   4.013  0.5887 -0.7023  0.4690
   65MOL    C2319351   5.707   4.299   4.565 -0.3474  0.8482 -0.4990
   65MOL    H2419352   5.551   4.428   4.470 -0.9083 -1.7324 -1.3397
   65MOL    H2519353   5.553   4.169   4.133  0.4723 -1.0311 -2.6035
   65MOL    H2619354   5.462   4.283   4.031  0.4536 -0.5103 -0.5878
   65MOL    H2719355   5.660   4.404   3.969 -1.7456 -1.1191  0.4879
   65MOL    H2819356   5.770   4.314   4.072  0.5119 -0.2648  0.5301
   65MOL    H2919357   5.694   4.237   3.931 -1.2466  0.3246 -0.7662
   65MOL    H3019358   5.804   4.261   4.535 -0.8859 -2.4475  1.6139
   65MOL    H3119359   5.732   4.366   4.647  1.4011 -0.0060 -0.3209
   65MOL    C3219360   5.612   4.200   4.625 -0.2314  0.1687 -0.7844
   65MOL    O3319361   5.604   4.098   4.526 -0.4212  0.0412 -0.1995
   65MOL    C3419362   5.472   4.036   4.510 -0.2845 -0.4192  0.0738
   65MOL    O3519363   5.375   4.053   4.579  0.5582 -0.0360  0.6632
   65MOL    C3619364   5.463   3.965   4.378  0.0118 -0.0011  0.7894
   65MOL    C3719365   5.587   3.889   4.342  0.3242  0.0635  1.0591
   65MOL    C3819366   5.657   4.154   4.767 -0.0382  0.3275  0.1489
   65MOL    H3919367   5.514   4.246   4.613 -1.2107 -1.6926 -0.1696
   65MOL    H4019368   5.379   3.895   4.374  0.1701 -0.1939  0.8503
   65MOL    H4119369   5.443   4.035   4.297 -0.5025  1.1957  1.9528
   65MOL    H4219370   5.595   3.812   4.419 -2.7451 -0.6497  0.7301
   65MOL    H4319371   5.595   3.840   4.245  1.9779 -1.9433  2.1705
   65MOL    H4419372   5.675   3.954   4.345 -1.6385  2.9232 -1.0603
   65MOL    H4519373   5.619   4.053   4.781  2.9053 -0.8813 -0.3156
   65MOL    H4619374   5.765   4.142   4.755 -0.0260 -0.3068  0.8604
   65MOL    C4719375   5.614   4.246   4.884 -0.8213  0.1698 -0.1765
   65MOL    O4819376   5.472   4.245   4.902  0.4612 -0.2169  0.1720
   65MOL    C4919377   5.401   4.334   4.837 -0.3519  0.3892  0.3427
   65MOL    O5019378   5.444   4.423   4.767  0.6312  0.2952 -0.5381
   65MOL    C5119379   5.255   4.346   4.881  0.1655 -0.5396  0.1976
   65MOL    C5219380   5.210   4.306   5.030 -0.4533 -0.2097  0.6650
   65MOL    C5319381   5.674   4.215   5.023 -0.2858  0.6755  0.2733
   65MOL    H5419382   5.653   4.344   4.857  0.6989 -0.7078 -1.2103
   65MOL    H5519383   5.221   4.447   4.855 -1.4557 -1.1344 -0.0220
   65MOL    H5619384   5.190   4.296   4.808 -1.4199 -1.0463  1.9108
   65MOL    H5719385   5.175   4.203   5.036 -4.2291  0.7514 -2.7483
   65MOL    H5819386   5.288   4.328   5.103 -1.5019 -0.5164  1.8916
   65MOL    H5919387   5.124   4.363   5.065 -0.4506 -0.9679  1.9454
   65MOL    H6019388   5.668   4.109   5.049  2.0752 -0.2173 -2.5853
   65MOL    H6119389   5.782   4.228   5.030 -0.1432 -1.1667  2.3234
   65MOL    C6219390   5.624   4.302   5.146 -0.3487 -0.5785 -0.0161
   65MOL    O6319391   5.698   4.258   5.260 -0.5216  0.8974 -0.4245
   65MOL    C6419392   5.663   4.144   5.323 -0.9947 -0.1692 -0.1973
   65MOL    O6519393   5.573   4.072   5.302  0.2720  0.0268 -0.2960
   65MOL    C6619394   5.757   4.089   5.421  0.3322 -0.1419 -0.7016
   65MOL    C6719395   5.894   4.050   5.365  0.3657  0.1085  0.8596
   65MOL    C6819396   5.642   4.455   5.112 -0.3625 -0.5808 -0.5785
   65MOL    H6919397   5.521   4.269   5.157 -0.4751  0.7658  3.2476
   65MOL    H7019398   5.758   4.139   5.518  1.1440 -2.1102  0.3242
   65MOL    H7119399   5.707   3.999   5.455 -1.3146  1.0666  0.1635
   65MOL    H7219400   5.927   3.969   5.431 -0.8250  0.1464  1.5091
   65MOL    H7319401   5.885   4.020   5.261 -1.7846  0.2593  0.9933
   65MOL    H7419402   5.976   4.121   5.357 -0.5247  1.4982  3.5188
   65MOL    H7519403   5.749   4.477   5.111 -0.9199  2.2613 -0.2017
   65MOL    H7619404   5.604   4.463   5.010 -0.6722 -3.4087 -0.7226
   65MOL    C7719405   5.573   4.550   5.215 -0.3763 -0.5810  0.2470
   65MOL    O7819406   5.641   4.538   5.337  0.0979  0.1783  0.3339
   65MOL    C7919407   5.578   4.567   5.451 -0.3611  0.5194  0.5617
   65MOL    O8019408   5.458   4.590   5.465 -0.1227  0.4261 -0.1308
   65MOL    C8119409   5.667   4.571   5.578  0.1727 -0.9058 -0.0883
   65MOL    C8219410   5.729   4.714   5.578 -0.6893 -0.0364 -0.6887
   65MOL    C8319411   5.586   4.699   5.159  0.0310 -0.8016 -0.1508
   65MOL    H8419412   5.471   4.516   5.237 -0.5972  0.2883  0.5720
   65MOL    H8519413   5.610   4.554   5.669  0.3468  1.7557  0.5813
   65MOL    H8619414   5.739   4.490   5.571  1.6722  0.2731  1.1399
   65MOL    H8719415   5.804   4.728   5.657 -0.8503  0.3908 -0.6140
   65MOL    H8819416   5.771   4.749   5.484 -1.7488 -0.5933 -1.3792
   65MOL    H8919417   5.651   4.786   5.602 -0.2181 -0.0174  0.8785
   65MOL    H9019418   5.599   4.767   5.243  0.7278 -0.0739 -0.8328
   65MOL    H9119419   5.675   4.709   5.097 -1.9096  0.2007 -2.9031
   65MOL    C9219420   5.461   4.751   5.084 -0.2789  0.7544  0.0279
   65MOL    O9319421   5.351   4.748   5.181 -0.0454  0.7687 -0.0315
   65MOL    C9419422   5.227   4.706   5.146 -0.3083 -0.0071  0.0876
   65MOL    O9519423   5.186   4.677   5.035 -0.2459 -0.1062 -0.2756
   65MOL    C9619424   5.127   4.701   5.263 -0.2368 -0.1977  0.0986
   65MOL    C9719425   5.001   4.619   5.247  0.1682  0.1427  0.1999
   65MOL    C9819426   5.473   4.888   5.027  0.0837  0.2729  0.1695
   65MOL    H9919427   5.436   4.694   4.994 -0.8755  1.0282  0.0133
   65MOL   H10019428   5.187   4.656   5.342  1.6735  0.2123 -1.0739
   65MOL   H10119429   5.108   4.803   5.297 -0.7353 -0.7089  1.3776
   65MOL   H10219430   4.943   4.607   5.339  0.7956  0.0717  0.5921
   65MOL   H10319431   4.942   4.662   5.166 -0.6189  1.0387  1.2371
   65MOL   H10419432   5.040   4.520   5.224  1.2061  0.7903 -0.8775
   65MOL   H10519433   5.376   4.936   5.013  0.0119 -0.1249 -0.7136
   65MOL   H10619434   5.512   4.956   5.102  2.2373 -2.2625  1.4209
   65MOL   C10719435   5.542   4.900   4.885 -0.5287  0.1217 -0.6008
   65MOL   O10819436   5.455   4.842   4.793  0.2477  0.6819  0.4568
   65MOL   C10919437   5.488   4.750   4.699 -0.9284  0.4991 -0.5610
   65MOL   O11019438   5.594   4.695   4.695  0.1092  0.5317  0.6153
   65MOL   C11119439   5.373   4.714   4.604 -0.3268 -0.2821  0.1786
   65MOL   C11219440   5.242   4.680   4.672  0.0885  0.0479  0.0722
   65MOL   C11319441   5.565   5.049   4.835 -0.2187 -0.2090  0.8704
   65MOL   H11419442   5.639   4.850   4.879 -0.1227  1.0273 -2.0056
   65MOL   H11519443   5.354   4.808   4.553  0.3450 -2.2654 -3.9654
   65MOL   H11619444   5.411   4.641   4.532 -0.5071  0.1542 -0.3582
   65MOL   H11719445   5.167   4.654   4.598 -0.3864 -0.2438  0.6573
   65MOL   H11819446   5.269   4.601   4.741  0.0185 -1.5775 -1.7127
   65MOL   H11919447   5.206   4.767   4.726 -0.2950  0.0697 -0.2165
   65MOL   H12019448   5.464   5.081   4.809 -0.0842 -0.3155  0.1846
   65MOL   H12119449   5.589   5.117   4.916 -1.0467  1.2448 -0.0834
   65MOL   C12219450   5.655   5.069   4.713  0.2318 -0.2535  0.1059
   65MOL   O12319451   5.603   5.179   4.629  0.1928  0.0562  0.1500
   65MOL   C12419452   5.564   5.149   4.501  0.1768  0.1784 -0.1612
   65MOL   O12519453   5.562   5.041   4.445  0.1232 -0.2926 -0.1362
   65MOL   C12619454   5.532   5.279   4.428 -0.5742 -0.1237  0.0821
   65MOL   C12719455   5.648   5.382   4.432  0.2571  0.6219  0.1483
   65MOL   C12819456   5.799   5.113   4.747  0.6826 -0.9597 -0.5331
   65MOL   H12919457   5.662   4.973   4.662  1.6855 -0.4592  0.6613
   65MOL   H13019458   5.498   5.268   4.325  0.2482  0.8282 -0.3018
   65MOL   H13119459   5.440   5.322   4.468 -0.9645 -1.8978  1.1246
   65MOL   H13219460   5.646   5.433   4.528 -1.6315  1.2471 -0.2053
   65MOL   H13319461   5.748   5.339   4.424 -0.3604 -1.0748  1.3756
   65MOL   H13419462   5.632   5.463   4.361 -0.6476  0.4438  0.1436
   65MOL   H13519463   5.853   5.127   4.654  1.2559  2.5426  0.2613
   65MOL   H13619464   5.787   5.216   4.780  0.9823 -0.6381 -1.4268
   65MOL   C13719465   5.889   5.036   4.847 -0.2120  1.2063 -0.5586
   65MOL   O13819466   5.929   4.917   4.780 -0.0551 -0.1620 -0.1690
   65MOL   C13919467   5.936   4.797   4.851 -0.5855 -0.3576  0.1933
   65MOL   O14019468   5.897   4.776   4.969  0.1959 -0.2424  0.1990
   65MOL   C14119469   6.004   4.685   4.772  0.1910 -0.4501  0.3172
   65MOL   C14219470   5.956   4.542   4.804 -0.4382 -0.8276  0.0034
   65MOL   C14319471   6.014   5.105   4.897  0.1680  0.0097 -0.3969
   65MOL   H14419472   5.831   5.010   4.936  2.7356 -1.2440  0.7237
   65MOL   H14519473   5.999   4.697   4.664 -1.7053  0.5894  0.4995
   65MOL   H14619474   6.112   4.692   4.787  0.1513  1.6835 -0.1884
   65MOL   H14719475   5.889   4.526   4.889 -2.1583 -3.1301 -1.7404
   65MOL   H14819476   5.923   4.495   4.712 -1.3403  1.4905 -0.8952
   65MOL   H14919477   6.044   4.480   4.823  1.1978  1.7995  1.4160
   65MOL   H15019478   6.078   5.040   4.956 -0.3161 -0.8561 -0.8284
   65MOL   H15119479   6.057   5.123   4.798 -0.3640  1.6268 -0.3501
   65MOL   C15219480   5.984   5.229   4.982  0.4076  0.7116  0.4122
   65MOL   O15319481   5.916   5.194   5.104  0.4178  0.1799 -0.1842
   65MOL   C15419482   5.790   5.237   5.125  0.1012 -0.2729  0.3017
   65MOL   O15519483   5.704   5.280   5.047 -0.0814  0.2004 -0.7306
   65MOL   C15619484   5.738   5.219   5.267 -0.1272 -0.6973  0.0026
   65MOL   C15719485   5.704   5.070   5.293  0.1433  0.2825 -0.1531
   65MOL   C15819486   6.114   5.296   5.021 -0.6923  0.5833 -0.0843
   65MOL   H15919487   5.925   5.306   4.933  0.4322 -0.0172 -0.8021
   65MOL   H16019488   5.825   5.241   5.329  0.9532 -1.0665 -1.3334
   65MOL   H16119489   5.649   5.280   5.280 -0.6940 -1.0428 -1.9737
   65MOL   H16219490   5.733   5.040   5.394 -0.3056 -0.5821 -0.2727
   65MOL   H16319491   5.596   5.057   5.285  0.2825 -1.8304  0.9145
   65MOL   H16419492   5.749   5.002   5.221  0.0788 -1.0179  0.9962
   65MOL   H16519493   6.167   5.221   5.081  0.1244  0.7960 -0.5299
   65MOL   H16619494   6.177   5.288   4.933 -0.5404 -1.1963  0.1714
   65MOL   C16719495   6.112   5.442   5.081  0.2725 -0.3219 -0.6637
   65MOL   O16819496   6.007   5.507   5.011  0.2170  0.3584  0.0323
   65MOL   C16919497   6.024   5.617   4.933 -0.0729 -0.2702 -0.0065
   65MOL   O17019498   6.126   5.692   4.921 -0.1590 -0.4930 -0.2320
   65MOL   C17119499   5.892   5.659   4.860 -0.5579 -0.0984  0.2264
   65MOL   C17219500   5.783   5.555   4.844  0.3504  0.4789 -0.1535
   65MOL   C17319501   6.096   5.449   5.232  0.2462 -0.6842 -0.4201
   65MOL   H17419502   6.203   5.486   5.040 -0.9245  1.1799 -1.7481
   65MOL   H17519503   5.865   5.750   4.914 -2.1987 -0.1809 -0.4046
   65MOL   H17619504   5.915   5.693   4.760 -1.2300 -0.5758 -0.0963
   65MOL   H17719505   5.816   5.461   4.800  2.7862  1.8841 -1.3841
   65MOL   H17819506   5.752   5.535   4.947 -0.7219 -0.8345 -0.7171
   65MOL   H17919507   5.693   5.587   4.792  0.0267 -0.0836  0.0484
   65MOL   H18019508   6.111   5.555   5.256 -1.8105  0.2553 -2.9787
   65MOL   H18119509   5.994   5.432   5.264  0.7856 -2.6887  0.2922
   65MOL   C18219510   6.194   5.370   5.317  0.3746 -0.4258  0.0848
   65MOL   O18319511   6.327   5.382   5.271 -0.1010  0.5262  0.1562
   65MOL   C18419512   6.398   5.281   5.223  0.0741 -0.3722  0.7586
   65MOL   O18519513   6.375   5.160   5.212  0.4598  0.5492 -0.1349
   65MOL   C18619514   6.533   5.334   5.178  0.5133 -0.3991  0.0611
   65MOL   C18719515   6.623   5.386   5.300  0.4688 -0.1870  0.3652
   65MOL   C18819516   6.202   5.413   5.464  0.0391 -0.3317 -0.2417
   65MOL   H18919517   6.167   5.265   5.308 -0.7960 -0.0232 -1.3269
   65MOL   H19019518   6.583   5.269   5.105 -0.6581 -0.6853 -0.4957
   65MOL   H19119519   6.522   5.428   5.124  2.3829 -0.6503 -0.8070
   65MOL   H19219520   6.672   5.297   5.341  2.2335  0.2668 -0.7107
   65MOL   H19319521   6.695   5.454   5.255 -0.2534  0.2570 -0.1321
   65MOL   H19419522   6.555   5.437   5.368  1.8838 -1.1991  2.5917
   65MOL   H19519523   6.239   5.515   5.463  1.6786 -0.9004  1.2546
   65MOL   H19619524   6.097   5.416   5.494  0.3022  0.1066  0.6197
   65MOL   C19719525   6.287   5.320   5.550  0.0943 -0.0113  0.5227
   65MOL   O19819526   6.285   5.371   5.688  0.3416  0.1977  0.6530
   65MOL   C19919527   6.382   5.452   5.746 -0.1389 -0.0459  0.5182
   65MOL   O20019528   6.488   5.473   5.686 -0.0506  0.1152  0.0666
   65MOL   C20119529   6.359   5.503   5.881  0.3030  0.1526  0.2132
   65MOL   C20219530   6.441   5.430   5.982 -0.0196  0.4279 -0.6706
   65MOL   C20319531   6.253   5.168   5.556 -0.0522 -0.5343  0.5409
   65MOL   H20419532   6.390   5.317   5.515 -1.1882  1.5972 -3.6144
   65MOL   H20519533   6.392   5.607   5.880 -0.6681  0.4866  1.1398
   65MOL   H20619534   6.252   5.487   5.897 -0.2758  2.8161 -0.7114
   65MOL   H20719535   6.430   5.323   5.969 -2.3899  0.3009  1.7104
   65MOL   H20819536   6.546   5.459   5.979 -0.0894  0.4997 -3.9214
   65MOL   H20919537   6.400   5.451   6.081  0.5888  0.7737 -0.4858
   65MOL   H21019538   6.159   5.146   5.605  0.9225 -2.1999  1.7077
   65MOL   H21119539   6.247   5.143   5.450  2.2261  0.7658  0.0687
   65MOL   C21219540   6.367   5.083   5.636 -0.1860 -0.6596 -0.2431
   65MOL   O21319541   6.337   5.063   5.773  0.7607 -0.0715 -0.5821
   65MOL   C21419542   6.442   5.026   5.860 -0.1235 -0.1651 -0.0590
   65MOL   O21519543   6.558   5.014   5.824  0.4956  0.1504  0.5420
   65MOL   C21619544   6.393   5.005   6.007 -0.0451 -0.2042 -0.0762
   65MOL   C21719545   6.512   5.018   6.107 -0.7622 -0.0167  0.1871
   65MOL   C21819546   6.401   4.950   5.571 -0.1774  0.3070  0.6634
   65MOL   H21919547   6.457   5.143   5.626 -1.8206  1.3965 -3.4833
   65MOL   H22019548   6.316   5.079   6.026  0.0477  0.5732 -2.5582
   65MOL   H22119549   6.354   4.904   6.000 -2.2793  0.6972 -1.1496
   65MOL   H22219550   6.558   5.114   6.085  0.6822 -0.6815  0.2430
   65MOL   H22319551   6.493   5.009   6.214 -2.2740  1.4123  0.0454
   65MOL   H22419552   6.587   4.946   6.074 -0.6835  1.2557 -2.4933
   65MOL   H22519553   6.413   4.969   5.465 -2.2483  1.2892  0.5741
   65MOL   H22619554   6.501   4.920   5.600 -0.4649 -1.4476 -0.0798
   65MOL   C22719555   6.305   4.832   5.599 -0.0061 -0.7064  0.2419
   65MOL   O22819556   6.236   4.817   5.477  0.0678 -0.1594  0.7669
   65MOL   C22919557   6.108   4.858   5.469  0.6764 -0.2516 -0.3345
   65MOL   O23019558   6.045   4.911   5.565  0.4114 -0.0491  0.4231
   65MOL   C23119559   6.049   4.855   5.330 -0.1315  0.0279 -0.2435
   65MOL   C23219560   6.124   4.951   5.235 -0.3207 -0.9418 -0.1011
   65MOL   C23319561   6.365   4.696   5.632  0.8902 -0.0828 -0.5158
   65MOL   H23419562   6.242   4.856   5.685  1.4327  2.3357  0.5116
   65MOL   H23519563   6.058   4.755   5.288 -0.1700 -0.9813  2.0688
   65MOL   H23619564   5.947   4.890   5.343 -0.1255 -0.3508  0.8964
   65MOL   H23719565   6.104   4.926   5.131 -1.5362  2.4486 -0.7448
   65MOL   H23819566   6.113   5.057   5.260  0.0877 -1.0204  0.4267
   65MOL   H23919567   6.232   4.943   5.247 -0.2868 -1.2645 -0.6320
   65MOL   H24019568   6.419   4.683   5.538 -1.2011  2.2073 -2.0730
   65MOL   H24119569   6.450   4.693   5.701 -0.5692 -1.8734  1.2823
   65MOL   C24219570   6.264   4.583   5.668 -0.1008  0.5536  0.1177
   65MOL   O24319571   6.328   4.461   5.628  0.5853 -0.0466 -0.4629
   65MOL   C24419572   6.265   4.380   5.543 -0.3429 -0.3353 -0.2611
   65MOL   O24519573   6.152   4.392   5.495  0.4750 -0.4044 -0.6943
   65MOL   C24619574   6.356   4.258   5.506 -0.3992 -0.7114 -0.5171
   65MOL   C24719575   6.356   4.240   5.352 -0.3189  0.2251  0.1051
   65MOL   C24819576   6.239   4.580   5.819  0.3408 -1.0040  0.7052
   65MOL   H24919577   6.176   4.599   5.605 -0.5966 -1.9652  0.1091
   65MOL   H25019578   6.460   4.283   5.530 -0.4326 -1.4435  0.4091
   65MOL   H25119579   6.319   4.170   5.558 -0.4779 -0.4178 -0.0682
   65MOL   H25219580   6.420   4.158   5.320 -0.1432 -0.3241  1.8150
   65MOL   H25319581   6.261   4.213   5.307  0.1131  0.3567 -0.8978
   65MOL   H25419582   6.398   4.324   5.297 -0.4139  0.3806  0.2687
   65MOL   H25519583   6.321   4.527   5.868  1.5560  0.0131 -0.1878
   65MOL   H25619584   6.241   4.686   5.847 -1.5845 -0.5871 -0.5744
   65MOL   C25719585   6.108   4.512   5.859 -0.0326 -0.2068 -0.2063
   65MOL   O25819586   6.103   4.377   5.814  0.4610  0.3473 -0.2213
   65MOL   C25919587   5.994   4.308   5.784  0.0399 -0.3220  0.0415
   65MOL   O26019588   5.882   4.313   5.836  0.2435 -0.4138  0.5873
   65MOL   C26119589   6.020   4.194   5.689  0.0707 -0.1333 -0.2988
   65MOL   C26219590   5.962   4.066   5.748 -0.0032  0.5505 -0.3571
   65MOL   C26319591   6.086   4.511   6.015 -0.1119 -0.6552 -0.3362
   65MOL   H26419592   6.023   4.564   5.815 -0.9276 -1.2076  0.3202
   65MOL   H26519593   5.968   4.203   5.594 -1.2878 -0.8979  0.3518
   65MOL   H26619594   6.126   4.176   5.669  0.3202  2.5208 -1.5327
   65MOL   H26719595   6.016   4.039   5.839  2.0614 -2.6079 -2.4225
   65MOL   H26819596   5.854   4.070   5.761 -0.2382 -0.8374 -1.7404
   65MOL   H26919597   5.972   3.985   5.676 -1.4063  1.0203 -1.0951
   65MOL   H27019598   6.004   4.451   6.056 -1.0174  0.4340 -0.5348
   65MOL   H27119599   6.173   4.472   6.067 -2.3277  0.0049  4.1593
   65MOL   C27219600   6.065   4.649   6.088 -0.0089  0.9516  0.0091
   65MOL   O27319601   5.950   4.717   6.051  0.4988  0.3327 -0.0457
   65MOL   C27419602   5.945   4.840   5.999  0.0134  0.1533 -0.1995
   65MOL   O27519603   6.042   4.904   5.970  0.0186 -0.3682  0.2074
   65MOL   C27619604   5.807   4.877   5.952 -0.1831 -0.3050  0.1043
   65MOL   C27719605   5.715   4.882   6.079  0.2406 -1.0323 -0.3348
   65MOL   C27819606   6.060   4.630   6.246 -0.4487  0.3683  0.2194
   65MOL   H27919607   6.153   4.708   6.065  0.9019 -0.2345  0.3992
   65MOL   H28019608   5.809   4.972   5.899  1.2467  0.0724  0.8355
   65MOL   H28119609   5.764   4.800   5.886  2.5765 -1.5081 -0.3521
   65MOL   H28219610   5.624   4.936   6.052 -0.3943 -2.6463 -1.5156
   65MOL   H28319611   5.698   4.783   6.120  0.5066  0.2023  2.8846
   65MOL   H28419612   5.760   4.932   6.165  0.7560 -1.7863 -0.1639
   65MOL   H28519613   5.976   4.564   6.269  0.3051 -1.4370 -1.9955
   65MOL   H28619614   6.146   4.574   6.284 -1.3352 -0.8364  0.4970
   65MOL   C28719615   6.052   4.757   6.332 -0.5897  0.3008  0.3341
   65MOL   O28819616   6.065   4.717   6.465 -0.1351  0.4243 -0.2003
   65MOL   C28919617   5.960   4.697   6.539 -0.4771  0.0842  0.5792
   65MOL   O29019618   5.845   4.702   6.500 -0.0584 -0.0242  0.0662
   65MOL   C29119619   5.989   4.659   6.685  0.3669  0.2389 -0.6450
   65MOL   C29219620   5.970   4.786   6.777 -1.1408  1.3725  0.3306
   65MOL   C29319621   6.178   4.851   6.317  0.5352  0.5487 -1.1683
   65MOL   H29419622   5.954   4.799   6.310 -1.4380  0.1545  3.5261
   65MOL   H29519623   5.927   4.570   6.696  1.2347 -0.3672 -0.7020
   65MOL   H29619624   6.089   4.620   6.700  0.0122 -0.2333  0.4948
   65MOL   H29719625   5.866   4.820   6.773 -1.4259  0.5383  0.4182
   65MOL   H29819626   5.995   4.751   6.877 -1.4951  1.8760  0.5958
   65MOL   H29919627   6.049   4.858   6.758  1.3989 -1.5634 -0.8012
   65MOL   H30019628   6.181   4.935   6.386  1.2350  1.4673 -2.3036
   65MOL   H30119629   6.261   4.782   6.336  1.0254  1.2164 -0.8638
   65MOL   H30219630   6.179   4.884   6.214 -1.2327  0.2364 -1.3032
   66MOL     C119631   0.821   0.871   6.944 -0.8465 -0.3691  0.0950
   66MOL     O219632   0.730   0.801   7.019 -0.4819  0.3333 -0.1848
   66MOL     C319633   0.605   0.803   6.980  0.2479  0.2278 -0.9552
   66MOL     O419634   0.550   0.889   6.907 -0.5581  0.2028 -0.0975
   66MOL     C519635   0.530   0.674   7.028 -0.4524  0.1212  0.0896
   66MOL     C619636   0.571   0.559   6.934 -0.1989  0.1051  0.3608
   66MOL     C719637   0.952   0.794   6.946  0.7865 -0.0610 -0.3898
   66MOL     H819638   0.851   0.964   6.993 -0.9537  0.7562 -1.9337
   66MOL     H919639   0.550   0.653   7.133  1.4052  0.8510 -0.0990
   66MOL    H1019640   0.424   0.699   7.029 -0.1598  1.4834 -0.7891
   66MOL    H1119641   0.503   0.474   6.938 -0.0919  0.0476  1.0327
   66MOL    H1219642   0.556   0.586   6.830  0.5683 -1.3413 -0.1374
   66MOL    H1319643   0.675   0.527   6.943 -0.5201 -1.0320  0.1117
   66MOL    H1419644   1.024   0.866   6.906  0.0327  1.5870  1.1823
   66MOL    H1519645   0.977   0.781   7.051  0.9607  0.2091 -0.3994
   66MOL    H1619646   0.789   0.899   6.844  0.2253 -0.4786 -0.2808
   66MOL    C1719647   0.968   0.656   6.879 -0.4234 -0.2450 -0.4920
   66MOL    O1819648   0.901   0.563   6.959  0.5077 -0.0078  0.1855
   66MOL    C1919649   0.969   0.453   7.001  0.4029  0.6793  0.4466
   66MOL    O2019650   1.087   0.426   6.980  0.2465  0.8412 -0.6104
   66MOL    C2119651   0.874   0.354   7.076 -0.5192  0.0351 -0.2997
   66MOL    C2219652   0.918   0.214   7.066 -0.2533 -0.4932  0.2997
   66MOL    C2319653   0.917   0.648   6.730  0.0912  0.3736  0.3545
   66MOL    H2419654   1.075   0.636   6.878  0.1388  2.5496 -1.5368
   66MOL    H2519655   0.870   0.388   7.179  0.0148  0.9930 -0.5865
   66MOL    H2619656   0.771   0.362   7.042 -0.8439 -0.4139  0.5803
   66MOL    H2719657   0.992   0.180   7.139  0.7604  0.5451 -0.2331
   66MOL    H2819658   0.831   0.150   7.077 -0.3714 -0.1515  1.3725
   66MOL    H2919659   0.953   0.177   6.969 -0.3905 -1.7846  0.7353
   66MOL    H3019660   0.810   0.669   6.732 -0.1637 -0.7817 -0.2379
   66MOL    H3119661   0.964   0.724   6.669  1.5401  0.1037  1.1102
   66MOL    C3219662   0.948   0.505   6.665  0.2666 -0.1605 -0.2098
   66MOL    O3319663   0.900   0.521   6.531  0.2538  0.2919  0.0765
   66MOL    C3419664   0.790   0.455   6.487  0.4424  0.0027 -0.2813
   66MOL    O3519665   0.729   0.371   6.549  0.5575  0.7176  0.2512
   66MOL    C3619666   0.758   0.477   6.342 -0.5788 -0.0196 -0.0467
   66MOL    C3719667   0.809   0.357   6.262  0.8169  0.8166  0.1435
   66MOL    C3819668   1.092   0.445   6.652 -0.2616  0.3137  0.0729
   66MOL    H3919669   0.879   0.437   6.714  0.0979  0.5076  0.4824
   66MOL    H4019670   0.652   0.483   6.319 -0.9360 -0.8814  1.3278
   66MOL    H4119671   0.801   0.572   6.311  2.8125 -1.5498 -0.2273
   66MOL    H4219672   0.907   0.326   6.299  0.7628 -0.4742 -0.7435
   66MOL    H4319673   0.740   0.275   6.283  1.5086  0.6014  1.6453
   66MOL    H4419674   0.814   0.360   6.153  0.4208 -1.0316  0.0523
   66MOL    H4519675   1.148   0.515   6.590 -0.4227  0.0252 -0.3994
   66MOL    H4619676   1.134   0.423   6.750  0.5120  1.7608  0.0868
   66MOL    C4719677   1.094   0.302   6.589 -0.4387 -0.2820 -0.2533
   66MOL    O4819678   1.232   0.258   6.575  0.4994  0.0885  0.5857
   66MOL    C4919679   1.277   0.246   6.450 -0.2504 -0.7339  0.0976
   66MOL    O5019680   1.223   0.280   6.344 -0.7920  0.3270 -0.1668
   66MOL    C5119681   1.422   0.185   6.452  0.2744  0.5276  0.1171
   66MOL    C5219682   1.532   0.255   6.539 -0.5167 -0.0601 -0.5291
   66MOL    C5319683   1.030   0.193   6.681  0.4240  0.0489 -0.1149
   66MOL    H5419684   1.037   0.304   6.496 -2.7882 -0.0704  1.1436
   66MOL    H5519685   1.399   0.085   6.488 -1.4511  1.2450  1.0225
   66MOL    H5619686   1.451   0.170   6.347 -2.0249 -1.4818 -0.2633
   66MOL    H5719687   1.633   0.214   6.529 -0.3287  0.6154 -1.5290
   66MOL    H5819688   1.537   0.362   6.517 -0.0180  0.4221  1.7947
   66MOL    H5919689   1.512   0.246   6.645 -0.1260 -1.0481 -0.5365
   66MOL    H6019690   1.085   0.196   6.775 -2.3010 -0.3101  1.5562
   66MOL    H6119691   0.927   0.217   6.708  0.1999  0.3798 -1.2399
   66MOL    C6219692   1.025   0.054   6.612 -0.3944 -0.1490 -0.5931
   66MOL    O6319693   0.997   7.903   6.709 -0.4801 -0.1196  0.2466
   66MOL    C6419694   1.088   7.829   6.777 -0.5512  0.3005 -0.5723
   66MOL    O6519695   1.207   7.815   6.747 -0.9046  0.2750  0.6611
   66MOL    C6619696   1.031   7.753   6.892 -0.3721  0.3514  0.3327
   66MOL    C6719697   0.893   7.798   6.951 -0.1572  0.4453  0.1875
   66MOL    C6819698   0.901   0.053   6.511  0.1017  0.5006  0.0096
   66MOL    H6919699   1.117   0.038   6.557  0.8606  1.3955  1.0077
   66MOL    H7019700   1.035   7.647   6.866 -0.4559  0.4526 -0.0861
   66MOL    H7119701   1.105   7.777   6.969 -1.0247  1.6212  0.5780
   66MOL    H7219702   0.882   7.902   6.981  0.8656  0.9247 -1.0157
   66MOL    H7319703   0.810   7.777   6.884  0.2034 -2.9763  0.7057
   66MOL    H7419704   0.869   7.742   7.042  0.5299 -1.4595 -0.7749
   66MOL    H7519705   0.818   0.088   6.573 -0.0060 -0.3155  0.3242
   66MOL    H7619706   0.913   0.121   6.426 -0.4076 -0.1391 -0.5762
   66MOL    C7719707   0.853   7.861   6.468  0.3068 -0.0744  0.2400
   66MOL    O7819708   0.739   7.879   6.383  0.4234 -0.3085  0.1006
   66MOL    C7919709   0.632   7.798   6.387 -0.5391  0.4252  0.4933
   66MOL    O8019710   0.633   7.688   6.445  0.1331 -0.0878 -0.2385
   66MOL    C8119711   0.501   7.853   6.326 -0.5703  0.2808 -0.2163
   66MOL    C8219712   0.386   7.745   6.327  0.3305 -0.3296  0.2235
   66MOL    C8319713   0.962   7.773   6.390  0.3276 -0.7064 -0.1566
   66MOL    H8419714   0.818   7.806   6.555 -1.2421 -0.9520 -0.9181
   66MOL    H8519715   0.473   7.931   6.396 -2.4146  1.0295 -1.7455
   66MOL    H8619716   0.515   7.907   6.233  2.0085 -2.0860 -1.2971
   66MOL    H8719717   0.366   7.691   6.419 -0.8372  1.6989  1.1979
   66MOL    H8819718   0.298   7.802   6.298  0.3379 -0.5237 -0.1840
   66MOL    H8919719   0.401   7.672   6.248 -0.7406  1.0445 -1.2875
   66MOL    H9019720   1.044   7.736   6.451  0.0373 -0.9737  0.0783
   66MOL    H9119721   0.907   7.686   6.355 -0.2446 -0.5337  0.3007
   66MOL    C9219722   1.028   7.846   6.273  0.4514 -0.7623  0.0969
   66MOL    O9319723   1.119   7.760   6.219  0.2280 -0.1169  0.0221
   66MOL    C9419724   1.245   7.764   6.263  0.1525  0.0326  0.2994
   66MOL    O9519725   1.286   7.845   6.348 -0.1311 -0.3062 -0.0832
   66MOL    C9619726   1.345   7.676   6.187 -0.4087  0.0547  0.6819
   66MOL    C9719727   1.375   7.723   6.047  0.3020  0.2507  0.1600
   66MOL    C9819728   0.932   7.906   6.163  0.5155 -0.4495 -0.3816
   66MOL    H9919729   1.079   7.936   6.306 -0.2182  0.6351 -2.5096
   66MOL   H10019730   1.437   7.677   6.245  0.0584 -0.1561 -0.0401
   66MOL   H10119731   1.315   7.572   6.199 -1.1417  0.1289 -0.4249
   66MOL   H10219732   1.281   7.736   5.993 -0.6935 -1.6020  1.4043
   66MOL   H10319733   1.434   7.813   6.029  0.1263  0.6222  1.4326
   66MOL   H10419734   1.424   7.642   5.993 -1.4880  0.5824 -2.0735
   66MOL   H10519735   0.867   7.819   6.150  1.3005 -1.3190  1.3171
   66MOL   H10619736   0.875   0.047   6.198 -0.2257 -1.5517  1.2351
   66MOL   C10719737   1.006   0.005   6.034 -0.1401  0.1167  0.3299
   66MOL   O10819738   0.915   0.004   5.926  0.0879 -0.7065 -0.9575
   66MOL   C10919739   0.959   7.905   5.806  0.3241  0.2947 -0.0455
   66MOL   O11019740   1.066   7.853   5.784  0.3830 -0.1907  0.3955
   66MOL   C11119741   0.852   7.930   5.698  0.2895 -0.0681 -0.2788
   66MOL   C11219742   0.927   0.024   5.573 -0.8450  0.1710  0.6632
   66MOL   C11319743   1.059   0.140   6.070  0.1612 -0.2986  0.3200
   66MOL   H11419744   1.085   7.879   6.012  0.1330  0.8288 -0.9850
   66MOL   H11519745   0.788   7.842   5.691 -1.4156  1.0316  1.1451
   66MOL   H11619746   0.800   0.076   5.729  2.5393  1.1859 -0.0555
   66MOL   H11719747   0.858   0.058   5.494 -0.2239 -0.1484 -0.0211
   66MOL   H11819748   1.000   0.099   5.604 -0.8579  0.7083 -0.5592
   66MOL   H11919749   0.977   7.877   5.543 -1.2054 -0.2928  1.4731
   66MOL   H12019750   0.979   0.205   6.106 -1.7945 -2.5002  0.0574
   66MOL   H12119751   1.134   0.133   6.148  1.2286 -0.5711 -0.7291
   66MOL   C12219752   1.155   0.192   5.960  0.7707 -0.3457  0.1168
   66MOL   O12319753   1.194   0.326   5.994  0.4279  0.1563  0.5050
   66MOL   C12419754   1.128   0.435   5.941  0.2615 -0.1516 -0.8329
   66MOL   O12519755   1.040   0.428   5.854  0.1654 -0.2134 -0.4261
   66MOL   C12619756   1.182   0.563   5.991 -0.1259 -0.0780  0.2000
   66MOL   C12719757   1.172   0.582   6.135  0.0941 -0.3841 -0.1917
   66MOL   C12819758   1.283   0.109   5.933  0.2731 -0.4335 -0.2062
   66MOL   H12919759   1.111   0.186   5.860  0.6356 -0.1686  0.1642
   66MOL   H13019760   1.282   0.578   5.951 -0.2645  0.1738 -0.0472
   66MOL   H13119761   1.123   0.642   5.946 -1.4505 -0.1361  1.7971
   66MOL   H13219762   1.079   0.567   6.190 -0.8283  0.4278 -1.4984
   66MOL   H13319763   1.238   0.509   6.182 -0.4819 -0.2542  0.8317
   66MOL   H13419764   1.219   0.676   6.162 -2.5401  0.1544  2.8557
   66MOL   H13519765   1.343   0.109   6.024 -1.6162 -2.6995  1.0792
   66MOL   H13619766   1.252   0.006   5.919 -1.1854  0.0361 -0.5108
   66MOL   C13719767   1.388   0.142   5.819  0.2931  0.2217 -0.0860
   66MOL   O13819768   1.491   0.227   5.854  0.5331 -0.2426 -0.1223
   66MOL   C13919769   1.503   0.351   5.802 -0.1697 -1.1438 -0.7938
   66MOL   O14019770   1.434   0.400   5.709  0.3808 -0.1890 -0.5981
   66MOL   C14119771   1.599   0.439   5.882  0.6817 -0.3113  0.3302
   66MOL   C14219772   1.657   0.562   5.811 -0.1198 -0.0611  0.4004
   66MOL   C14319773   1.447   0.018   5.751  0.0476 -0.6268 -0.6094
   66MOL   H14419774   1.329   0.199   5.748 -0.8511  1.1207  1.5451
   66MOL   H14519775   1.569   0.457   5.985 -0.6098 -0.7730  0.0452
   66MOL   H14619776   1.685   0.375   5.903 -0.7857 -1.7121  2.3483
   66MOL   H14719777   1.583   0.642   5.808  1.0740  1.0466 -4.2124
   66MOL   H14819778   1.741   0.612   5.858 -0.1003  0.8786 -0.6032
   66MOL   H14919779   1.686   0.535   5.709 -0.6017 -1.2370  0.5731
   66MOL   H15019780   1.531   7.933   5.815  2.2275  2.8448 -1.6994
   66MOL   H15119781   1.364   7.893   5.742 -1.3628  1.1488 -1.7664
   66MOL   C15219782   1.488   0.024   5.610  0.3554  0.5234  0.6971
   66MOL   O15319783   1.388   0.100   5.535  0.0015 -0.4072 -0.9088
   66MOL   C15419784   1.333   0.042   5.429 -0.1575 -0.0760 -0.0698
   66MOL   O15519785   1.351   7.873   5.386 -1.0201  0.2145  1.1157
   66MOL   C15619786   1.227   0.134   5.361  0.5742  0.3012 -0.4720
   66MOL   C15719787   1.281   0.235   5.265 -0.5224 -0.3713  0.2590
   66MOL   C15819788   1.625   0.082   5.576  0.1286 -0.5564  0.3892
   66MOL   H15919789   1.478   7.865   5.578 -1.5985  0.9831 -0.2861
   66MOL   H16019790   1.156   0.078   5.300  0.7287  0.5987 -0.9300
   66MOL   H16119791   1.175   0.184   5.443 -0.4827 -1.4494 -0.0658
   66MOL   H16219792   1.360   0.195   5.200  1.2480 -0.8379  2.6407
   66MOL   H16319793   1.203   0.275   5.200 -1.5906  1.7212  2.7896
   66MOL   H16419794   1.335   0.314   5.317  0.6165 -0.0982 -1.2650
   66MOL   H16519795   1.621   0.116   5.473 -0.7051 -0.0077  0.6070
   66MOL   H16619796   1.636   0.175   5.631 -0.3887 -0.3078  0.0717
   66MOL   C16719797   1.737   7.930   5.592  0.2822  0.3208  0.6460
   66MOL   O16819798   1.695   7.824   5.515 -0.3221 -0.0217  0.2519
   66MOL   C16919799   1.709   7.702   5.560 -0.1185 -0.1608  0.0267
   66MOL   O17019800   1.768   7.671   5.666  0.0949 -0.1713 -0.0554
   66MOL   C17119801   1.675   7.603   5.448 -0.0317  0.2048  0.2791
   66MOL   C17219802   1.677   7.463   5.512 -0.3867  1.0702  0.4033
   66MOL   C17319803   1.875   0.042   5.549  0.6055  0.2149 -0.1782
   66MOL   H17419804   1.733   7.890   5.693 -2.0005 -1.3094 -0.0558
   66MOL   H17519805   1.582   7.629   5.398  1.0777  3.1387 -0.3691
   66MOL   H17619806   1.751   7.612   5.371 -0.6980 -1.4608 -0.5952
   66MOL   H17719807   1.615   7.476   5.601  0.0232  0.6713  0.7544
   66MOL   H17819808   1.633   7.389   5.445  0.7901  0.1755  0.5870
   66MOL   H17919809   1.767   7.417   5.554 -0.9444  0.3185  0.8069
   66MOL   H18019810   1.906   7.936   5.458  0.8208 -1.5400  0.8534
   66MOL   H18119811   1.864   0.148   5.525 -1.7958  0.0702  0.1712
   66MOL   C18219812   1.991   0.022   5.650 -0.6525  1.1361 -0.0646
   66MOL   O18319813   2.115   0.073   5.603 -0.4866 -0.1159 -0.3192
   66MOL   C18419814   2.225   0.004   5.615  0.2042  0.6374 -0.1626
   66MOL   O18519815   2.228   7.833   5.632  0.2157  0.0154  0.3520
   66MOL   C18619816   2.344   0.094   5.580 -0.9071 -0.6905  0.4569
   66MOL   C18719817   2.483   0.055   5.632  0.5609 -0.3965  0.0684
   66MOL   C18819818   1.974   0.078   5.798  0.0215  0.6206 -0.5334
   66MOL   H18919819   1.997   7.859   5.667 -2.2049  1.3650  2.0776
   66MOL   H19019820   2.347   0.109   5.473  0.4069  0.6884  0.6686
   66MOL   H19119821   2.327   0.193   5.624  0.1353 -0.2244 -0.1565
   66MOL   H19219822   2.553   0.135   5.610 -2.0156  1.6135 -1.0721
   66MOL   H19319823   2.479   0.038   5.740 -0.7543 -1.4888 -0.1448
   66MOL   H19419824   2.525   7.911   5.584  1.5261  0.6861 -1.1385
   66MOL   H19519825   1.887   0.036   5.849 -0.0891  1.3539 -0.1137
   66MOL   H19619826   2.041   0.016   5.858 -1.0117  1.3374  1.4195
   66MOL   C19719827   2.001   0.226   5.811 -0.6527  0.4103 -0.4563
   66MOL   O19819828   1.943   0.306   5.712 -0.4144 -0.4104 -0.5079
   66MOL   C19919829   2.021   0.389   5.648 -0.5568  0.1998 -0.0636
   66MOL   O20019830   2.140   0.417   5.660  0.1289  0.1600  0.0623
   66MOL   C20119831   1.941   0.458   5.540 -0.9122 -0.0334  0.1181
   66MOL   C20219832   1.995   0.592   5.498 -0.8535  0.8841  0.7479
   66MOL   C20319833   1.973   0.273   5.954 -0.4391 -0.6084  0.0760
   66MOL   H20419834   2.108   0.234   5.797 -0.5706 -0.0100 -0.0655
   66MOL   H20519835   1.953   0.395   5.452 -3.7430 -0.8122  0.2309
   66MOL   H20619836   1.836   0.457   5.569 -1.2496  0.8923 -1.0484
   66MOL   H20719837   2.005   0.664   5.579  0.2036 -0.1520  1.5391
   66MOL   H20819838   2.091   0.579   5.448 -1.7054  1.4281 -1.0951
   66MOL   H20919839   1.935   0.640   5.420  2.7419  3.9563 -0.2722
   66MOL   H21019840   1.970   0.381   5.966 -2.3549 -0.5843 -0.4408
   66MOL   H21119841   1.873   0.236   5.974  0.5148 -2.4507  1.6227
   66MOL   C21219842   2.059   0.229   6.069 -0.4439 -0.1919 -0.3428
   66MOL   O21319843   2.198   0.256   6.036 -0.4134 -0.0708 -0.0536
   66MOL   C21419844   2.288   0.161   6.064 -0.8929 -1.0589  0.6163
   66MOL   O21519845   2.255   0.048   6.089  0.6142 -0.0191  0.4338
   66MOL   C21619846   2.434   0.208   6.063  0.4966  0.2838 -0.6800
   66MOL   C21719847   2.478   0.299   5.945  0.1002 -0.5537  0.9891
   66MOL   C21819848   2.027   0.313   6.194 -0.1765  0.5148 -0.0446
   66MOL   H21919849   2.036   0.124   6.084  1.4832 -0.6496 -0.3763
   66MOL   H22019850   2.440   0.269   6.153 -1.5126 -1.2582  0.5331
   66MOL   H22119851   2.488   0.114   6.072  2.0964  1.3588  1.3820
   66MOL   H22219852   2.474   0.250   5.848  2.5480 -0.6477  0.9239
   66MOL   H22319853   2.402   0.377   5.945 -0.0344 -0.6606 -1.0046
   66MOL   H22419854   2.576   0.342   5.963  0.7790 -0.7893 -1.9324
   66MOL   H22519855   2.100   0.281   6.269  0.9334 -0.4802 -1.5067
   66MOL   H22619856   2.063   0.414   6.171  0.5649  0.2624 -0.0288
   66MOL   C22719857   1.882   0.311   6.250 -0.0536 -0.3665  1.0421
   66MOL   O22819858   1.849   0.177   6.254 -0.1213 -0.6598  0.5753
   66MOL   C22919859   1.728   0.137   6.208 -0.1735  0.0606  0.6470
   66MOL   O23019860   1.632   0.214   6.184 -0.2155 -0.0018  0.5059
   66MOL   C23119861   1.715   7.925   6.198 -0.2106  0.2937  0.5005
   66MOL   C23219862   1.710   7.850   6.334  1.0774  0.1340  0.7087
   66MOL   C23319863   1.883   0.363   6.395 -0.0762 -0.4274 -0.5915
   66MOL   H23419864   1.820   0.380   6.192  1.8319 -1.6286 -2.5815
   66MOL   H23519865   1.629   7.888   6.143 -0.1673  1.8628 -0.6343
   66MOL   H23619866   1.801   7.892   6.140 -1.3163 -2.5791  0.3854
   66MOL   H23719867   1.802   7.883   6.382  1.9507 -0.4239 -0.5447
   66MOL   H23819868   1.618   7.882   6.382  0.4015  0.0473 -0.5191
   66MOL   H23919869   1.711   7.742   6.317 -0.9319  0.3398 -0.9687
   66MOL   H24019870   1.789   0.321   6.430  0.3185 -0.5619  0.3060
   66MOL   H24119871   1.966   0.312   6.442 -0.4096 -0.8414 -0.4509
   66MOL   C24219872   1.886   0.522   6.414 -0.1245 -0.1662  0.0743
   66MOL   O24319873   1.753   0.573   6.394  0.2700 -0.8989  0.1648
   66MOL   C24419874   1.737   0.667   6.305  0.1477 -0.2545  0.1860
   66MOL   O24519875   1.820   0.708   6.229  0.8988 -0.1909  0.0417
   66MOL   C24619876   1.598   0.721   6.286 -0.0953  0.4467 -0.4713
   66MOL   C24719877   1.504   0.607   6.252 -0.2218 -0.8104 -0.3795
   66MOL   C24819878   1.943   0.578   6.541 -0.0577 -0.1824  0.2686
   66MOL   H24919879   1.951   0.553   6.332  1.2103 -0.7413  0.9074
   66MOL   H25019880   1.563   0.761   6.381  0.8180 -1.8816  0.8806
   66MOL   H25119881   1.602   0.800   6.211  2.8282 -1.2344 -2.1738
   66MOL   H25219882   1.404   0.651   6.255 -0.3078 -1.0341  0.0435
   66MOL   H25319883   1.522   0.579   6.148  0.4938  0.3712 -0.5961
   66MOL   H25419884   1.509   0.517   6.312  2.5268  0.0455  0.7385
   66MOL   H25519885   1.946   0.687   6.545 -0.0588 -0.1789  0.1871
   66MOL   H25619886   1.884   0.545   6.626 -1.0438  0.0129 -0.3305
   66MOL   C25719887   2.089   0.535   6.557 -0.0535 -0.0779 -0.3315
   66MOL   O25819888   2.168   0.621   6.484 -0.1492 -0.2130  0.6281
   66MOL   C25919889   2.261   0.569   6.393 -0.6200 -0.3728 -0.8043
   66MOL   O26019890   2.292   0.453   6.372  0.9379  0.1789 -0.0785
   66MOL   C26119891   2.314   0.676   6.298  0.0662  1.4360 -0.0210
   66MOL   C26219892   2.185   0.735   6.228 -0.2145  0.0101 -0.2996
   66MOL   C26319893   2.125   0.538   6.699  0.1389 -0.0925 -0.2363
   66MOL   H26419894   2.110   0.435   6.519 -0.0362 -0.4727  0.7062
   66MOL   H26519895   2.366   0.752   6.356 -2.5830  2.8724  0.5866
   66MOL   H26619896   2.391   0.644   6.228  2.6166  3.1905  1.8831
   66MOL   H26719897   2.136   0.814   6.285 -1.2184  1.7839 -3.4951
   66MOL   H26819898   2.207   0.778   6.130 -1.3392 -3.2949 -2.1091
   66MOL   H26919899   2.112   0.659   6.201 -0.9003  0.9926 -1.2681
   66MOL   H27019900   2.233   0.543   6.702  0.5403 -1.4076 -5.8498
   66MOL   H27119901   2.095   0.630   6.747 -2.7602 -0.7083 -0.7195
   66MOL   C27219902   2.078   0.415   6.774  0.5736 -0.0805  1.0335
   66MOL   O27319903   2.143   0.302   6.726 -0.4643 -0.2305  0.6060
   66MOL   C27419904   2.068   0.188   6.713 -0.0637 -0.6015  0.6421
   66MOL   O27519905   1.949   0.185   6.730  0.2095  0.6061  0.5612
   66MOL   C27619906   2.151   0.065   6.668  0.3357 -0.9452 -0.1445
   66MOL   C27719907   2.064   7.889   6.613  0.2548  0.2755  0.2136
   66MOL   C27819908   2.121   0.421   6.922 -0.3165  0.1921 -0.4537
   66MOL   H27919909   1.969   0.405   6.781  0.5659 -0.0001  1.0286
   66MOL   H28019910   2.219   0.089   6.586  0.8896  0.2555  0.6582
   66MOL   H28119911   2.217   0.036   6.749 -1.3019  0.9130  1.9296
   66MOL   H28219912   2.097   7.867   6.512 -0.0307 -2.2363  0.6477
   66MOL   H28319913   2.080   7.801   6.675  0.2597 -0.0835 -0.2972
   66MOL   H28419914   1.957   7.909   6.611  0.0789 -0.4878  1.3494
   66MOL   H28519915   2.111   0.320   6.961 -0.8740  1.2357  2.1967
   66MOL   H28619916   2.228   0.443   6.915 -0.6213  1.4344 -1.3549
   66MOL   C28719917   2.049   0.519   7.021  0.3661  0.4112  0.2935
   66MOL   O28819918   1.907   0.496   7.051 -0.0344 -0.3479  0.0904
   66MOL   C28919919   1.809   0.534   6.966 -0.5354 -0.2892 -0.0717
   66MOL   O29019920   1.821   0.610   6.869 -0.0281  0.4222  0.2287
   66MOL   C29119921   1.676   0.457   6.991  0.5401 -0.7926  0.0280
   66MOL   C29219922   1.662   0.343   6.894  0.2143 -0.0533  0.0990
   66MOL   C29319923   2.124   0.528   7.151  0.2886  0.1205 -0.4834
   66MOL   H29419924   2.050   0.617   6.973 -2.2218 -1.0372 -2.8516
   66MOL   H29519925   1.692   0.402   7.084  1.3973 -0.4035  0.1133
   66MOL   H29619926   1.587   0.520   7.000  0.7125 -0.4182 -0.8625
   66MOL   H29719927   1.759   0.299   6.871 -1.2994 -2.0356 -2.6940
   66MOL   H29819928   1.613   0.255   6.936  0.7054  0.2443  1.3315
   66MOL   H29919929   1.615   0.374   6.800 -0.2426  1.7435  0.8835
   66MOL   H30019930   2.128   0.430   7.200 -2.7023  0.1273 -0.1689
   66MOL   H30119931   2.229   0.552   7.134  0.1523  0.7360 -0.4519
   66MOL   H30219932   2.079   0.602   7.217  2.5284  1.1345 -0.0357
   67MOL     C119933   1.157   1.630   1.515 -0.0391  0.4424 -0.0989
   67MOL     O219934   1.048   1.643   1.603 -0.7438 -0.2527 -0.2525
   67MOL     C319935   1.069   1.687   1.732  0.2460 -0.1585  0.2273
   67MOL     O419936   1.169   1.738   1.783  0.0231 -0.3825 -0.1970
   67MOL     C519937   0.939   1.675   1.813  0.1880  0.0086  0.4186
   67MOL     C619938   0.890   1.810   1.860  0.5850 -0.0530 -0.5779
   67MOL     C719939   1.229   1.502   1.556 -0.1236 -0.4585  0.1733
   67MOL     H819940   1.224   1.714   1.535 -0.4257  0.2938  1.8631
   67MOL     H919941   0.853   1.633   1.762  1.0778 -1.4385  0.0930
   67MOL    H1019942   0.960   1.607   1.895 -1.4095 -0.1392  0.7228
   67MOL    H1119943   0.862   1.859   1.767 -0.0416  1.0833  0.1978
   67MOL    H1219944   0.806   1.794   1.927 -0.3522 -1.1083 -1.9688
   67MOL    H1319945   0.972   1.859   1.913  0.2048  1.3417 -1.2663
   67MOL    H1419946   1.265   1.497   1.659  0.0294 -0.5189  0.1163
   67MOL    H1519947   1.155   1.421   1.546 -0.1914 -0.0868 -2.5866
   67MOL    H1619948   1.126   1.619   1.411 -0.8313  0.6738  0.1109
   67MOL    C1719949   1.342   1.452   1.460 -0.2301  0.1728 -0.4257
   67MOL    O1819950   1.443   1.558   1.466 -0.0014  0.1819  0.2863
   67MOL    C1919951   1.459   1.649   1.369  0.0428 -0.3546  0.1429
   67MOL    O2019952   1.383   1.662   1.274  0.7638 -0.1998  0.2176
   67MOL    C2119953   1.574   1.750   1.383  0.1243 -0.2939  0.2019
   67MOL    C2219954   1.708   1.702   1.342  0.4473 -0.1856  0.4511
   67MOL    C2319955   1.400   1.316   1.512 -0.0468  0.0285  0.1304
   67MOL    H2419956   1.310   1.446   1.356  1.9506 -1.4556 -1.0454
   67MOL    H2519957   1.564   1.848   1.337  1.4652 -0.0260  0.4568
   67MOL    H2619958   1.569   1.764   1.491  0.5607  0.7696  0.0924
   67MOL    H2719959   1.715   1.594   1.355 -1.8249 -0.3795  0.2624
   67MOL    H2819960   1.723   1.722   1.236 -0.1230 -2.6786 -0.1300
   67MOL    H2919961   1.786   1.747   1.405 -0.0281  0.1502  0.8044
   67MOL    H3019962   1.464   1.342   1.596 -0.7926 -0.3656  0.8300
   67MOL    H3119963   1.312   1.262   1.549 -0.8875  1.0655 -0.3221
   67MOL    C3219964   1.474   1.231   1.405 -0.4022  0.0439 -0.0690
   67MOL    O3319965   1.566   1.306   1.337 -0.5406 -0.4073 -0.7555
   67MOL    C3419966   1.601   1.270   1.215  0.2905  0.1094 -0.5133
   67MOL    O3519967   1.582   1.163   1.163 -0.1905 -0.1208  0.5145
   67MOL    C3619968   1.673   1.375   1.132 -0.3475 -0.2893  0.0011
   67MOL    C3719969   1.734   1.327   1.005 -0.3297 -0.6180  0.4737
   67MOL    C3819970   1.549   1.116   1.476 -0.1363  0.6637 -0.9003
   67MOL    H3919971   1.392   1.198   1.341  0.0041 -0.1497 -0.4908
   67MOL    H4019972   1.603   1.458   1.128 -0.2036 -0.2231 -1.2378
   67MOL    H4119973   1.746   1.416   1.202  0.2841 -0.4130 -0.5732
   67MOL    H4219974   1.825   1.271   1.024  0.6021  0.8342  0.3305
   67MOL    H4319975   1.667   1.261   0.950  1.2065 -2.0837  0.3320
   67MOL    H4419976   1.758   1.413   0.942  0.2329 -0.5489  0.7846
   67MOL    H4519977   1.604   1.062   1.398  1.7168  1.4613 -0.1775
   67MOL    H4619978   1.620   1.153   1.549  0.7291 -0.7815 -0.9708
   67MOL    C4719979   1.448   1.017   1.550  0.3868  0.1017 -0.2676
   67MOL    O4819980   1.344   0.979   1.461  0.0160  0.0554  0.1043
   67MOL    C4919981   1.222   0.954   1.507 -0.1017  0.1188  0.0200
   67MOL    O5019982   1.197   0.967   1.628 -0.4153 -0.4360 -0.1603
   67MOL    C5119983   1.115   0.924   1.405  0.4799 -0.3531  0.2353
   67MOL    C5219984   1.092   1.036   1.301 -0.2031 -0.2143 -0.9250
   67MOL    C5319985   1.517   0.893   1.611  0.1252  0.3359  0.6011
   67MOL    H5419986   1.414   1.070   1.640 -1.7746 -2.4627  0.5098
   67MOL    H5519987   1.153   0.837   1.351 -0.5627 -0.8138  0.2429
   67MOL    H5619988   1.022   0.900   1.456 -0.2634  0.8880 -0.5092
   67MOL    H5719989   1.084   1.132   1.350  3.6083 -1.0459  1.5050
   67MOL    H5819990   1.186   1.042   1.245  1.3118 -1.5481  1.4012
   67MOL    H5919991   1.010   1.010   1.233  0.6446 -0.0012 -2.0470
   67MOL    H6019992   1.443   0.814   1.619 -0.8651  1.3257  1.4401
   67MOL    H6119993   1.599   0.863   1.546 -0.9921 -2.7220  0.5391
   67MOL    C6219994   1.583   0.922   1.749  0.7234  0.6289  0.8024
   67MOL    O6319995   1.473   0.950   1.838  0.1392  0.1927  0.5289
   67MOL    C6419996   1.475   1.045   1.924  0.3429 -0.0574 -0.7347
   67MOL    O6519997   1.565   1.130   1.939 -0.6569 -0.1419 -0.0010
   67MOL    C6619998   1.361   1.035   2.025  0.0451 -0.1914  0.0340
   67MOL    C6719999   1.228   1.090   1.962 -0.3599 -0.2158  0.0101
   67MOL    C6820000   1.674   0.807   1.796  0.7850 -0.3160  1.0223
   67MOL    H6920001   1.645   1.007   1.724  2.6688 -0.9624  0.0503
   67MOL    H7020002   1.339   0.931   2.045 -0.8693 -0.0914 -0.4442
   67MOL    H7120003   1.389   1.081   2.120 -0.7928  1.5581 -0.5298
   67MOL    H7220004   1.196   1.038   1.872  0.6404  0.4666 -0.7534
   67MOL    H7320005   1.149   1.082   2.037  1.1276  0.8531  1.7228
   67MOL    H7420006   1.241   1.196   1.938  0.9816 -0.2466  0.5531
   67MOL    H7520007   1.605   0.730   1.829  1.0410 -0.2957  1.6112
   67MOL    H7620008   1.730   0.760   1.715 -1.4348 -0.7918 -0.2801
   67MOL    C7720009   1.778   0.848   1.907  0.4771  0.3238 -0.1940
   67MOL    O7820010   1.828   0.741   1.998 -0.3837  0.2033  0.6149
   67MOL    C7920011   1.756   0.684   2.098 -0.2541  0.7343 -0.2537
   67MOL    O8020012   1.638   0.713   2.117  0.0711 -0.2426  0.1498
   67MOL    C8120013   1.829   0.566   2.176  0.3932  0.3175  0.7645
   67MOL    C8220014   1.837   0.438   2.093 -0.0733  0.0906  0.0231
   67MOL    C8320015   1.895   0.922   1.851  0.0691 -0.0788  0.6435
   67MOL    H8420016   1.728   0.923   1.968 -0.3544 -0.1770 -0.2573
   67MOL    H8520017   1.928   0.605   2.201  0.1799  1.4128 -0.1006
   67MOL    H8620018   1.782   0.541   2.271 -2.9920 -1.4013 -1.3072
   67MOL    H8720019   1.741   0.390   2.078 -0.4879  0.7721  0.4651
   67MOL    H8820020   1.861   0.467   1.991  2.3558  2.6313  1.2570
   67MOL    H8920021   1.899   0.358   2.135  1.2038  0.9961 -0.0992
   67MOL    H9020022   1.967   0.842   1.837 -0.6822 -0.8122  0.9150
   67MOL    H9120023   1.860   0.969   1.760 -2.7635  0.3636  1.9159
   67MOL    C9220024   1.966   1.029   1.942 -0.1083  0.7505 -0.5460
   67MOL    O9320025   2.010   0.952   2.062 -0.1700 -0.2647  0.0593
   67MOL    C9420026   1.984   1.005   2.181 -0.3178 -0.0868  0.6325
   67MOL    O9520027   1.941   1.118   2.201 -0.3315 -0.3614 -0.1179
   67MOL    C9620028   2.015   0.918   2.303  0.3579  0.0650  0.0278
   67MOL    C9720029   2.092   0.993   2.417 -0.7605 -0.1607 -0.1334
   67MOL    C9820030   2.088   1.111   1.890  0.6468  0.1256  0.3782
   67MOL    H9920031   1.891   1.104   1.966 -1.6055 -0.4773 -1.3515
   67MOL   H10020032   1.924   0.869   2.339  0.6225  0.2229  0.9198
   67MOL   H10120033   2.080   0.834   2.280  0.0706 -0.1547  0.0175
   67MOL   H10220034   2.023   1.057   2.471  1.0123  0.7127  1.1456
   67MOL   H10320035   2.152   0.923   2.475 -2.5187 -0.4888  1.3289
   67MOL   H10420036   2.166   1.065   2.381 -3.1347  1.9704 -0.9278
   67MOL   H10520037   2.118   1.189   1.960  0.7598  0.5930 -0.1854
   67MOL   H10620038   2.175   1.046   1.883  1.0565  0.6741  0.3315
   67MOL   C10720039   2.061   1.182   1.754  0.3405 -0.1811 -0.5498
   67MOL   O10820040   1.981   1.306   1.763 -0.1426  0.0942 -0.3545
   67MOL   C10920041   1.841   1.307   1.760 -0.2121 -0.4601 -0.4095
   67MOL   O11020042   1.769   1.211   1.749 -0.6519 -0.5170  0.0343
   67MOL   C11120043   1.782   1.446   1.772  0.2419 -0.1656 -0.5144
   67MOL   C11220044   1.753   1.512   1.629  0.2572 -0.6963  0.9990
   67MOL   C11320045   2.195   1.212   1.692 -0.6267 -0.1092 -0.6303
   67MOL   H11420046   2.015   1.118   1.679 -0.3905 -0.2431 -0.0553
   67MOL   H11520047   1.686   1.427   1.819  0.9425 -0.8230  0.6554
   67MOL   H11620048   1.842   1.508   1.839  0.6142 -0.6089 -0.4419
   67MOL   H11720049   1.838   1.551   1.573  0.4627 -0.1650  1.6804
   67MOL   H11820050   1.707   1.437   1.564 -1.9577  2.4380 -1.1670
   67MOL   H11920051   1.694   1.603   1.630  0.8313 -0.3158  0.4777
   67MOL   H12020052   2.185   1.293   1.620  0.5231  0.2497 -0.4016
   67MOL   H12120053   2.265   1.261   1.760 -0.7936  1.8533 -1.8208
   67MOL   C12220054   2.248   1.085   1.619 -1.1614  0.1466 -0.2925
   67MOL   O12320055   2.165   1.051   1.512 -0.2113  0.2111  0.0079
   67MOL   C12420056   2.098   0.935   1.501  1.1205 -0.1212  0.1785
   67MOL   O12520057   2.104   0.842   1.576  0.0017  0.1081  0.1944
   67MOL   C12620058   2.011   0.921   1.371 -0.9332 -0.4085  0.3745
   67MOL   C12720059   1.927   1.046   1.337 -0.1744  0.9511  0.2406
   67MOL   C12820060   2.398   1.093   1.574 -0.6222 -0.1549 -0.1242
   67MOL   H12920061   2.261   0.994   1.678  2.2225  1.6380  1.4123
   67MOL   H13020062   2.080   0.884   1.295  0.2115 -2.6944  2.4605
   67MOL   H13120063   1.934   0.847   1.391  0.5248 -1.7146  1.2597
   67MOL   H13220064   1.854   1.018   1.261  1.0176 -0.1418 -0.5321
   67MOL   H13320065   1.863   1.077   1.420 -2.9632  2.0517 -2.2516
   67MOL   H13420066   1.991   1.123   1.293 -0.5817  1.2790  0.2245
   67MOL   H13520067   2.402   1.035   1.481 -0.0704  0.2074 -0.3304
   67MOL   H13620068   2.411   1.198   1.547 -1.5205 -0.4953 -1.9845
   67MOL   C13720069   2.492   1.048   1.690 -0.0777 -0.2894 -0.3965
   67MOL   O13820070   2.536   0.914   1.660  0.0228  0.1883  0.1948
   67MOL   C13920071   2.463   0.801   1.683 -0.1951  0.5664  0.7797
   67MOL   O14020072   2.367   0.784   1.750 -0.3108  0.1341 -0.0359
   67MOL   C14120073   2.527   0.682   1.619 -0.5707  0.1717 -0.0497
   67MOL   C14220074   2.433   0.580   1.560 -0.2411  0.0091  0.5063
   67MOL   C14320075   2.622   1.147   1.716 -0.5757 -0.3394  0.4699
   67MOL   H14420076   2.429   1.049   1.779 -0.1559 -0.0785 -0.4539
   67MOL   H14520077   2.602   0.703   1.543  1.0779 -1.6280  1.0265
   67MOL   H14620078   2.583   0.628   1.695  0.7780  1.7940  0.1188
   67MOL   H14720079   2.355   0.636   1.508 -1.4626 -1.5684  0.6195
   67MOL   H14820080   2.495   0.518   1.495  2.4499 -0.8723  3.7765
   67MOL   H14920081   2.387   0.521   1.639  1.2646 -1.5937  0.2308
   67MOL   H15020082   2.708   1.111   1.773 -1.9972 -1.1077  2.1771
   67MOL   H15120083   2.665   1.182   1.621  0.1455 -0.2437  0.8253
   67MOL   C15220084   2.578   1.276   1.795 -0.2854  0.3520 -0.2052
   67MOL   O15320085   2.555   1.240   1.934  0.7082 -0.0137 -0.0919
   67MOL   C15420086   2.461   1.300   2.012 -0.3747 -1.1576  0.2971
   67MOL   O15520087   2.368   1.366   1.970  0.2144  0.0458 -0.2455
   67MOL   C15620088   2.487   1.272   2.160 -0.3706 -0.5744 -0.1589
   67MOL   C15720089   2.429   1.131   2.189 -0.2037  0.1168  0.1223
   67MOL   C15820090   2.684   1.379   1.789  0.3728 -0.4987 -0.0119
   67MOL   H15920091   2.490   1.320   1.750  0.5596  1.4250 -0.8414
   67MOL   H16020092   2.593   1.289   2.175 -0.1185 -1.5272 -0.8005
   67MOL   H16120093   2.442   1.356   2.214  0.4467 -0.8989  1.0391
   67MOL   H16220094   2.321   1.127   2.173 -0.5967 -1.4908  2.8065
   67MOL   H16320095   2.469   1.051   2.127 -1.6511 -0.6600  0.1595
   67MOL   H16420096   2.453   1.116   2.295  1.1414  0.1780 -0.1767
   67MOL   H16520097   2.748   1.352   1.873 -0.6151 -1.8262  0.3317
   67MOL   H16620098   2.739   1.371   1.696  0.1339  1.3094 -0.3328
   67MOL   C16720099   2.638   1.528   1.786  0.1252 -1.2576 -0.1160
   67MOL   O16820100   2.726   1.604   1.874  0.3220 -0.2407  0.4322
   67MOL   C16920101   2.692   1.643   1.995 -0.5989 -0.3776  0.4494
   67MOL   O17020102   2.591   1.612   2.058 -0.1572 -0.6586 -0.0737
   67MOL   C17120103   2.797   1.729   2.063  0.4196 -1.1786 -0.3591
   67MOL   C17220104   2.835   1.694   2.211 -0.6557 -0.2463 -0.2254
   67MOL   C17320105   2.647   1.585   1.641  0.2954  0.0596 -0.8801
   67MOL   H17420106   2.537   1.538   1.826  0.7055  1.2169  0.8179
   67MOL   H17520107   2.899   1.712   2.026  1.7577 -0.4675  2.8160
   67MOL   H17620108   2.764   1.832   2.050  0.7853 -1.1520 -1.0914
   67MOL   H17720109   2.911   1.758   2.256 -0.1744 -1.3777  0.5788
   67MOL   H17820110   2.750   1.685   2.278 -0.9726 -1.9194 -0.8312
   67MOL   H17920111   2.872   1.592   2.208  1.5874  0.5647 -1.2627
   67MOL   H18020112   2.748   1.617   1.614  0.0684 -0.6635 -2.6544
   67MOL   H18120113   2.627   1.507   1.568 -0.6802  0.4831 -1.0629
   67MOL   C18220114   2.548   1.705   1.609 -0.0461  0.5298 -0.5999
   67MOL   O18320115   2.603   1.819   1.668  0.2296  0.6520  0.1404
   67MOL   C18420116   2.521   1.896   1.742  0.0655  0.3520  0.5128
   67MOL   O18520117   2.402   1.881   1.769 -0.0358  0.2283 -0.1453
   67MOL   C18620118   2.586   2.025   1.793  0.1641  0.0998  0.1529
   67MOL   C18720119   2.505   2.112   1.891 -0.0807 -0.7289 -0.5975
   67MOL   C18820120   2.534   1.744   1.451 -0.3429  1.0171  0.0597
   67MOL   H18920121   2.451   1.684   1.655  1.2856 -1.3384  1.4234
   67MOL   H19020122   2.682   2.003   1.838  0.9149  0.7372 -1.1096
   67MOL   H19120123   2.610   2.082   1.704 -0.7455 -1.0892 -0.8722
   67MOL   H19220124   2.402   2.131   1.862 -0.3386 -0.8626  0.2262
   67MOL   H19320125   2.494   2.059   1.985  2.0774 -1.3462 -0.6627
   67MOL   H19420126   2.554   2.205   1.918 -0.7557  0.1904 -2.4603
   67MOL   H19520127   2.499   1.847   1.442 -1.1087  0.5151 -3.5631
   67MOL   H19620128   2.627   1.757   1.397  0.1516 -0.3917  0.5572
   67MOL   C19720129   2.436   1.654   1.374 -0.5889  0.3682 -0.9751
   67MOL   O19820130   2.316   1.665   1.451 -0.1288  0.0800 -0.1964
   67MOL   C19920131   2.242   1.559   1.473 -0.2630 -0.6472 -0.4422
   67MOL   O20020132   2.261   1.448   1.434 -0.0443  0.3098  0.2007
   67MOL   C20120133   2.119   1.598   1.538 -0.1458 -0.5707  0.2106
   67MOL   C20220134   2.133   1.696   1.657  0.6237  0.9087  0.0512
   67MOL   C20320135   2.418   1.706   1.233 -0.6590  0.1797  0.1847
   67MOL   H20420136   2.473   1.552   1.379 -1.5823  0.0147 -0.5574
   67MOL   H20520137   2.047   1.627   1.461 -0.2809 -2.6788 -0.4905
   67MOL   H20620138   2.086   1.505   1.585  0.0784 -0.1052  1.3014
   67MOL   H20720139   2.204   1.657   1.730  0.9453 -0.9746 -1.2053
   67MOL   H20820140   2.167   1.794   1.622 -1.5949  1.7933  0.3101
   67MOL   H20920141   2.044   1.719   1.715 -0.9210 -0.2029 -1.7941
   67MOL   H21020142   2.312   1.721   1.210 -0.4873  1.8712  0.4464
   67MOL   H21120143   2.455   1.807   1.216  1.0085 -0.3232  0.7843
   67MOL   C21220144   2.477   1.609   1.131 -0.5229 -0.3168 -0.1332
   67MOL   O21320145   2.396   1.495   1.107  0.0876  0.1422  0.3055
   67MOL   C21420146   2.427   1.367   1.154  0.2195  0.4197  0.1968
   67MOL   O21520147   2.523   1.335   1.227  0.3767 -0.3931  0.2392
   67MOL   C21620148   2.323   1.267   1.110 -0.0342 -0.6750 -0.4269
   67MOL   C21720149   2.265   1.172   1.219 -0.1486 -0.5226 -0.4072
   67MOL   C21820150   2.496   1.685   0.997 -0.6199 -0.4099 -0.3250
   67MOL   H21920151   2.577   1.590   1.171 -0.8292 -0.3804  0.5926
   67MOL   H22020152   2.240   1.337   1.096 -0.8974 -1.1961  1.9701
   67MOL   H22120153   2.345   1.223   1.012 -0.3557 -0.5440 -0.5610
   67MOL   H22220154   2.206   1.231   1.288  0.7878 -0.2414  0.1675
   67MOL   H22320155   2.219   1.084   1.174 -0.0200 -0.8093  0.0226
   67MOL   H22420156   2.338   1.132   1.291 -3.0414 -2.3859  1.5883
   67MOL   H22520157   2.395   1.678   0.955 -0.8656 -1.4712  0.4377
   67MOL   H22620158   2.533   1.786   1.012  0.4484 -0.8587  0.0936
   67MOL   C22720159   2.582   1.599   0.895  0.4026 -0.0641  0.1601
   67MOL   O22820160   2.583   1.663   0.764 -0.2497  0.4052 -0.5774
   67MOL   C22920161   2.564   1.575   0.660 -0.3697  0.0485 -0.4304
   67MOL   O23020162   2.569   1.454   0.653  0.2565 -0.1232  0.5770
   67MOL   C23120163   2.548   1.650   0.535  0.6137  0.2799  0.0407
   67MOL   C23220164   2.411   1.722   0.539  0.2609  0.1254 -0.1478
   67MOL   C23320165   2.728   1.560   0.934 -0.4839 -0.3099  0.4711
   67MOL   H23420166   2.539   1.498   0.889 -0.4554  0.4075 -2.2854
   67MOL   H23520167   2.634   1.715   0.520  0.7790 -0.0964 -0.7040
   67MOL   H23620168   2.550   1.571   0.459 -2.1257  0.5287 -0.3505
   67MOL   H23720169   2.436   1.827   0.551  1.4828 -0.1049 -0.5523
   67MOL   H23820170   2.359   1.697   0.446  0.1695 -1.2200  0.2503
   67MOL   H23920171   2.345   1.690   0.619  0.2335 -0.1842 -0.2943
   67MOL   H24020172   2.720   1.509   1.030 -2.0236 -1.0913 -0.0555
   67MOL   H24120173   2.778   1.498   0.860 -0.3600  1.6071 -1.0956
   67MOL   C24220174   2.816   1.688   0.947 -0.5440 -0.6801 -0.3314
   67MOL   O24320175   2.926   1.658   1.031  0.0589  0.4121  0.7206
   67MOL   C24420176   2.915   1.697   1.158 -0.9399  0.2692  0.1058
   67MOL   O24520177   2.812   1.727   1.220  0.3028  0.2768  0.5971
   67MOL   C24620178   3.051   1.680   1.229 -0.0747 -0.3528 -0.4765
   67MOL   C24720179   3.035   1.694   1.380 -0.5742 -0.1063  0.4821
   67MOL   C24820180   2.884   1.737   0.816  0.1580 -0.6815 -0.5492
   67MOL   H24920181   2.757   1.769   0.991  2.7337  1.0779  0.9990
   67MOL   H25020182   3.090   1.582   1.201 -0.0027  0.2811 -2.7829
   67MOL   H25120183   3.112   1.761   1.188 -0.9322  0.6644  0.2406
   67MOL   H25220184   2.991   1.792   1.399  0.3335  0.5401 -0.6923
   67MOL   H25320185   2.966   1.620   1.421 -0.6856 -1.6738 -2.4327
   67MOL   H25420186   3.122   1.679   1.444 -2.1619  0.5641  2.8759
   67MOL   H25520187   2.993   1.736   0.822  0.1672 -0.1921 -0.6010
   67MOL   H25620188   2.869   1.655   0.745 -3.3151 -0.4456 -0.1899
   67MOL   C25720189   2.841   1.870   0.767 -0.0988  0.4002  0.3339
   67MOL   O25820190   2.869   1.980   0.857 -0.1592  0.2368 -0.0267
   67MOL   C25920191   2.777   2.062   0.911  0.7026  0.4110  0.5440
   67MOL   O26020192   2.660   2.054   0.893  0.2893 -0.0059  0.7297
   67MOL   C26120193   2.836   2.158   1.012 -0.0659 -0.5882  0.1981
   67MOL   C26220194   2.729   2.250   1.073  0.5585  0.2389  0.3032
   67MOL   C26320195   2.910   1.898   0.636 -0.2896 -0.3933 -0.1850
   67MOL   H26420196   2.732   1.863   0.759 -0.0333  0.1810 -0.4805
   67MOL   H26520197   2.880   2.104   1.096  0.4204 -1.8214 -0.8258
   67MOL   H26620198   2.909   2.216   0.956 -0.8174  1.7778  1.5856
   67MOL   H26720199   2.653   2.189   1.120 -0.3662  1.5754  0.5668
   67MOL   H26820200   2.762   2.317   1.152  0.0230 -0.8301  1.4450
   67MOL   H26920201   2.671   2.315   1.007 -0.5558 -2.6021 -1.6054
   67MOL   H27020202   3.014   1.910   0.667 -1.3312 -0.3808  3.4923
   67MOL   H27120203   2.909   1.809   0.572 -2.3367  1.1375 -2.3779
   67MOL   C27220204   2.863   2.025   0.553  0.0440  0.6698  0.0172
   67MOL   O27320205   2.931   2.041   0.421  0.5583  0.8502 -0.3877
   67MOL   C27420206   3.054   2.103   0.419 -0.7962 -0.5519  0.6728
   67MOL   O27520207   3.122   2.144   0.518  0.3932  0.1714 -0.2511
   67MOL   C27620208   3.109   2.126   0.277 -0.5085  0.0201  0.4621
   67MOL   C27720209   3.217   2.241   0.263 -0.0486  0.3193  0.3674
   67MOL   C27820210   2.712   2.034   0.541  0.3249  0.1646 -0.1432
   67MOL   H27920211   2.890   2.104   0.623 -0.8606  0.2114  0.9125
   67MOL   H28020212   3.161   2.036   0.245  0.3519  1.3942 -2.1430
   67MOL   H28120213   3.030   2.141   0.203  0.0796  0.5042 -0.0700
   67MOL   H28220214   3.311   2.206   0.305  0.0691 -1.1919 -1.1286
   67MOL   H28320215   3.225   2.271   0.159  1.4634 -1.9957 -0.2287
   67MOL   H28420216   3.187   2.328   0.321 -1.4284 -0.3892  0.7723
   67MOL   H28520217   2.683   1.938   0.499  1.7520  0.7816 -2.6496
   67MOL   H28620218   2.655   2.027   0.634  1.1647  0.7307  0.4192
   67MOL   C28720219   2.660   2.161   0.464 -0.7631 -0.0402 -0.0855
   67MOL   O28820220   2.520   2.133   0.441 -0.9097  0.0276 -0.4838
   67MOL   C28920221   2.483   2.150   0.314 -0.1719  0.2362  0.6589
   67MOL   O29020222   2.542   2.213   0.227 -0.8768  0.4984  0.2703
   67MOL   C29120223   2.346   2.081   0.295 -1.1400  0.1062 -0.6113
   67MOL   C29220224   2.234   2.147   0.370 -0.1067  0.0200  0.2072
   67MOL   C29320225   2.670   2.290   0.549 -0.9376 -0.8905 -0.6961
   67MOL   H29420226   2.727   2.160   0.378  0.3654 -0.5204  0.7855
   67MOL   H29520227   2.312   2.070   0.192  2.4223 -2.9138 -1.5697
   67MOL   H29620228   2.345   1.977   0.328  0.3315  0.2446 -0.0834
   67MOL   H29720229   2.139   2.113   0.329  1.0534  0.2507 -2.7748
   67MOL   H29820230   2.257   2.133   0.476 -0.2009  1.6570  0.4636
   67MOL   H29920231   2.235   2.255   0.358 -2.2390  0.0408 -0.0320
   67MOL   H30020232   2.773   2.326   0.551 -1.4096  0.4885 -0.1631
   67MOL   H30120233   2.628   2.375   0.494 -0.1843  0.8376  1.3204
   67MOL   H30220234   2.635   2.289   0.653  1.4503 -0.1620  0.1390
   68MOL     C120235   7.183   1.853   7.152 -0.8393 -0.4556 -0.5373
   68MOL     O220236   7.292   1.892   7.222 -0.1622  0.1639  0.1369
   68MOL     C320237   7.277   1.953   7.336  0.4258  0.0576  0.2554
   68MOL     O420238   7.173   1.992   7.385 -0.5066 -0.1847  0.4402
   68MOL     C520239   7.411   1.975   7.409  0.0035 -0.5396  0.0006
   68MOL     C620240   7.532   2.032   7.324 -0.6033  0.4993 -0.2516
   68MOL     C720241   7.236   1.766   7.033 -0.0243  0.2636  0.8050
   68MOL     H820242   7.138   1.947   7.121  1.3947  0.8242  0.0258
   68MOL     H920243   7.398   2.053   7.485 -0.0170  0.0992 -0.6490
   68MOL    H1020244   7.438   1.886   7.465 -0.2990  0.7289  2.2666
   68MOL    H1120245   7.524   2.141   7.329  0.7257  0.6598 -1.1933
   68MOL    H1220246   7.628   2.003   7.367 -1.2606  1.6438  2.0725
   68MOL    H1320247   7.527   2.004   7.218  1.7894 -0.8312 -0.0495
   68MOL    H1420248   7.167   1.746   6.951  2.2168 -2.4160 -0.5080
   68MOL    H1520249   7.313   1.829   6.989 -0.0335  0.7820  1.5082
   68MOL    H1620250   7.121   1.793   7.219  0.7151 -2.7546 -1.0836
   68MOL    C1720251   7.305   1.630   7.069 -1.1164 -0.3896  0.1547
   68MOL    O1820252   7.198   1.546   7.129  0.9357 -0.3992 -0.0789
   68MOL    C1920253   7.183   1.544   7.260  0.2188 -0.3548 -0.1259
   68MOL    O2020254   7.259   1.599   7.340  0.2888 -0.2471  0.2407
   68MOL    C2120255   7.079   1.452   7.319 -0.1708 -0.4121  0.8210
   68MOL    C2220256   7.074   1.319   7.254  1.2439  0.9264 -0.5050
   68MOL    C2320257   7.390   1.562   6.959  0.1683  0.5729 -0.3038
   68MOL    H2420258   7.381   1.646   7.146  0.3683 -0.6357 -1.2258
   68MOL    H2520259   7.097   1.452   7.426  0.9524 -1.1094  0.6370
   68MOL    H2620260   6.982   1.502   7.310  0.2299  0.1944 -0.2285
   68MOL    H2720261   7.157   1.263   7.297  1.3969  0.1845 -1.7690
   68MOL    H2820262   6.979   1.276   7.286  0.8949  1.6851 -0.5291
   68MOL    H2920263   7.081   1.317   7.146  0.9550  1.3796 -0.5307
   68MOL    H3020264   7.417   1.466   7.004  1.6531  0.7606 -0.7661
   68MOL    H3120265   7.331   1.543   6.868  1.1130 -2.7115 -0.3116
   68MOL    C3220266   7.521   1.635   6.913  0.3252  0.8065  0.3961
   68MOL    O3320267   7.623   1.620   7.015  0.1289 -0.2781 -0.6196
   68MOL    C3420268   7.697   1.719   7.055 -0.4028  0.0024  0.0768
   68MOL    O3520269   7.678   1.835   7.019  0.5734  0.2430  0.5736
   68MOL    C3620270   7.805   1.678   7.153  0.2340 -0.5117 -0.1639
   68MOL    C3720271   7.919   1.609   7.065 -0.2949 -0.1902  0.5466
   68MOL    C3820272   7.560   1.574   6.785  0.4321  0.1585  0.1419
   68MOL    H3920273   7.505   1.740   6.889 -0.0339  1.0742  1.7262
   68MOL    H4020274   7.854   1.768   7.191 -0.1940 -0.6448  0.7057
   68MOL    H4120275   7.771   1.611   7.232 -1.1927  1.1860  0.6758
   68MOL    H4220276   0.011   1.682   6.993  0.2614 -0.0542  0.9655
   68MOL    H4320277   0.054   1.558   7.118  0.1729 -0.5914 -0.5325
   68MOL    H4420278   7.882   1.533   6.996 -0.5132 -0.9894  1.5252
   68MOL    H4520279   7.572   1.466   6.798 -1.5631  0.0383  1.3798
   68MOL    H4620280   7.480   1.589   6.712 -1.1729 -1.0049  1.6075
   68MOL    C4720281   7.694   1.627   6.722 -0.9112 -0.6244  0.5224
   68MOL    O4820282   7.723   1.548   6.610 -0.0846 -0.0764 -0.2908
   68MOL    C4920283   7.773   1.420   6.622  0.7105 -0.0091 -0.0759
   68MOL    O5020284   7.801   1.365   6.727 -0.2011  0.0432 -0.1306
   68MOL    C5120285   7.805   1.354   6.489 -0.2466 -0.2429  0.2798
   68MOL    C5220286   0.002   1.303   6.492 -0.6724  0.9020  0.1676
   68MOL    C5320287   7.704   1.780   6.688 -0.3826  0.3263  0.1304
   68MOL    H5420288   7.775   1.599   6.789 -0.5475 -1.5504 -0.2931
   68MOL    H5520289   7.734   1.272   6.474  0.1775 -0.5862  0.1255
   68MOL    H5620290   7.797   1.414   6.398 -1.3408 -0.7147  0.0620
   68MOL    H5720291   0.073   1.384   6.473  0.9097 -0.4339  0.3261
   68MOL    H5820292   0.029   1.233   6.571  0.5553 -0.7836 -1.6917
   68MOL    H5920293   0.010   1.244   6.401  0.8789 -0.3083  1.0662
   68MOL    H6020294   7.622   1.808   6.622 -0.4261 -0.8335 -0.3208
   68MOL    H6120295   7.701   1.830   6.785  0.4665 -0.7770  0.7412
   68MOL    C6220296   7.838   1.830   6.631  0.3219 -0.0730 -0.4758
   68MOL    O6320297   7.833   1.800   6.491 -0.1644 -0.6803 -0.0833
   68MOL    C6420298   7.940   1.768   6.416  0.3237 -0.0504  0.0086
   68MOL    O6520299   0.107   1.753   6.468 -0.8423  0.3969  0.2090
   68MOL    C6620300   7.911   1.761   6.265  0.4274 -0.2939  0.2736
   68MOL    C6720301   0.036   1.874   6.192  0.0434  0.0910  0.0782
   68MOL    C6820302   7.864   1.977   6.658  0.3656 -0.1486  0.1577
   68MOL    H6920303   7.920   1.783   6.684  0.5552  0.1613 -0.6322
   68MOL    H7020304   0.016   1.670   6.233  0.3682  0.2269 -1.3572
   68MOL    H7120305   7.803   1.770   6.250  0.6137  1.0855 -0.3537
   68MOL    H7220306   0.008   1.889   6.088  0.0462  2.3610  0.3752
   68MOL    H7320307   0.012   1.969   6.240 -0.8246 -0.4887  0.8103
   68MOL    H7420308   0.142   1.855   6.173  0.2819  2.2068 -0.8205
   68MOL    H7520309   7.774   2.022   6.614  1.3234  1.2319 -0.4370
   68MOL    H7620310   7.873   2.005   6.763 -1.3343  0.5848  0.1297
   68MOL    C7720311   0.034   2.052   6.603 -1.2684 -0.1988  0.0014
   68MOL    O7820312   0.004   2.188   6.621  0.5770 -0.1825 -0.2846
   68MOL    C7920313   7.889   2.264   6.523  0.1637  0.3972  0.2568
   68MOL    O8020314   7.850   2.220   6.417 -0.0382  0.1020  0.4297
   68MOL    C8120315   7.870   2.411   6.553 -0.4491  0.2792  0.0778
   68MOL    C8220316   0.044   2.492   6.504  1.0833 -0.5007 -0.8204
   68MOL    C8320317   0.171   2.020   6.672  0.2188  0.2625 -0.2275
   68MOL    H8420318   0.045   2.038   6.496 -0.2894  0.7594 -0.0366
   68MOL    H8520319   7.782   2.458   6.508 -0.3871  0.1411 -0.1929
   68MOL    H8620320   7.861   2.426   6.660  1.1949  0.5631  0.1877
   68MOL    H8720321   0.058   2.476   6.397  2.5762  0.8621 -0.8427
   68MOL    H8820322   0.009   2.595   6.518  0.4214 -0.6942 -1.0360
   68MOL    H8920323   0.141   2.471   6.549 -0.0207 -0.6924  1.5487
   68MOL    H9020324   0.170   2.053   6.776 -2.3280 -1.6826  0.4374
   68MOL    H9120325   0.199   1.914   6.677 -0.6722  0.0315 -0.0532
   68MOL    C9220326   0.284   2.095   6.600 -0.3694 -0.7906  0.1560
   68MOL    O9320327   0.394   2.071   6.680  0.3977 -0.2922  0.3624
   68MOL    C9420328   0.467   2.166   6.730 -0.2481 -0.5715  0.3437
   68MOL    O9520329   0.449   2.285   6.717 -0.4767 -0.2257  0.2664
   68MOL    C9620330   0.573   2.112   6.821 -0.0674  0.2732 -0.0134
   68MOL    C9720331   0.583   2.181   6.951 -0.0885 -0.7802  0.3877
   68MOL    C9820332   0.315   2.044   6.457  0.0439 -0.1650  0.4974
   68MOL    H9920333   0.252   2.198   6.586 -1.6911 -1.1875  0.1910
   68MOL   H10020334   0.532   2.012   6.835  2.1888 -0.6442  0.2598
   68MOL   H10120335   0.668   2.092   6.771  0.7614  0.3389  1.4894
   68MOL   H10220336   0.658   2.146   7.022  0.7264 -0.9607 -0.5605
   68MOL   H10320337   0.612   2.286   6.944 -0.6475 -0.5729  1.0616
   68MOL   H10420338   0.494   2.168   7.013 -1.5762  2.1769 -1.0374
   68MOL   H10520339   0.333   1.936   6.455  0.5131 -0.1357  2.1363
   68MOL   H10620340   0.223   2.060   6.402  0.1127 -1.5507 -0.0422
   68MOL   C10720341   0.436   2.112   6.390  0.4889 -0.2225 -0.5765
   68MOL   O10820342   0.547   2.031   6.423 -0.1329 -0.0268  0.1628
   68MOL   C10920343   0.681   2.078   6.415 -0.4187  0.0541  0.2589
   68MOL   O11020344   0.711   2.185   6.369 -0.0448 -0.3016  1.1214
   68MOL   C11120345   0.779   1.970   6.462  0.5702 -0.2948  0.4376
   68MOL   C11220346   0.754   1.828   6.402 -0.1152  0.6334 -0.0166
   68MOL   C11320347   0.420   2.120   6.236  0.2520  0.0947 -0.4740
   68MOL   H11420348   0.450   2.212   6.432  2.1393 -0.2946 -0.9042
   68MOL   H11520349   0.880   2.000   6.434 -0.7745  1.5337 -2.6957
   68MOL   H11620350   0.778   1.954   6.570  0.2896 -2.7370  0.0991
   68MOL   H11720351   0.838   1.764   6.428 -0.5303  0.3025  0.5269
   68MOL   H11820352   0.663   1.780   6.439  0.0710 -1.0397 -1.6501
   68MOL   H11920353   0.742   1.818   6.294  1.6824  0.3166 -0.1920
   68MOL   H12020354   0.516   2.132   6.186 -0.3739 -0.1988 -1.7746
   68MOL   H12120355   0.387   2.025   6.195  1.1980  0.2036 -1.5249
   68MOL   C12220356   0.321   2.224   6.192 -0.1244  0.7783  0.2914
   68MOL   O12320357   0.382   2.350   6.181 -0.6869  1.1326 -0.3797
   68MOL   C12420358   0.374   2.445   6.266 -0.1683  0.0024  0.4032
   68MOL   O12520359   0.352   2.438   6.385 -0.0920  0.0791 -0.0948
   68MOL   C12620360   0.429   2.575   6.199  0.4701 -0.2589 -0.2926
   68MOL   C12720361   0.353   2.705   6.235  0.0613 -0.0382  0.9087
   68MOL   C12820362   0.253   2.190   6.060 -0.3154  0.3364  0.0721
   68MOL   H12920363   0.240   2.226   6.265 -1.2051 -2.7175 -0.6965
   68MOL   H13020364   0.523   2.589   6.251  0.8797  1.1783 -1.3589
   68MOL   H13120365   0.464   2.574   6.096 -1.3937 -0.4325 -0.9479
   68MOL   H13220366   0.318   2.685   6.336  1.3197 -2.1276  0.9645
   68MOL   H13320367   0.420   2.791   6.244  0.9965 -0.5988 -0.4717
   68MOL   H13420368   0.276   2.736   6.165  0.9632 -2.8823 -1.4295
   68MOL   H13520369   0.330   2.203   5.984  1.1137  0.1080  1.4542
   68MOL   H13620370   0.215   2.089   6.074  1.3323 -0.0868  1.6299
   68MOL   C13720371   0.147   2.301   6.018  0.1746  0.3265 -0.3600
   68MOL   O13820372   0.106   2.253   5.892 -0.5308 -0.6714  0.4108
   68MOL   C13920373   0.098   2.344   5.791 -0.0358 -0.0978  0.6075
   68MOL   O14020374   0.144   2.457   5.792  0.2762  0.2183 -0.4822
   68MOL   C14120375   0.019   2.286   5.673  0.0782 -0.2285  0.7242
   68MOL   C14220376   7.814   2.324   5.669 -0.0110  0.0339 -0.2489
   68MOL   C14320377   0.024   2.323   6.112 -0.0806  0.6024 -0.3615
   68MOL   H14420378   0.201   2.395   6.023  0.3469  0.2741 -1.1081
   68MOL   H14520379   0.062   2.321   5.578  1.0726 -0.6389  1.0168
   68MOL   H14620380   0.038   2.179   5.677  1.5966 -0.0882 -1.3647
   68MOL   H14720381   7.767   2.245   5.611  1.2562  0.8491 -2.4624
   68MOL   H14820382   7.764   2.335   5.765 -2.6067 -1.6233 -1.3612
   68MOL   H14920383   7.796   2.423   5.626  1.0305 -0.4345 -1.8120
   68MOL   H15020384   7.909   2.234   6.091  2.8590 -1.7723  0.9829
   68MOL   H15120385   0.052   2.312   6.217 -0.0366  0.3628 -0.3983
   68MOL   C15220386   7.899   2.457   6.091 -0.5791 -0.0011 -0.0098
   68MOL   O15320387   7.805   2.487   6.194 -0.3112 -0.2393  0.2041
   68MOL   C15420388   7.676   2.487   6.172  0.2660 -0.5075  0.6939
   68MOL   O15520389   7.625   2.471   6.067 -0.5168 -0.2877  0.3668
   68MOL   C15620390   7.586   2.520   6.290 -0.6517 -0.5304  0.1854
   68MOL   C15720391   7.540   2.402   6.374  0.7058  0.4321  0.7855
   68MOL   C15820392   0.042   2.587   6.094 -0.2267 -0.3782 -0.1769
   68MOL   H15920393   7.848   2.464   5.995  0.8928  1.5543 -0.6921
   68MOL   H16020394   7.654   2.581   6.349  1.3732 -2.3490 -0.1913
   68MOL   H16120395   7.514   2.590   6.247  0.4879  0.7949  0.4059
   68MOL   H16220396   7.618   2.326   6.379 -0.1409 -0.4709  0.1907
   68MOL   H16320397   7.532   2.444   6.475  0.4598  1.7050  0.2441
   68MOL   H16420398   7.444   2.364   6.340  1.0683  0.2121  0.0197
   68MOL   H16520399   0.079   2.593   6.197 -3.9631 -1.1518  1.2843
   68MOL   H16620400   0.134   2.575   6.036  1.0715 -4.0913  2.4430
   68MOL   C16720401   7.909   2.714   6.063 -0.0262 -0.5142 -0.6417
   68MOL   O16820402   0.057   2.824   6.086 -0.0044  0.2931  0.2142
   68MOL   C16920403   0.034   2.895   6.193 -0.5879 -0.5395 -0.3318
   68MOL   O17020404   7.898   2.874   6.283  0.0535 -0.3502  0.1738
   68MOL   C17120405   0.130   3.011   6.189  0.1758 -0.7956 -0.2705
   68MOL   C17220406   0.127   3.098   6.312 -0.2772  0.2077 -0.3442
   68MOL   C17320407   7.879   2.726   5.912 -0.0149  0.5506 -0.3605
   68MOL   H17420408   7.815   2.723   6.116  0.6103 -1.3722  0.6752
   68MOL   H17520409   0.230   2.991   6.150  1.2362 -0.7061  2.3315
   68MOL   H17620410   0.085   3.072   6.110 -2.8667 -3.1650 -0.4659
   68MOL   H17720411   0.076   3.050   6.395  0.6713 -0.1329  0.0457
   68MOL   H17820412   0.223   3.114   6.360 -0.5528  1.8333 -0.3067
   68MOL   H17920413   0.087   3.195   6.282  2.3657  1.4351 -0.0571
   68MOL   H18020414   0.032   2.738   5.865  0.0728 -2.0546 -0.9588
   68MOL   H18120415   7.854   2.629   5.867  1.6775 -0.4462  0.7885
   68MOL   C18220416   7.775   2.824   5.861 -0.2128  0.5410 -0.6316
   68MOL   O18320417   7.816   2.957   5.874 -0.2194 -0.1709 -0.2290
   68MOL   C18420418   7.745   3.043   5.937 -0.3337 -0.6463 -0.3642
   68MOL   O18520419   7.642   3.017   6.000 -0.1318  0.7871 -0.2086
   68MOL   C18620420   7.810   3.182   5.944 -0.0808 -0.5388  0.0053
   68MOL   C18720421   7.719   3.292   6.013  0.2120  0.2886 -0.4459
   68MOL   C18820422   7.735   2.788   5.719 -0.3202  0.1669 -0.3530
   68MOL   H18920423   7.681   2.814   5.915  0.8128  1.9315  1.4464
   68MOL   H19020424   7.910   3.181   5.986 -0.4736  2.0345  1.1055
   68MOL   H19120425   7.824   3.208   5.839 -3.7010 -1.5700 -0.8342
   68MOL   H19220426   7.760   3.307   6.113  1.5135 -3.4225 -0.3342
   68MOL   H19320427   7.729   3.386   5.959 -1.8068  0.1227 -1.1560
   68MOL   H19420428   7.613   3.268   6.026  0.2142  0.8115  0.6324
   68MOL   H19520429   7.823   2.758   5.662  2.6682  3.0486  2.5468
   68MOL   H19620430   7.671   2.700   5.727 -1.4188  1.0323  0.5897
   68MOL   C19720431   7.654   2.896   5.647  0.6240  0.8405 -0.7253
   68MOL   O19820432   7.633   2.853   5.513  1.0414 -0.4570 -0.1361
   68MOL   C19920433   7.642   2.929   5.405 -0.0585 -0.4957 -0.1696
   68MOL   O20020434   7.693   3.040   5.403  0.2485 -0.8062  0.0296
   68MOL   C20120435   7.588   2.868   5.277  0.2998  0.0183 -0.2634
   68MOL   C20220436   7.452   2.921   5.235  1.0509  1.1595  0.5178
   68MOL   C20320437   7.513   2.908   5.712  0.1737 -0.0495 -0.1333
   68MOL   H20420438   7.707   2.991   5.638  0.9122  0.6595 -0.9358
   68MOL   H20520439   7.665   2.875   5.200  0.2113 -0.7634 -0.4282
   68MOL   H20620440   7.576   2.760   5.289  0.7668  0.0272  0.2846
   68MOL   H20720441   7.388   2.844   5.192  1.6720  2.0324 -2.0810
   68MOL   H20820442   7.392   2.954   5.320  0.9170  0.4484  0.7064
   68MOL   H20920443   7.464   3.007   5.169 -3.6932  2.2417  0.8649
   68MOL   H21020444   7.442   2.828   5.692 -1.0696  1.0462 -0.1325
   68MOL   H21120445   7.508   2.906   5.821 -2.7580  2.7620 -0.1468
   68MOL   C21220446   7.436   3.033   5.661  0.4108  0.3478  0.2536
   68MOL   O21320447   7.310   3.020   5.724 -0.1938  0.5476 -0.0123
   68MOL   C21420448   7.196   2.998   5.642 -0.4261  0.7087  0.2428
   68MOL   O21520449   7.188   2.993   5.520  0.1170  0.1129 -0.2238
   68MOL   C21620450   7.070   2.985   5.731  0.8083 -0.6041  0.9608
   68MOL   C21720451   7.041   2.833   5.751  0.0982 -0.0436  1.0129
   68MOL   C21820452   7.509   3.167   5.693 -0.5771  0.1164 -0.4278
   68MOL   H21920453   7.421   3.025   5.553 -1.7024 -0.1549  0.5518
   68MOL   H22020454   7.090   3.041   5.822  2.6630 -1.9540  1.4246
   68MOL   H22120455   6.991   3.035   5.675  1.2825 -1.2844 -0.3337
   68MOL   H22220456   6.942   2.821   5.795 -0.8251  0.6081 -0.8404
   68MOL   H22320457   7.032   2.773   5.661 -1.2055  0.5543  0.7317
   68MOL   H22420458   7.109   2.800   5.829 -1.5013 -1.3007  1.9180
   68MOL   H22520459   7.497   3.181   5.801  0.2946 -0.0761 -0.3017
   68MOL   H22620460   7.617   3.172   5.682 -0.3753 -4.2730 -1.3456
   68MOL   C22720461   7.448   3.285   5.621  0.2723  0.0050  0.0904
   68MOL   O22820462   7.509   3.404   5.663 -0.6142  0.1700 -0.3140
   68MOL   C22920463   7.464   3.471   5.774 -0.1291  0.4260  1.4514
   68MOL   O23020464   7.394   3.425   5.862  0.1897 -0.2681 -0.2465
   68MOL   C23120465   7.515   3.610   5.771 -0.3572  0.0648 -0.2497
   68MOL   C23220466   7.415   3.705   5.840  0.7402  0.1389 -0.0495
   68MOL   C23320467   7.465   3.283   5.463  0.1726 -0.2472 -0.5858
   68MOL   H23420468   7.341   3.281   5.642  0.4313 -0.5129  0.8452
   68MOL   H23520469   7.617   3.614   5.809 -0.2672 -1.0906 -0.3634
   68MOL   H23620470   7.517   3.631   5.664 -0.4395  0.7470 -0.1207
   68MOL   H23720471   7.315   3.710   5.798  1.1563 -0.1197 -1.0879
   68MOL   H23820472   7.389   3.691   5.945  1.4126 -0.6116  0.0221
   68MOL   H23920473   7.458   3.805   5.839  0.9085  0.0665 -0.1409
   68MOL   H24020474   7.565   3.321   5.442  0.1611  0.1904  0.1481
   68MOL   H24120475   7.460   3.184   5.418 -0.8518 -0.5206  0.1132
   68MOL   C24220476   7.364   3.366   5.377  0.0046 -0.4950 -0.5064
   68MOL   O24320477   7.226   3.317   5.381  1.0633 -0.4336 -0.6278
   68MOL   C24420478   7.167   3.243   5.276 -1.4168  0.1959  0.0923
   68MOL   O24520479   7.230   3.203   5.185 -0.2270  0.0921  0.2966
   68MOL   C24620480   7.018   3.228   5.260 -0.8031  0.4147 -0.7090
   68MOL   C24720481   6.943   3.269   5.389  0.5480 -0.0263 -1.4023
   68MOL   C24820482   7.369   3.524   5.401  0.8559  0.0737  0.0355
   68MOL   H24920483   7.395   3.344   5.275  0.7867  0.1584 -0.4139
   68MOL   H25020484   6.992   3.300   5.182 -0.9659  0.0882 -0.9577
   68MOL   H25120485   6.988   3.126   5.236 -0.6430 -0.8009  3.7530
   68MOL   H25220486   6.842   3.228   5.384  0.7952 -0.6560 -1.2235
   68MOL   H25320487   6.989   3.227   5.478 -1.4808 -2.5870 -1.4877
   68MOL   H25420488   6.937   3.378   5.394 -1.3351 -0.2099  4.9614
   68MOL   H25520489   7.343   3.549   5.504 -1.9055 -1.4652 -0.2331
   68MOL   H25620490   7.466   3.558   5.364  0.2455  3.1385  1.0509
   68MOL   C25720491   7.260   3.601   5.330 -0.4213  0.6996  0.1211
   68MOL   O25820492   7.264   3.735   5.378  0.3449 -0.0258 -1.0622
   68MOL   C25920493   7.147   3.785   5.418 -0.0010  0.0850  0.5518
   68MOL   O26020494   7.038   3.735   5.396  0.0600 -0.1620  0.1093
   68MOL   C26120495   7.156   3.923   5.471 -0.1393 -0.4622 -0.2243
   68MOL   C26220496   7.148   4.028   5.360 -0.5270 -0.3847 -0.5826
   68MOL   C26320497   7.269   3.602   5.179  0.3143  0.1901  0.1551
   68MOL   H26420498   7.162   3.555   5.346 -1.3032  2.9149  1.2757
   68MOL   H26520499   7.072   3.939   5.539 -0.2585 -2.3616  0.1140
   68MOL   H26620500   7.248   3.944   5.525 -0.4502 -2.4358  1.1715
   68MOL   H26720501   7.208   4.117   5.379 -0.2440 -0.5044 -0.9111
   68MOL   H26820502   7.176   3.995   5.260 -1.0487  3.1571 -1.9871
   68MOL   H26920503   7.050   4.075   5.358 -0.2821  0.1093 -1.5684
   68MOL   H27020504   7.363   3.641   5.140  0.2106 -0.6196 -0.9111
   68MOL   H27120505   7.265   3.498   5.148 -3.0870 -0.0480  1.2325
   68MOL   C27220506   7.158   3.670   5.102 -0.0765  0.1084  0.1614
   68MOL   O27320507   7.186   3.669   4.964  0.2450 -0.0160  0.2427
   68MOL   C27420508   7.162   3.781   4.888 -0.9422 -0.1064  1.3225
   68MOL   O27520509   7.118   3.891   4.929 -0.3426  0.1447 -0.1880
   68MOL   C27620510   7.191   3.752   4.746 -0.9009 -0.0822  0.3479
   68MOL   C27720511   7.100   3.652   4.669 -0.2558 -0.1648  0.1026
   68MOL   C27820512   7.014   3.604   5.117  0.1471  0.1520  0.1590
   68MOL   H27920513   7.151   3.773   5.136 -1.9358  0.1844 -0.3933
   68MOL   H28020514   7.197   3.846   4.690  1.5685 -1.0203 -1.0716
   68MOL   H28120515   7.291   3.709   4.738 -1.0566 -0.5383  0.8496
   68MOL   H28220516   7.140   3.634   4.569 -0.1449  1.1706 -0.1127
   68MOL   H28320517   7.093   3.563   4.731  2.5819 -1.9644 -2.0482
   68MOL   H28420518   7.003   3.696   4.645 -0.1805 -0.2895 -0.4357
   68MOL   H28520519   7.029   3.512   5.061  0.8598 -0.6770  1.7001
   68MOL   H28620520   6.986   3.571   5.217  3.5809  0.5624  1.3349
   68MOL   C28720521   6.895   3.684   5.055 -0.1489 -0.2384  0.0347
   68MOL   O28820522   6.774   3.605   5.051 -0.7621  0.3031  1.2045
   68MOL   C28920523   6.743   3.533   4.943 -0.1672 -0.3816 -0.2949
   68MOL   O29020524   6.807   3.535   4.834 -0.0735  0.6319  0.2565
   68MOL   C29120525   6.621   3.455   4.967  0.1276  0.9514  0.2185
   68MOL   C29220526   6.560   3.387   4.844 -0.3632 -0.1151  0.2970
   68MOL   C29320527   6.848   3.811   5.126  0.2682  0.3176 -0.0789
   68MOL   H29420528   6.923   3.709   4.953 -2.4431 -0.0546 -0.5810
   68MOL   H29520529   6.650   3.381   5.042  0.2922 -0.2713 -1.0358
   68MOL   H29620530   6.542   3.515   5.013 -0.6758  0.7755 -0.9321
   68MOL   H29720531   6.483   3.320   4.881  0.7163 -0.7775  1.3956
   68MOL   H29820532   6.525   3.466   4.778  1.2320  0.5431  0.2150
   68MOL   H29920533   6.641   3.333   4.795  0.6972  0.2489  1.6292
   68MOL   H30020534   6.776   3.861   5.063  2.5521  3.2351 -0.5007
   68MOL   H30120535   6.798   3.782   5.219  1.2398 -0.1569  0.3033
   68MOL   H30220536   6.930   3.879   5.151  0.3330  0.7752 -1.5006
   69MOL     C120537   1.032   0.584   2.484 -0.5783 -0.7496  0.3567
   69MOL     O220538   1.145   0.672   2.468  0.2166  0.0049 -0.0216
   69MOL     C320539   1.136   0.779   2.387  0.8200  0.4971  0.4422
   69MOL     O420540   1.042   0.826   2.316 -0.2757 -0.5769  0.2325
   69MOL     C520541   1.271   0.852   2.380 -0.1762 -0.2904  0.3792
   69MOL     C620542   1.314   0.885   2.522  0.3561 -0.1722  0.3789
   69MOL     C720543   1.021   0.548   2.636 -0.2749  0.0105  0.0842
   69MOL     H820544   1.035   0.498   2.417 -1.6294  1.3084 -2.4475
   69MOL     H920545   1.341   0.790   2.325 -0.6921  0.7081 -1.4475
   69MOL    H1020546   1.255   0.949   2.332  0.6353  0.7499  2.1210
   69MOL    H1120547   1.371   0.978   2.516  0.1204 -0.0731 -0.3761
   69MOL    H1220548   1.235   0.914   2.590 -1.1765 -2.1908 -0.4765
   69MOL    H1320549   1.377   0.811   2.571  1.3589  1.5169  1.7157
   69MOL    H1420550   1.116   0.503   2.665  1.0090  1.1261 -2.2975
   69MOL    H1520551   1.010   0.638   2.696 -2.3957 -0.4326  0.4247
   69MOL    H1620552   0.936   0.626   2.455 -1.2070 -2.1754  0.3189
   69MOL    C1720553   0.910   0.455   2.680 -0.5000 -0.7757 -0.1754
   69MOL    O1820554   0.923   0.341   2.595 -0.2453  0.0188  0.0624
   69MOL    C1920555   0.821   0.305   2.517  0.2021 -0.1377  0.6263
   69MOL    O2020556   0.714   0.369   2.509  0.0388  0.1793 -0.3216
   69MOL    C2120557   0.851   0.196   2.421 -0.3124 -0.6145  0.0392
   69MOL    C2220558   0.846   0.243   2.277  0.3974 -0.2014 -0.0749
   69MOL    C2320559   0.937   0.399   2.819 -0.1949  0.7974 -0.0978
   69MOL    H2420560   0.810   0.495   2.664 -0.5305 -0.5406  0.5681
   69MOL    H2520561   0.955   0.170   2.440 -0.3191  1.4268  3.2686
   69MOL    H2620562   0.785   0.111   2.436 -1.1060  0.1102  0.6824
   69MOL    H2720563   0.864   0.167   2.201  0.0127  0.6354 -1.0013
   69MOL    H2820564   0.757   0.301   2.252 -0.9477 -1.0798  2.4786
   69MOL    H2920565   0.922   0.320   2.270  0.0608  0.1251 -0.1384
   69MOL    H3020566   1.031   0.343   2.816 -1.3079 -1.0375 -1.3581
   69MOL    H3120567   0.943   0.479   2.893  1.8777  0.9907 -0.4603
   69MOL    C3220568   0.830   0.302   2.873 -0.1252 -0.1667 -0.7040
   69MOL    O3320569   0.894   0.212   2.959  0.1718 -0.5464  0.3939
   69MOL    C3420570   0.910   0.086   2.928 -0.2260  0.2383 -0.7014
   69MOL    O3520571   0.895   0.038   2.818  0.7050  0.4163 -0.0450
   69MOL    C3620572   0.946   0.009   3.052  0.4943 -0.6063  0.1524
   69MOL    C3720573   1.039   0.086   3.147  0.2676  0.5494 -0.5686
   69MOL    C3820574   0.723   0.352   2.977 -0.6286 -0.1123 -0.6265
   69MOL    H3920575   0.791   0.248   2.787 -1.3318 -0.5232  0.0597
   69MOL    H4020576   0.855   7.944   3.112 -0.5509  1.1730 -1.1081
   69MOL    H4120577   0.985   7.855   3.029 -2.1863 -1.8327  0.6384
   69MOL    H4220578   1.003   0.185   3.175 -1.2777 -0.2281  0.2835
   69MOL    H4320579   1.039   0.041   3.247 -0.4067  1.4983 -0.1275
   69MOL    H4420580   1.143   0.089   3.115 -0.0434 -0.8066 -1.7278
   69MOL    H4520581   0.649   0.274   2.992 -1.2249  0.6910  0.7057
   69MOL    H4620582   0.769   0.353   3.076 -1.7118 -1.5653 -0.0940
   69MOL    C4720583   0.648   0.475   2.940 -0.6862 -0.2166 -0.0471
   69MOL    O4820584   0.551   0.426   2.848 -0.3704 -0.3527  0.1190
   69MOL    C4920585   0.524   0.487   2.731 -0.6205 -0.5659  0.2075
   69MOL    O5020586   0.573   0.593   2.693  0.4206  0.3799 -0.7618
   69MOL    C5120587   0.428   0.415   2.647 -0.0621  0.1346  0.2453
   69MOL    C5220588   0.285   0.430   2.704 -0.0828  0.4969  0.0696
   69MOL    C5320589   0.590   0.542   3.061 -0.7172 -0.0578 -0.0840
   69MOL    H5420590   0.702   0.551   2.885 -3.8686  1.4188 -1.0331
   69MOL    H5520591   0.430   0.452   2.545 -2.6008  0.6919  0.3610
   69MOL    H5620592   0.462   0.312   2.641  0.1064  0.3828 -4.5317
   69MOL    H5720593   0.211   0.384   2.638  0.3612 -1.7932  1.1253
   69MOL    H5820594   0.267   0.387   2.802  0.0786  1.8936  0.7199
   69MOL    H5920595   0.259   0.536   2.712  1.9445  1.0166  0.0005
   69MOL    H6020596   0.523   0.468   3.105 -2.0655  2.1396  1.7048
   69MOL    H6120597   0.665   0.553   3.140  0.6141 -0.9437 -1.2052
   69MOL    C6220598   0.516   0.669   3.030 -0.2124  0.3085  0.3891
   69MOL    O6320599   0.454   0.712   3.151  0.2080  0.6857  0.1046
   69MOL    C6420600   0.321   0.743   3.159 -0.2919  0.4020 -0.0453
   69MOL    O6520601   0.243   0.734   3.066 -0.4721  0.2998  0.9639
   69MOL    C6620602   0.278   0.775   3.296 -0.1219  0.1266  0.6773
   69MOL    C6720603   0.263   0.926   3.318  0.3060 -0.1372  0.4262
   69MOL    C6820604   0.597   0.785   2.972 -0.3245 -0.8221 -0.5247
   69MOL    H6920605   0.441   0.652   2.953  4.3857 -1.3254 -4.0170
   69MOL    H7020606   0.181   0.724   3.292  0.0466 -0.1384  0.0181
   69MOL    H7120607   0.342   0.726   3.369  2.5975  2.2935 -0.2044
   69MOL    H7220608   0.353   0.987   3.315 -1.3673  2.3723  0.0640
   69MOL    H7320609   0.194   0.964   3.243 -0.3759 -0.0956  1.0616
   69MOL    H7420610   0.210   0.932   3.413 -1.6893 -0.8868 -0.5999
   69MOL    H7520611   0.651   0.753   2.883 -1.3654 -1.7200 -0.8355
   69MOL    H7620612   0.543   0.873   2.938 -0.0981 -0.4301  0.1139
   69MOL    C7720613   0.700   0.839   3.069 -0.1883 -0.6913 -0.0764
   69MOL    O7820614   0.798   0.916   3.009  0.1423  0.1093  0.8320
   69MOL    C7920615   0.902   0.871   2.943 -0.1933 -0.4018 -0.3112
   69MOL    O8020616   0.943   0.755   2.939 -0.9412  0.0427  0.3152
   69MOL    C8120617   0.986   0.982   2.872  0.1169  0.4386  0.0807
   69MOL    C8220618   1.020   0.958   2.724  0.0029  0.3265  0.1567
   69MOL    C8320619   0.648   0.935   3.184 -0.2470  0.2938 -0.3347
   69MOL    H8420620   0.753   0.754   3.112  1.4639  0.9631  1.2635
   69MOL    H8520621   0.927   1.074   2.867  0.0435  0.4089  0.3853
   69MOL    H8620622   1.071   1.015   2.931  0.0007  0.5695  0.1775
   69MOL    H8720623   0.930   0.949   2.663  1.9599 -1.4960 -2.6184
   69MOL    H8820624   1.071   1.045   2.683  3.3154 -0.0838  3.1209
   69MOL    H8920625   1.086   0.871   2.717  1.4093  1.4181 -0.3449
   69MOL    H9020626   0.697   1.032   3.174  1.1219 -0.1757  1.4809
   69MOL    H9120627   0.542   0.949   3.163  0.3355  0.3537 -3.5108
   69MOL    C9220628   0.678   0.881   3.320  0.7726 -0.1727  0.5037
   69MOL    O9320629   0.813   0.871   3.339 -0.0655  0.6646 -0.2957
   69MOL    C9420630   0.876   0.754   3.334  0.6489  0.2188  0.5601
   69MOL    O9520631   0.826   0.640   3.331 -0.6886  0.0198  0.2982
   69MOL    C9620632   1.028   0.759   3.332  0.4814 -0.7847 -0.1030
   69MOL    C9720633   1.082   0.821   3.466  0.3473  0.0084  0.3862
   69MOL    C9820634   0.635   0.984   3.424 -0.1745 -0.1698  0.7738
   69MOL    H9920635   0.624   0.788   3.340  2.5751 -1.1160  1.0576
   69MOL   H10020636   1.055   0.654   3.344 -2.6788 -1.5973  0.5610
   69MOL   H10120637   1.057   0.809   3.240 -2.6282  0.4185 -0.4756
   69MOL   H10220638   1.190   0.833   3.465  0.4173 -0.5663 -1.3304
   69MOL   H10320639   1.025   0.911   3.490  0.8374  0.4437 -0.0681
   69MOL   H10420640   1.055   0.751   3.545  1.1540 -0.1243  0.5523
   69MOL   H10520641   0.681   1.078   3.395 -1.4069 -0.0925 -1.0849
   69MOL   H10620642   0.531   1.017   3.422 -0.4564 -1.0239 -3.1579
   69MOL   C10720643   0.668   0.963   3.571  0.4817 -0.2136  0.3885
   69MOL   O10820644   0.619   1.077   3.634  0.3448 -0.6888  0.3005
   69MOL   C10920645   0.698   1.169   3.686 -0.4741  0.1063  0.3973
   69MOL   O11020646   0.817   1.150   3.726  0.0163  0.0736 -0.1056
   69MOL   C11120647   0.644   1.309   3.681 -0.3354  0.4706 -0.2674
   69MOL   C11220648   0.657   1.390   3.813  0.0389  0.6418  0.0008
   69MOL   C11320649   0.604   0.835   3.637  0.0298 -0.1652 -0.2668
   69MOL   H11420650   0.776   0.950   3.580  0.5859 -1.3040 -2.0911
   69MOL   H11520651   0.688   1.354   3.591  0.7855  0.5925  0.3357
   69MOL   H11620652   0.540   1.310   3.647 -1.0234  3.1413  1.7635
   69MOL   H11720653   0.752   1.388   3.866  1.3693  0.9548 -2.3274
   69MOL   H11820654   0.624   1.490   3.784 -1.0658  0.3924  0.3552
   69MOL   H11920655   0.583   1.362   3.889 -0.3036 -2.5393 -1.4348
   69MOL   H12020656   0.497   0.855   3.649 -0.2426 -1.8333  0.2383
   69MOL   H12120657   0.614   0.753   3.566 -0.3695 -0.8718  0.4906
   69MOL   C12220658   0.680   0.801   3.771  0.7786 -0.2739  0.0799
   69MOL   O12320659   0.595   0.710   3.841 -0.0816 -0.4500 -0.1490
   69MOL   C12420660   0.544   0.754   3.954  0.6565 -0.3545 -0.6504
   69MOL   O12520661   0.579   0.859   4.014 -0.2861 -0.2342  0.0239
   69MOL   C12620662   0.457   0.655   4.025  0.3552  0.6149 -0.7801
   69MOL   C12720663   0.325   0.724   4.056 -0.4971  0.4209  0.0297
   69MOL   C12820664   0.818   0.742   3.735  0.2319 -0.7167  0.4972
   69MOL   H12920665   0.700   0.893   3.825 -1.6267  0.7747 -0.7608
   69MOL   H13020666   0.431   0.565   3.969  0.8345 -0.7217  1.1060
   69MOL   H13120667   0.506   0.608   4.111 -0.3476  1.2782 -0.0114
   69MOL   H13220668   0.282   0.788   3.979  0.0395  3.6004  2.2355
   69MOL   H13320669   0.252   0.649   4.085  0.2025  0.4246  1.8611
   69MOL   H13420670   0.341   0.788   4.142 -1.0200 -0.0195  0.4513
   69MOL   H13520671   0.799   0.638   3.708 -1.8719 -0.6639  1.7363
   69MOL   H13620672   0.859   0.771   3.638 -0.7117 -0.2885  0.2260
   69MOL   C13720673   0.926   0.744   3.858  0.2633  0.3038  0.0393
   69MOL   O13820674   1.034   0.666   3.814  0.2491 -0.1717 -0.4186
   69MOL   C13920675   1.048   0.542   3.835 -0.0091 -0.0090  0.2836
   69MOL   O14020676   0.978   0.477   3.916 -0.4887  0.6198  0.2784
   69MOL   C14120677   1.156   0.476   3.746  0.3490  0.4876 -0.6519
   69MOL   C14220678   1.095   0.451   3.609  0.5853  0.4146 -0.1890
   69MOL   C14320679   0.974   0.884   3.880  1.3936  0.3462 -0.8215
   69MOL   H14420680   0.886   0.699   3.949  2.7189 -0.2812  0.8726
   69MOL   H14520681   1.254   0.522   3.750  0.5966 -0.1741  2.1171
   69MOL   H14620682   1.167   0.373   3.780  0.3516  0.2316 -1.4290
   69MOL   H14720683   1.031   0.363   3.613  1.8666 -0.4963  0.7392
   69MOL   H14820684   1.047   0.541   3.570  0.8031  2.2430  3.4931
   69MOL   H14920685   1.170   0.423   3.535 -3.4222 -1.7006 -3.6422
   69MOL   H15020686   1.008   0.928   3.786  0.5975 -1.2329 -1.8757
   69MOL   H15120687   0.886   0.946   3.890  1.6679  0.5555  0.3085
   69MOL   C15220688   1.060   0.893   4.010 -0.1405  0.1260  0.0816
   69MOL   O15320689   1.186   0.837   3.987  0.8007 -0.0149  0.4916
   69MOL   C15420690   1.252   0.755   4.074  0.3436 -0.5584  0.0003
   69MOL   O15520691   1.202   0.718   4.177  0.0865 -0.0025 -0.4676
   69MOL   C15620692   1.387   0.716   4.023 -0.0987 -0.2451  0.3788
   69MOL   C15720693   1.422   0.574   4.060  0.6812  0.2824  0.0491
   69MOL   C15820694   1.072   1.040   4.053  0.2505  0.1132 -0.2146
   69MOL   H15920695   1.003   0.839   4.086 -0.4238  0.5612  0.1761
   69MOL   H16020696   1.384   0.729   3.915  0.3537 -1.3534  0.2252
   69MOL   H16120697   1.462   0.789   4.056  0.8605 -1.0892  0.0995
   69MOL   H16220698   1.493   0.529   3.990  0.5722  3.6263 -2.3576
   69MOL   H16320699   1.459   0.565   4.162  1.7219 -0.7963 -0.4061
   69MOL   H16420700   1.338   0.505   4.059  1.3537 -0.5518 -0.1099
   69MOL   H16520701   1.129   1.032   4.145 -0.5684 -1.4440  0.1830
   69MOL   H16620702   1.144   1.100   3.998  0.0384  0.4107 -0.1719
   69MOL   C16720703   0.945   1.121   4.067  0.0848 -0.0537  0.2032
   69MOL   O16820704   0.862   1.058   4.168 -0.0672 -0.3102  0.5942
   69MOL   C16920705   0.729   1.077   4.167  0.2448 -0.1596 -0.4006
   69MOL   O17020706   0.672   1.161   4.100  0.3210 -0.0163 -0.2504
   69MOL   C17120707   0.661   0.987   4.268 -0.0585  0.0578 -0.0389
   69MOL   C17220708   0.674   1.034   4.411 -0.3175  0.9869  0.6488
   69MOL   C17320709   0.967   1.275   4.101 -0.0723  0.2053  0.4580
   69MOL   H17420710   0.889   1.137   3.975 -1.3496  2.9248  1.5604
   69MOL   H17520711   0.556   0.970   4.245 -0.5167  0.9982  1.2729
   69MOL   H17620712   0.696   0.885   4.255  1.1314  0.4808 -0.2512
   69MOL   H17720713   0.773   1.023   4.457 -0.5680 -0.3799  0.8919
   69MOL   H17820714   0.638   1.137   4.412 -1.9706  0.4148  0.5720
   69MOL   H17920715   0.611   0.977   4.479  1.6206  1.0738  2.5945
   69MOL   H18020716   1.022   1.324   4.021  1.3815 -1.0365  0.6740
   69MOL   H18120717   0.868   1.317   4.117  0.6391  3.2634 -2.5632
   69MOL   C18220718   1.050   1.315   4.231  0.1337  0.6829 -0.0698
   69MOL   O18320719   1.039   1.452   4.232  0.1920  0.7255  0.1325
   69MOL   C18420720   1.132   1.534   4.167  0.3815 -0.0513  0.4335
   69MOL   O18520721   1.240   1.503   4.111 -0.3925 -0.6652 -0.3158
   69MOL   C18620722   1.075   1.680   4.154  0.4752 -0.0758 -0.7767
   69MOL   C18720723   1.185   1.792   4.134  0.1327  0.3596 -0.8708
   69MOL   C18820724   0.985   1.276   4.362 -0.3194 -0.0894 -0.1202
   69MOL   H18920725   1.152   1.279   4.239 -0.4655 -1.0904 -0.2120
   69MOL   H19020726   0.987   1.675   4.089  0.5163 -0.3036 -0.8168
   69MOL   H19120727   1.048   1.700   4.258 -0.5909  1.5567 -1.3485
   69MOL   H19220728   1.136   1.888   4.114  0.8722  1.0633  0.6089
   69MOL   H19320729   1.253   1.800   4.218 -1.5597  0.1635  0.5548
   69MOL   H19420730   1.236   1.772   4.040  1.5378 -1.5088  0.2595
   69MOL   H19520731   0.879   1.294   4.346 -0.1320 -0.9567 -2.3839
   69MOL   H19620732   0.989   1.169   4.379  0.0036  0.5240  4.6098
   69MOL   C19720733   1.040   1.342   4.488  0.2599 -0.5828 -0.1336
   69MOL   O19820734   0.971   1.305   4.606 -0.1123  0.1877  0.0345
   69MOL   C19920735   0.898   1.395   4.683 -0.5692  0.5706  0.0838
   69MOL   O20020736   0.904   1.520   4.679 -0.0484 -0.7400 -0.1813
   69MOL   C20120737   0.795   1.331   4.782  0.3170  0.0454  0.9907
   69MOL   C20220738   0.823   1.186   4.818 -0.2976 -0.1937 -0.3060
   69MOL   C20320739   1.191   1.316   4.518  0.5091 -0.0731 -0.3073
   69MOL   H20420740   1.029   1.449   4.477 -0.1568 -0.5236  0.8433
   69MOL   H20520741   0.805   1.389   4.874 -1.1206  1.3294  0.3634
   69MOL   H20620742   0.692   1.344   4.748  0.5649 -2.1807 -0.7760
   69MOL   H20720743   0.799   1.164   4.922 -0.4621  1.1088 -0.0523
   69MOL   H20820744   0.764   1.116   4.759  0.5234 -1.4569  0.3553
   69MOL   H20920745   0.929   1.162   4.813 -0.5853 -1.8539  1.0679
   69MOL   H21020746   1.185   1.310   4.627 -0.9159 -2.1571 -0.4698
   69MOL   H21120747   1.213   1.218   4.475 -0.8031  0.6509 -2.6940
   69MOL   C21220748   1.285   1.435   4.482  0.4417 -0.1070 -0.5602
   69MOL   O21320749   1.276   1.524   4.590  0.3914  0.2990  0.2266
   69MOL   C21420750   1.241   1.656   4.571 -1.1994 -0.1471 -0.1364
   69MOL   O21520751   1.212   1.713   4.470 -0.2844  0.0303 -0.0031
   69MOL   C21620752   1.220   1.733   4.699  0.0156  0.7389  0.0425
   69MOL   C21720753   1.246   1.882   4.673  0.1362  0.2140  0.5796
   69MOL   C21820754   1.426   1.386   4.461 -0.4116  0.5357  0.5300
   69MOL   H21920755   1.251   1.483   4.390  1.1086  0.2495 -0.6241
   69MOL   H22020756   1.121   1.706   4.736 -0.0955  1.2363  0.1103
   69MOL   H22120757   1.294   1.706   4.774  0.9822  0.6200 -0.9370
   69MOL   H22220758   1.161   1.933   4.627 -1.0014 -0.5343  1.7976
   69MOL   H22320759   1.236   1.933   4.769 -0.9636  0.3054  0.4222
   69MOL   H22420760   1.328   1.905   4.606 -0.2783 -1.4945 -0.5563
   69MOL   H22520761   1.463   1.344   4.554  0.9834 -0.3292 -0.3978
   69MOL   H22620762   1.427   1.311   4.382 -1.6413 -0.7309  1.6835
   69MOL   C22720763   1.525   1.501   4.420  0.2638 -0.1742 -0.4044
   69MOL   O22820764   1.639   1.425   4.390 -0.4328 -0.4419  0.0340
   69MOL   C22920765   1.758   1.467   4.417  0.6343 -0.8797 -0.7070
   69MOL   O23020766   1.782   1.568   4.484 -0.3601  0.9696 -0.2713
   69MOL   C23120767   1.870   1.379   4.383  0.5882  0.5446  0.1846
   69MOL   C23220768   1.891   1.260   4.488 -0.3666 -0.0741 -0.1918
   69MOL   C23320769   1.482   1.577   4.292 -0.2075 -0.0662  0.4538
   69MOL   H23420770   1.546   1.565   4.506  0.7607  0.0304 -0.6793
   69MOL   H23520771   1.850   1.345   4.281 -0.2577  2.1413 -0.1889
   69MOL   H23620772   1.956   1.446   4.382  1.5066 -0.5909  0.5858
   69MOL   H23720773   1.792   1.241   4.530 -0.2970  1.2599  0.6179
   69MOL   H23820774   1.925   1.169   4.440 -0.4763 -0.6081  0.7319
   69MOL   H23920775   1.961   1.274   4.570  0.5423  2.7369 -1.3677
   69MOL   H24020776   1.463   1.494   4.224  1.8303  1.2734 -1.8260
   69MOL   H24120777   1.385   1.626   4.298 -0.3988 -0.5010  0.9217
   69MOL   C24220778   1.584   1.662   4.228  0.2808  0.2392  0.2027
   69MOL   O24320779   1.532   1.697   4.098  0.2792  0.3680  0.3527
   69MOL   C24420780   1.596   1.665   3.988  0.8619 -0.4163 -0.0438
   69MOL   O24520781   1.680   1.575   3.978  0.0171 -0.3482  0.1945
   69MOL   C24620782   1.538   1.735   3.861 -0.2283  0.0984  0.2888
   69MOL   C24720783   1.532   1.889   3.873 -0.3863 -0.1186  0.6275
   69MOL   C24820784   1.632   1.787   4.310  0.0161  0.4232 -0.2607
   69MOL   H24920785   1.675   1.607   4.203  2.5851  4.4877 -1.2721
   69MOL   H25020786   1.589   1.689   3.776 -0.3732  0.2262  0.1330
   69MOL   H25120787   1.438   1.693   3.854  0.0275 -0.5481  0.4344
   69MOL   H25220788   1.482   1.917   3.966 -1.6047  2.5658 -0.7863
   69MOL   H25320789   1.631   1.931   3.861 -0.9738  0.8690 -0.8674
   69MOL   H25420790   1.470   1.932   3.794  0.7599  1.7071  0.7121
   69MOL   H25520791   1.544   1.850   4.321 -2.6601 -2.9290 -1.6543
   69MOL   H25620792   1.659   1.748   4.408 -0.9676 -1.0790 -0.5757
   69MOL   C25720793   1.756   1.861   4.256  0.4651 -0.8270 -0.2225
   69MOL   O25820794   1.756   1.989   4.316 -0.6293 -0.4980  0.3051
   69MOL   C25920795   1.727   2.092   4.245  0.6167  0.8128 -0.3146
   69MOL   O26020796   1.667   2.088   4.138  0.0588  0.1514  0.5724
   69MOL   C26120797   1.771   2.223   4.310 -0.0753 -0.6014  0.0399
   69MOL   C26220798   1.731   2.232   4.464 -0.2161  0.2800 -0.9125
   69MOL   C26320799   1.898   1.794   4.259 -0.3568  0.3024  0.2573
   69MOL   H26420800   1.742   1.862   4.148  1.1803  0.6335 -0.3148
   69MOL   H26520801   1.879   2.221   4.297 -0.0099 -0.4762  0.5649
   69MOL   H26620802   1.728   2.312   4.264  0.4753 -1.0461 -1.3455
   69MOL   H26720803   1.624   2.243   4.477 -0.3544 -2.8190  0.8230
   69MOL   H26820804   1.769   2.150   4.524 -0.4103  1.2347  0.5339
   69MOL   H26920805   1.775   2.314   4.521  0.5329 -0.1235 -0.9083
   69MOL   H27020806   1.966   1.836   4.334  0.5574  1.2570 -1.0873
   69MOL   H27120807   1.885   1.690   4.286  0.9455 -0.7325 -2.9425
   69MOL   C27220808   1.973   1.810   4.125 -0.2348  0.3880 -0.3213
   69MOL   O27320809   1.994   1.947   4.094 -0.0670 -0.2339  0.4185
   69MOL   C27420810   1.968   2.001   3.975 -0.2223  0.5350 -0.0771
   69MOL   O27520811   1.918   1.946   3.876  0.5840 -0.1345  0.1610
   69MOL   C27620812   2.005   2.155   3.980 -0.0815  0.5271  0.3513
   69MOL   C27720813   2.151   2.173   3.968 -0.0692 -0.1629  0.2636
   69MOL   C27820814   2.100   1.724   4.121 -0.3877  1.0844 -0.0123
   69MOL   H27920815   1.904   1.782   4.045  1.7511  0.1918 -2.0002
   69MOL   H28020816   1.950   2.192   3.893  2.9229  0.4490 -1.6245
   69MOL   H28120817   1.970   2.205   4.071 -0.7104  0.5168  0.1155
   69MOL   H28220818   2.198   2.142   3.875 -2.8862 -1.3517 -0.8284
   69MOL   H28320819   2.171   2.279   3.980 -3.0364  0.6489 -1.2711
   69MOL   H28420820   2.196   2.126   4.055  2.9745 -0.3231 -1.3241
   69MOL   H28520821   2.180   1.770   4.179 -0.8674  1.7225  0.1537
   69MOL   H28620822   2.098   1.625   4.166  1.4143  0.5808 -0.9955
   69MOL   C28720823   2.145   1.702   3.979 -0.7819 -0.1987  0.7339
   69MOL   O28820824   2.273   1.636   3.980  0.2356  0.4411 -0.0194
   69MOL   C28920825   2.377   1.693   3.921 -1.0630  0.0900  0.5819
   69MOL   O29020826   2.375   1.797   3.861  0.5924 -0.1863  0.0086
   69MOL   C29120827   2.504   1.613   3.937  0.0329 -0.3298  0.2020
   69MOL   C29220828   2.516   1.498   3.834 -0.3176 -0.1812  0.2240
   69MOL   C29320829   2.046   1.608   3.902  0.0925 -0.0379  0.7318
   69MOL   H29420830   2.161   1.794   3.923  0.7555 -0.5800  0.5206
   69MOL   H29520831   2.584   1.687   3.927  0.4081 -0.5248  1.6815
   69MOL   H29620832   2.502   1.589   4.043 -1.3289  0.1972  0.3078
   69MOL   H29720833   2.530   1.537   3.733 -0.9974 -1.2144 -0.2850
   69MOL   H29820834   2.599   1.431   3.858 -0.4370 -0.4615 -0.1473
   69MOL   H29920835   2.427   1.434   3.837 -0.2862 -0.1651  1.7505
   69MOL   H30020836   1.946   1.652   3.907  0.2756  0.4879 -0.1230
   69MOL   H30120837   2.078   1.577   3.802  0.4131  1.5923  0.3196
   69MOL   H30220838   2.042   1.514   3.957 -1.6458 -1.0687 -1.0453
   70MOL     C120839   4.742   4.255   4.352  0.2466 -0.4025  0.4695
   70MOL     O220840   4.700   4.228   4.480  0.5403  0.5586  0.1050
   70MOL     C320841   4.586   4.155   4.504  0.7199 -0.2039 -0.2439
   70MOL     O420842   4.513   4.113   4.413  0.3812  0.3007 -0.2997
   70MOL     C520843   4.562   4.111   4.645 -0.0230 -0.0372 -0.5828
   70MOL     C620844   4.424   4.125   4.689  0.2533  0.1080 -0.2791
   70MOL     C720845   4.767   4.408   4.344 -0.1535 -0.2249 -0.9670
   70MOL     H820846   4.668   4.226   4.278 -1.6615  1.4130  1.5936
   70MOL     H920847   4.587   4.006   4.659 -1.4712 -0.3228 -0.0706
   70MOL    H1020848   4.627   4.159   4.718 -0.9068 -0.6313  0.6069
   70MOL    H1120849   4.370   4.205   4.638 -0.0693 -1.0747 -1.8330
   70MOL    H1220850   4.376   4.038   4.645  1.5364 -1.1771  0.8108
   70MOL    H1320851   4.409   4.122   4.797 -2.1158 -2.2535 -0.6345
   70MOL    H1420852   4.777   4.427   4.237 -2.8772 -0.0392 -1.2134
   70MOL    H1520853   4.673   4.449   4.380 -0.5789 -0.3326 -1.9382
   70MOL    H1620854   4.832   4.196   4.334 -0.8130 -2.1099  0.7172
   70MOL    C1720855   4.875   4.467   4.439  0.2373  0.1321  0.5970
   70MOL    O1820856   4.999   4.428   4.383 -0.0519 -0.1631  0.1982
   70MOL    C1920857   5.088   4.377   4.467 -0.0555 -0.0348 -0.5741
   70MOL    O2020858   5.079   4.371   4.591 -0.3700  0.3033 -0.1271
   70MOL    C2120859   5.221   4.352   4.400  0.9735  0.4659  0.0310
   70MOL    C2220860   5.213   4.245   4.289 -0.1752  0.7371 -0.6716
   70MOL    C2320861   4.869   4.620   4.433 -0.7324 -0.0948  0.1380
   70MOL    H2420862   4.861   4.440   4.543 -0.7595 -2.3416 -0.1401
   70MOL    H2520863   5.254   4.445   4.353  2.1452 -0.3509 -0.7684
   70MOL    H2620864   5.289   4.318   4.478  2.4600  0.5980 -1.1968
   70MOL    H2720865   5.119   4.224   4.238 -0.9237  0.0312  0.9825
   70MOL    H2820866   5.296   4.253   4.218  1.2098  0.8982  0.9175
   70MOL    H2920867   5.247   4.150   4.329 -0.8507  0.7411 -0.0806
   70MOL    H3020868   4.958   4.674   4.466  0.0533 -1.3570  0.1123
   70MOL    H3120869   4.854   4.635   4.326 -1.5571 -0.4265  0.2011
   70MOL    C3220870   4.746   4.678   4.509  0.3407  0.1325  0.6405
   70MOL    O3320871   4.787   4.680   4.646 -0.5047 -0.1040 -0.1109
   70MOL    C3420872   4.710   4.613   4.736 -0.6041 -0.4316 -0.5924
   70MOL    O3520873   4.608   4.544   4.706  0.1639 -0.1020 -0.8883
   70MOL    C3620874   4.779   4.614   4.871  0.1896  0.0931 -0.1190
   70MOL    C3720875   4.933   4.577   4.864 -0.4621  0.2380 -0.1139
   70MOL    C3820876   4.706   4.822   4.471 -0.2409  0.0651 -0.3931
   70MOL    H3920877   4.660   4.616   4.486  0.9030  0.2542 -2.0139
   70MOL    H4020878   4.761   4.712   4.916 -0.2141  1.1581 -2.5230
   70MOL    H4120879   4.738   4.545   4.945 -0.4343  0.4417 -0.1385
   70MOL    H4220880   4.957   4.491   4.801 -1.2042  0.2247 -0.3890
   70MOL    H4320881   4.987   4.665   4.831 -1.7926  1.5751  1.2081
   70MOL    H4420882   4.972   4.558   4.964 -0.1671 -0.8630 -0.4252
   70MOL    H4520883   4.637   4.864   4.544 -0.8271 -1.5734  0.0112
   70MOL    H4620884   4.795   4.885   4.473  0.2604 -0.6717  2.2367
   70MOL    C4720885   4.635   4.823   4.328  1.1843  0.9218 -0.1630
   70MOL    O4820886   4.500   4.769   4.345 -0.1006 -0.6047 -0.2922
   70MOL    C4920887   4.465   4.651   4.290  0.1454 -0.6393 -0.1644
   70MOL    O5020888   4.529   4.587   4.210 -0.1293  0.6124  0.0512
   70MOL    C5120889   4.333   4.593   4.334 -0.1225 -0.1589 -0.0319
   70MOL    C5220890   4.341   4.485   4.433  0.3192  0.5515  0.1137
   70MOL    C5320891   4.612   4.963   4.259 -0.4565  0.0096 -0.9696
   70MOL    H5420892   4.687   4.767   4.250  1.0650 -1.2736  1.2752
   70MOL    H5520893   4.284   4.676   4.384  1.3039  0.3478  0.5389
   70MOL    H5620894   4.272   4.574   4.246  0.4040  1.5533 -0.7873
   70MOL    H5720895   4.395   4.517   4.522  0.0138 -0.9341  0.8609
   70MOL    H5820896   4.242   4.455   4.467  0.5707 -0.7552 -0.2470
   70MOL    H5920897   4.395   4.403   4.386 -1.2850 -0.5893  0.2027
   70MOL    H6020898   4.560   4.951   4.164 -3.3740  0.9173  0.4502
   70MOL    H6120899   4.541   5.007   4.330 -1.5186 -2.0502 -0.7006
   70MOL    C6220900   4.739   5.042   4.249  0.0057 -0.6181 -0.1879
   70MOL    O6320901   4.830   4.984   4.143  0.7987 -0.3530  0.7205
   70MOL    C6420902   4.938   4.908   4.171  0.3133 -0.2848  0.2480
   70MOL    O6520903   4.973   4.868   4.284  0.5623 -0.5462  0.3762
   70MOL    C6620904   5.012   4.875   4.042  0.2504  0.1228 -1.0408
   70MOL    C6720905   5.070   4.733   4.034  0.4730  0.0567 -0.5752
   70MOL    C6820906   4.724   5.189   4.207  0.0056 -0.6881 -1.0927
   70MOL    H6920907   4.793   5.042   4.344 -0.4267  1.3914  0.0855
   70MOL    H7020908   4.935   4.881   3.965 -0.5013 -0.0057 -0.3007
   70MOL    H7120909   5.084   4.957   4.032  0.2599  0.3882  1.0183
   70MOL    H7220910   4.997   4.661   4.070  0.3651  0.1406 -0.6261
   70MOL    H7320911   5.086   4.706   3.930 -1.6576 -0.3417 -0.8181
   70MOL    H7420912   5.163   4.724   4.091  0.6884 -1.5311 -1.1655
   70MOL    H7520913   4.818   5.244   4.206  0.7845 -2.0083 -0.0101
   70MOL    H7620914   4.670   5.199   4.112  0.2481 -1.9443 -1.3608
   70MOL    C7720915   4.631   5.265   4.307  0.4133  0.0763 -0.1268
   70MOL    O7820916   4.706   5.309   4.421  0.4018 -0.0322 -0.9646
   70MOL    C7920917   4.706   5.245   4.540 -0.5371  0.6725  0.3671
   70MOL    O8020918   4.662   5.134   4.554 -0.2403 -0.1546 -0.4636
   70MOL    C8120919   4.776   5.330   4.648 -0.7786 -0.8023  0.6229
   70MOL    C8220920   4.677   5.424   4.716 -0.1653  0.0763 -0.6553
   70MOL    C8320921   4.584   5.405   4.254 -0.3168 -0.4772 -0.1176
   70MOL    H8420922   4.545   5.206   4.337  0.3094  0.6914  0.8147
   70MOL    H8520923   4.821   5.267   4.724 -0.4377 -1.2936  0.0210
   70MOL    H8620924   4.861   5.380   4.602 -0.8080  0.5482  2.0074
   70MOL    H8720925   4.580   5.383   4.742  0.7114 -0.2576  2.2361
   70MOL    H8820926   4.723   5.474   4.802  1.3687 -0.4224 -1.1745
   70MOL    H8920927   4.647   5.507   4.652 -0.4943 -0.2341 -0.9019
   70MOL    H9020928   4.665   5.470   4.221 -1.3741  0.8441 -0.1437
   70MOL    H9120929   4.524   5.380   4.166  0.8503  0.2393 -1.1473
   70MOL    C9220930   4.495   5.482   4.350  0.9163 -0.2016  0.1016
   70MOL    O9320931   4.473   5.608   4.287  0.3321 -0.7943  0.4236
   70MOL    C9420932   4.547   5.712   4.333  0.2817  0.1083  0.7989
   70MOL    O9520933   4.636   5.701   4.416 -0.0823  0.4932  0.6407
   70MOL    C9620934   4.517   5.845   4.262 -0.0583  0.4997 -0.6358
   70MOL    C9720935   4.652   5.930   4.262 -0.2210  0.2656  0.3072
   70MOL    C9820936   4.360   5.413   4.376  0.3985 -0.1043  0.5428
   70MOL    H9920937   4.544   5.479   4.447 -0.3911 -1.3718  0.7498
   70MOL   H10020938   4.485   5.836   4.159 -0.6812  1.5920 -0.5462
   70MOL   H10120939   4.436   5.894   4.316 -0.1563 -1.4389  1.0585
   70MOL   H10220940   4.686   5.968   4.358  0.9664  0.9322 -0.3688
   70MOL   H10320941   4.731   5.883   4.204 -2.5081 -2.1852 -0.9262
   70MOL   H10420942   4.609   6.016   4.210 -0.4203 -1.0218 -1.7075
   70MOL   H10520943   4.292   5.403   4.291  1.5721 -0.3259 -0.3817
   70MOL   H10620944   4.394   5.315   4.407  0.1464 -0.3368  0.0993
   70MOL   C10720945   4.290   5.460   4.505 -0.7581 -0.9008  0.0744
   70MOL   O10820946   4.228   5.580   4.475  0.1813 -0.3748 -0.5107
   70MOL   C10920947   4.260   5.703   4.533  0.0914  0.0791 -0.3772
   70MOL   O11020948   4.339   5.722   4.619 -0.6440  0.3290 -0.5112
   70MOL   C11120949   4.171   5.816   4.484  0.5830  0.7768  0.0130
   70MOL   C11220950   4.147   5.818   4.330  0.7175 -0.3089 -0.2096
   70MOL   C11320951   4.187   5.373   4.568  0.1927  0.3950 -0.3545
   70MOL   H11420952   4.374   5.469   4.574 -0.5800  1.5599 -0.4412
   70MOL   H11520953   4.079   5.805   4.542 -1.0180  1.7077 -2.2313
   70MOL   H11620954   4.214   5.910   4.518  1.7707  0.2356  0.0280
   70MOL   H11720955   4.063   5.767   4.282 -0.6002 -0.2618  1.9738
   70MOL   H11820956   4.151   5.915   4.282  1.8812 -1.2756 -2.1264
   70MOL   H11920957   4.226   5.772   4.271 -1.2543  0.5958 -3.6433
   70MOL   H12020958   4.122   5.431   4.634  0.8789  0.3419  0.3660
   70MOL   H12120959   4.109   5.348   4.496  0.7266  3.4930 -2.0869
   70MOL   C12220960   4.228   5.240   4.642  0.6010 -0.0058  0.0763
   70MOL   O12320961   4.293   5.278   4.762 -0.6790  0.6389 -0.2416
   70MOL   C12420962   4.369   5.191   4.836 -0.1474 -0.0384  0.1412
   70MOL   O12520963   4.400   5.079   4.803  0.4221  0.0278 -0.5914
   70MOL   C12620964   4.412   5.254   4.974 -0.0489  0.0883 -0.1414
   70MOL   C12720965   4.518   5.184   5.052  0.0884 -0.6757  0.0774
   70MOL   C12820966   4.099   5.156   4.675 -0.2626 -0.1053 -0.2823
   70MOL   H12920967   4.294   5.173   4.586  0.2523 -0.3674  0.0909
   70MOL   H13020968   4.429   5.360   4.956  0.2432  0.4504  2.0818
   70MOL   H13120969   4.317   5.251   5.028 -0.8991 -1.1962 -1.6448
   70MOL   H13220970   4.509   5.210   5.157  0.4425  1.9601 -0.5222
   70MOL   H13320971   4.512   5.075   5.047 -1.2102 -0.5441 -1.3279
   70MOL   H13420972   4.611   5.213   5.003 -0.2996  1.4289  0.5391
   70MOL   H13520973   4.138   5.077   4.740  1.7473  0.2349 -1.0450
   70MOL   H13620974   4.025   5.202   4.741 -1.0703 -1.5818 -0.1381
   70MOL   C13720975   4.023   5.095   4.557 -0.5045 -0.2345 -0.2136
   70MOL   O13820976   4.107   5.020   4.475  0.1001  0.4707 -0.0284
   70MOL   C13920977   4.150   5.062   4.356  0.2510 -0.2048  0.2030
   70MOL   O14020978   4.141   5.178   4.317 -0.0001 -0.3112  0.3596
   70MOL   C14120979   4.214   4.946   4.279  0.2030  0.6678 -0.4175
   70MOL   C14220980   4.244   4.980   4.138 -0.2919  0.2520  0.4864
   70MOL   C14320981   3.897   5.019   4.593  0.3710  0.1269 -0.1776
   70MOL   H14420982   3.986   5.177   4.495 -0.6932 -0.6552 -0.6554
   70MOL   H14520983   4.294   4.905   4.339 -0.6122  1.6935  1.4201
   70MOL   H14620984   4.143   4.863   4.278  1.2669 -0.2616 -2.6106
   70MOL   H14720985   4.286   4.896   4.083  3.6483  1.6612  1.1609
   70MOL   H14820986   4.150   4.997   4.086 -0.0330 -2.8029 -1.0590
   70MOL   H14920987   4.308   5.067   4.125  1.0084 -0.8409 -0.5545
   70MOL   H15020988   3.837   5.099   4.636 -0.2065  0.1203 -0.9595
   70MOL   H15120989   3.844   4.976   4.508  3.1730  0.4855 -2.1999
   70MOL   C15220990   3.922   4.902   4.694  0.2713  0.1491 -0.3639
   70MOL   O15320991   3.808   4.877   4.773 -0.0012  0.5873  0.2769
   70MOL   C15420992   3.800   4.946   4.886  0.5242 -0.8472  0.1385
   70MOL   O15520993   3.863   5.053   4.910  0.0070  0.1333  0.4711
   70MOL   C15620994   3.699   4.892   4.990  0.3789 -0.5530  0.3601
   70MOL   C15720995   3.569   4.868   4.925 -0.5045  0.4336 -0.7220
   70MOL   C15820996   3.951   4.769   4.610  0.5815 -0.0663  0.6425
   70MOL   H15920997   4.004   4.920   4.764  1.2438 -0.1367 -1.4184
   70MOL   H16020998   3.733   4.792   5.017  1.4845 -0.4989 -0.7941
   70MOL   H16120999   3.695   4.960   5.075 -1.9969  1.4692 -1.3040
   70MOL   H16221000   3.579   4.796   4.844  1.9679  0.2645 -0.3094
   70MOL   H16321001   3.482   4.854   4.989  0.4162  2.3910  1.0346
   70MOL   H16421002   3.548   4.964   4.876  1.2394  2.3739  2.1389
   70MOL   H16521003   3.857   4.737   4.565  0.9057  0.2949 -0.3033
   70MOL   H16621004   4.014   4.805   4.528 -0.5161 -0.1044 -0.2218
   70MOL   C16721005   4.016   4.652   4.689  0.5936  0.3324 -0.6931
   70MOL   O16821006   3.993   4.536   4.604  0.1123 -0.1689  0.1604
   70MOL   C16921007   3.900   4.443   4.624 -0.3187 -0.0023 -0.0833
   70MOL   O17021008   3.797   4.464   4.692 -0.5493 -0.0844 -0.0069
   70MOL   C17121009   3.933   4.306   4.557  0.0268  0.0719 -0.3985
   70MOL   C17221010   4.043   4.227   4.636 -0.0937 -0.8022 -0.4698
   70MOL   C17321011   4.171   4.674   4.704 -0.0674  0.1532  1.2543
   70MOL   H17421012   3.966   4.635   4.785  1.4159  1.3658 -0.0781
   70MOL   H17521013   3.837   4.255   4.566  0.0542  0.2006  0.7480
   70MOL   H17621014   3.962   4.326   4.454  1.2306  0.0617 -0.0715
   70MOL   H17721015   4.142   4.270   4.620  0.2310 -1.7691 -1.1241
   70MOL   H17821016   4.035   4.228   4.744  0.2223  0.4877 -0.4508
   70MOL   H17921017   4.041   4.123   4.603  0.8059 -0.4134 -1.8187
   70MOL   H18021018   4.223   4.628   4.621  3.0716  1.3304  2.5001
   70MOL   H18121019   4.190   4.781   4.698  0.6560  0.0244  1.2656
   70MOL   C18221020   4.226   4.636   4.840  0.3467 -0.4944 -0.5338
   70MOL   O18321021   4.163   4.733   4.930 -0.0522  0.3595  0.9282
   70MOL   C18421022   4.236   4.810   5.008 -1.1121  0.7107  0.0731
   70MOL   O18521023   4.348   4.780   5.042 -0.1060 -0.0415 -0.0788
   70MOL   C18621024   4.159   4.938   5.053  0.0495 -0.4934 -0.2855
   70MOL   C18721025   4.061   4.904   5.162 -0.2818  0.2125 -0.4818
   70MOL   C18821026   4.196   4.487   4.878 -0.3135 -0.3569 -0.5203
   70MOL   H18921027   4.334   4.648   4.834  0.3930  0.8905  2.4982
   70MOL   H19021028   4.235   5.010   5.085 -3.7039  3.0000  1.2085
   70MOL   H19121029   4.110   4.959   4.958 -3.2893  0.7771  1.6668
   70MOL   H19221030   4.118   4.871   5.249 -1.2197 -0.4208 -0.0945
   70MOL   H19321031   4.005   4.993   5.190  2.0188  0.5642  3.3670
   70MOL   H19421032   3.983   4.830   5.142  0.9593 -1.1781 -0.2918
   70MOL   H19521033   4.091   4.460   4.889 -0.1248 -0.3363  1.4939
   70MOL   H19621034   4.242   4.436   4.794  0.3480  1.1823 -1.1061
   70MOL   C19721035   4.271   4.444   5.005 -0.4126  0.2875  0.3559
   70MOL   O19821036   4.222   4.312   5.024  0.0320 -0.1273 -0.2772
   70MOL   C19921037   4.150   4.268   5.131  0.0837 -0.0442  0.0123
   70MOL   O20021038   4.110   4.346   5.215 -0.0001  0.3625 -0.0059
   70MOL   C20121039   4.099   4.130   5.119  0.5231 -0.2685  0.5862
   70MOL   C20221040   3.963   4.127   5.037  0.4448 -0.0576  0.1258
   70MOL   C20321041   4.422   4.439   4.993 -0.8724 -0.0449  0.2975
   70MOL   H20421042   4.245   4.512   5.086 -0.7523 -1.4061  1.6742
   70MOL   H20521043   4.185   4.081   5.073  1.1372 -0.7774  2.2496
   70MOL   H20621044   4.084   4.085   5.217  2.2604 -1.5296  0.3016
   70MOL   H20721045   3.891   4.157   5.113 -0.3739 -0.2895 -0.5504
   70MOL   H20821046   3.954   4.198   4.955 -2.8929  0.3579  0.7854
   70MOL   H20921047   3.935   4.026   5.011 -0.0180  0.3740 -1.0781
   70MOL   H21021048   4.453   4.359   4.925  1.8290  2.0083 -1.0102
   70MOL   H21121049   4.467   4.531   4.956 -0.9422 -0.1402 -0.0207
   70MOL   C21221050   4.493   4.396   5.130 -0.5336  0.9264  0.3660
   70MOL   O21321051   4.624   4.373   5.089  0.3199  0.5418  0.0325
   70MOL   C21421052   4.703   4.272   5.155  0.6501  0.1461  0.8381
   70MOL   O21521053   4.662   4.190   5.242 -0.7103 -0.8157 -0.7054
   70MOL   C21621054   4.843   4.255   5.096 -0.0615 -0.1914  0.2546
   70MOL   C21721055   4.852   4.223   4.948  0.4349  0.4399 -0.3633
   70MOL   C21821056   4.481   4.511   5.229  0.1723 -0.3752 -0.0988
   70MOL   H21921057   4.447   4.303   5.162 -0.7284  0.3342 -1.5797
   70MOL   H22021058   4.886   4.353   5.120  1.9961 -1.2174  0.8674
   70MOL   H22121059   4.887   4.188   5.169 -0.7877 -1.1477 -0.1833
   70MOL   H22221060   4.816   4.121   4.932 -3.5896  2.1171 -2.7480
   70MOL   H22321061   4.788   4.289   4.889 -2.3351  0.0838  2.1333
   70MOL   H22421062   4.953   4.231   4.907  0.4568 -1.9019 -0.8292
   70MOL   H22521063   4.560   4.583   5.207 -1.4741  1.7937  0.9622
   70MOL   H22621064   4.385   4.562   5.231 -0.4809 -1.4865 -1.9395
   70MOL   C22721065   4.505   4.461   5.381  1.1267  0.7816  0.3944
   70MOL   O22821066   4.542   4.570   5.466 -0.0232  0.7146  0.6529
   70MOL   C22921067   4.659   4.559   5.532 -0.8798 -0.9162  0.1125
   70MOL   O23021068   4.739   4.467   5.524 -0.1903 -0.2043  0.3166
   70MOL   C23121069   4.690   4.684   5.618  0.3812 -0.0188 -0.3606
   70MOL   C23221070   4.830   4.690   5.662  0.1403  0.0277  0.0094
   70MOL   C23321071   4.374   4.405   5.435  0.7089 -0.5871  0.1634
   70MOL   H23421072   4.588   4.391   5.372  0.4921  0.2582 -1.6675
   70MOL   H23521073   4.682   4.771   5.552 -1.9656  0.4912  0.5197
   70MOL   H23621074   4.620   4.691   5.702 -0.5102 -0.0879 -1.0880
   70MOL   H23721075   4.857   4.789   5.701 -2.5010  1.4173 -1.5519
   70MOL   H23821076   4.854   4.601   5.720  1.1514 -0.6191 -1.3801
   70MOL   H23921077   4.899   4.679   5.579  0.3337  1.6988 -0.0735
   70MOL   H24021078   4.304   4.487   5.447  0.8104 -0.5686  0.6584
   70MOL   H24121079   4.335   4.341   5.356 -0.7433 -1.4064  1.4975
   70MOL   C24221080   4.392   4.308   5.559 -0.1466  0.7878 -0.0344
   70MOL   O24321081   4.273   4.323   5.635  0.6510  0.0045  0.0159
   70MOL   C24421082   4.266   4.418   5.723 -0.4082 -0.4741 -0.7101
   70MOL   O24521083   4.364   4.495   5.752  0.2654 -0.2806 -0.1754
   70MOL   C24621084   4.139   4.416   5.800  0.6209  0.0431  0.2672
   70MOL   C24721085   4.133   4.520   5.914 -0.0381  0.4031 -0.4757
   70MOL   C24821086   4.421   4.166   5.525 -0.0840  0.0978  0.4507
   70MOL   H24921087   4.479   4.346   5.612  1.0238  1.0056 -2.0580
   70MOL   H25021088   4.058   4.455   5.737  0.4760  1.3475  1.2221
   70MOL   H25121089   4.112   4.313   5.820  1.3103  0.0964  1.5467
   70MOL   H25221090   4.039   4.527   5.969  0.3291 -1.3540  0.4150
   70MOL   H25321091   4.220   4.509   5.979 -2.0433 -3.1981  1.8025
   70MOL   H25421092   4.147   4.622   5.877 -1.3287  0.7006 -0.1481
   70MOL   H25521093   4.334   4.103   5.505  0.8212 -1.0369 -0.0031
   70MOL   H25621094   4.494   4.175   5.444 -1.0341 -1.9257 -0.6825
   70MOL   C25721095   4.483   4.085   5.645 -0.1594 -0.4336  0.3250
   70MOL   O25821096   4.379   4.070   5.741 -0.3412  0.2205  0.3774
   70MOL   C25921097   4.409   4.078   5.869 -0.2598 -0.2166 -0.3773
   70MOL   O26021098   4.519   4.074   5.920  0.7385  0.2457  0.2332
   70MOL   C26121099   4.280   4.091   5.950  0.6406 -0.2180 -0.0613
   70MOL   C26221100   4.277   4.198   6.060 -0.7299  0.5480  0.0538
   70MOL   C26321101   4.529   3.946   5.607  0.1951  0.1737  0.7073
   70MOL   H26421102   4.567   4.146   5.679  0.2584 -0.7543 -0.1273
   70MOL   H26521103   4.197   4.106   5.881  0.0676  1.5769  0.9726
   70MOL   H26621104   4.270   3.990   5.989 -0.3743 -1.0766 -2.4561
   70MOL   H26721105   4.172   4.214   6.086 -0.7801  1.7442 -0.8065
   70MOL   H26821106   4.327   4.161   6.149  1.4830  0.1296 -1.3333
   70MOL   H26921107   4.311   4.295   6.025 -2.3548  1.1096  0.0087
   70MOL   H27021108   4.536   3.884   5.697 -0.4769 -0.3456  0.4009
   70MOL   H27121109   4.450   3.904   5.545 -0.1378 -0.0179  1.2512
   70MOL   C27221110   4.663   3.947   5.534 -0.1228 -0.0294  0.0607
   70MOL   O27321111   4.760   3.995   5.620 -0.2267 -0.0475 -0.2720
   70MOL   C27421112   4.865   4.062   5.567  0.5123 -0.2028  0.1606
   70MOL   O27521113   4.892   4.084   5.445  0.4518 -0.3855 -0.0619
   70MOL   C27621114   4.947   4.116   5.680  0.6112  0.1733 -0.1371
   70MOL   C27721115   4.868   4.147   5.815 -0.0986 -0.2005  0.6059
   70MOL   C27821116   4.698   3.800   5.491 -0.4983 -0.6479 -0.7221
   70MOL   H27921117   4.663   4.000   5.439  1.7260  0.2298  0.1752
   70MOL   H28021118   5.038   4.057   5.694  0.3857  0.3403  2.3609
   70MOL   H28121119   4.981   4.217   5.657 -0.5445  0.3127 -1.2342
   70MOL   H28221120   4.774   4.200   5.804 -1.4627 -2.5947  0.4530
   70MOL   H28321121   4.853   4.056   5.874  0.6775 -0.4998  0.3632
   70MOL   H28421122   4.935   4.208   5.875  0.3956 -0.2109  0.0705
   70MOL   H28521123   4.720   3.731   5.572  1.0861  0.0031 -0.5865
   70MOL   H28621124   4.599   3.775   5.453 -0.5882  0.4409 -1.2205
   70MOL   C28721125   4.812   3.782   5.386  0.5348 -0.0285  0.0265
   70MOL   O28821126   4.821   3.638   5.357  0.4387 -0.1969  0.5512
   70MOL   C28921127   4.914   3.559   5.411 -0.3979 -0.1932  0.2782
   70MOL   O29021128   5.012   3.604   5.469 -0.0929 -0.3083  0.7366
   70MOL   C29121129   4.902   3.409   5.375  0.1603  0.3584 -0.4071
   70MOL   C29221130   4.848   3.381   5.235 -0.3567  0.2466  0.4508
   70MOL   C29321131   4.780   3.853   5.250 -0.3527  0.2938 -0.0575
   70MOL   H29421132   4.907   3.812   5.431 -0.6542  0.8285  2.0508
   70MOL   H29521133   5.002   3.367   5.385  0.2274  0.7504  0.6205
   70MOL   H29621134   4.833   3.363   5.445  1.2990 -2.0289 -0.8186
   70MOL   H29721135   4.747   3.421   5.230 -0.0122  1.0113 -0.9739
   70MOL   H29821136   4.915   3.428   5.163 -1.3945 -0.9334 -1.3203
   70MOL   H29921137   4.846   3.275   5.212  1.0506  0.2601  0.2259
   70MOL   H30021138   4.679   3.832   5.214  0.2286 -0.2483 -1.4215
   70MOL   H30121139   4.786   3.961   5.259  1.2144  0.0417  2.3634
   70MOL   H30221140   4.849   3.823   5.171  2.1813  2.4403  1.2861
   71MOL     C121141   0.722   4.463   4.798 -0.7538  0.3914  0.6676
   71MOL     O221142   0.778   4.591   4.809 -0.1096 -0.0732  0.1666
   71MOL     C321143   0.851   4.637   4.704  0.8135  0.5167  0.1036
   71MOL     O421144   0.866   4.574   4.603 -0.2924  0.1115  0.4202
   71MOL     C521145   0.901   4.777   4.720  0.4618  0.7730  0.2702
   71MOL     C621146   1.042   4.801   4.676 -0.0367  0.1193  0.4836
   71MOL     C721147   0.585   4.461   4.863 -0.7490 -0.1538 -0.3747
   71MOL     H821148   0.786   4.397   4.857 -3.5453  0.2311  3.7080
   71MOL     H921149   0.845   4.850   4.660 -0.9366  0.1353  0.7750
   71MOL    H1021150   0.891   4.803   4.825  3.2388 -0.1600  0.8111
   71MOL    H1121151   1.126   4.750   4.722  0.4247  0.7255  0.3314
   71MOL    H1221152   1.064   4.768   4.574  0.3190 -0.4232  0.7336
   71MOL    H1321153   1.068   4.907   4.682 -2.8841  0.8927  0.0915
   71MOL    H1421154   0.533   4.366   4.863  0.2057 -0.6956  0.5789
   71MOL    H1521155   0.599   4.464   4.971 -2.1465  0.7313 -0.2046
   71MOL    H1621156   0.710   4.430   4.695 -0.2084 -2.3358  1.4314
   71MOL    C1721157   0.486   4.573   4.804 -0.3553  0.1018 -0.5095
   71MOL    O1821158   0.462   4.546   4.669 -0.1543  0.1348 -0.8956
   71MOL    C1921159   0.493   4.628   4.577  0.4956  0.2247  0.6700
   71MOL    O2021160   0.545   4.735   4.590  0.0650  0.3122 -0.1172
   71MOL    C2121161   0.440   4.587   4.437  0.5727  0.2754 -0.6895
   71MOL    C2221162   0.491   4.450   4.395 -0.0445 -0.8214  0.3508
   71MOL    C2321163   0.352   4.564   4.878  0.0498  0.1788  0.2240
   71MOL    H2421164   0.521   4.674   4.825 -0.1985  0.1657 -1.0782
   71MOL    H2521165   0.332   4.602   4.441  0.4552 -1.1406  3.3396
   71MOL    H2621166   0.480   4.643   4.353  1.6978 -2.3844 -1.9839
   71MOL    H2721167   0.462   4.363   4.455 -1.6263 -0.2125  0.5076
   71MOL    H2821168   0.460   4.420   4.295 -1.5184 -1.0022  0.8375
   71MOL    H2921169   0.599   4.448   4.403 -0.0983  0.4497  1.6602
   71MOL    H3021170   0.316   4.462   4.892  1.8067 -0.3991  0.6405
   71MOL    H3121171   0.380   4.600   4.977  0.2751  1.2123 -0.2159
   71MOL    C3221172   0.238   4.662   4.834 -1.1618 -0.0774  0.6432
   71MOL    O3321173   0.123   4.637   4.920 -0.4608  0.3617  0.1488
   71MOL    C3421174   0.020   4.571   4.873  0.0272 -0.3628 -0.6596
   71MOL    O3521175   0.017   4.504   4.767 -0.7315  0.7755 -1.1539
   71MOL    C3621176   7.844   4.575   4.966 -0.5949  0.7216  0.0738
   71MOL    C3721177   7.818   4.711   5.032 -0.0785 -0.2740 -0.2408
   71MOL    C3821178   0.286   4.806   4.852 -0.2783 -0.8044  0.2676
   71MOL    H3921179   0.204   4.639   4.732  1.4046  2.9279 -0.9466
   71MOL    H4021180   7.754   4.542   4.914  0.2799 -2.2642  0.3464
   71MOL    H4121181   7.862   4.493   5.036 -0.2357 -0.1434 -1.0250
   71MOL    H4221182   7.754   4.713   5.120  0.2272 -0.0044 -0.0225
   71MOL    H4321183   7.908   4.753   5.078 -0.9126  0.3811  0.8192
   71MOL    H4421184   7.795   4.790   4.961  0.1728 -0.3091 -0.3621
   71MOL    H4521185   0.318   4.826   4.955 -2.0192 -2.9261  1.2671
   71MOL    H4621186   0.383   4.819   4.803 -1.6398  0.8226 -2.0828
   71MOL    C4721187   0.180   4.904   4.792  0.1661 -0.0320 -0.6033
   71MOL    O4821188   0.200   5.027   4.865  0.2173 -0.4357 -0.1801
   71MOL    C4921189   0.099   5.115   4.882 -0.1248  0.2045  0.7440
   71MOL    O5021190   7.925   5.092   4.858 -0.4970  0.0663 -0.6553
   71MOL    C5121191   0.148   5.247   4.940 -0.4517 -0.2746  0.1996
   71MOL    C5221192   0.038   5.355   4.967 -0.1232 -0.0961  0.1173
   71MOL    C5321193   0.214   4.924   4.642 -0.6524  0.1356 -0.2930
   71MOL    H5421194   0.080   4.865   4.808  0.3363 -0.3603 -0.3217
   71MOL    H5521195   0.207   5.220   5.028 -1.7679 -0.7842  0.9335
   71MOL    H5621196   0.221   5.281   4.867  0.6829  0.0916  1.4733
   71MOL    H5721197   7.892   5.360   4.908 -0.2328  3.1163  0.4940
   71MOL    H5821198   0.003   5.338   5.068 -0.6757  0.9712  0.1062
   71MOL    H5921199   0.090   5.450   4.959  0.9408 -0.8059 -1.8493
   71MOL    H6021200   0.320   4.942   4.628 -0.1956 -1.5685  0.7030
   71MOL    H6121201   0.194   4.827   4.596  1.2790 -0.6560  0.4953
   71MOL    C6221202   0.126   5.023   4.561  0.8988  0.1455  0.0850
   71MOL    O6321203   0.180   5.034   4.428 -0.6993  0.1900  0.7292
   71MOL    C6421204   0.280   5.118   4.399 -0.1074 -0.0243 -0.1024
   71MOL    O6521205   0.307   5.220   4.458  0.1242 -0.1632  0.0711
   71MOL    C6621206   0.339   5.094   4.260  0.1224  0.0292 -0.0498
   71MOL    C6721207   0.255   5.176   4.166  0.3680 -0.3915  0.6775
   71MOL    C6821208   7.921   4.988   4.545 -0.8996  0.0796  0.1807
   71MOL    H6921209   0.129   5.122   4.606 -1.5500 -0.5105  1.8319
   71MOL    H7021210   0.439   5.135   4.250 -0.0904 -0.0435 -2.9177
   71MOL    H7121211   0.333   4.987   4.242  0.3860 -0.2243  1.3632
   71MOL    H7221212   0.153   5.140   4.177 -0.2108  0.5883 -1.2504
   71MOL    H7321213   0.269   5.281   4.191 -0.4586  0.1053 -0.9488
   71MOL    H7421214   0.280   5.164   4.061 -3.2807 -0.5507 -0.2368
   71MOL    H7521215   7.903   4.915   4.466 -2.1646 -0.1780  0.6936
   71MOL    H7621216   7.900   4.936   4.638 -0.9491  1.5033  0.9830
   71MOL    C7721217   7.818   5.105   4.540  0.0314  0.3591  0.2941
   71MOL    O7821218   7.845   5.178   4.423 -0.1888 -0.5320  0.6122
   71MOL    C7921219   7.913   5.290   4.424  1.2529 -0.8080 -0.3654
   71MOL    O8021220   0.011   5.346   4.526 -0.6890  0.1880 -0.3836
   71MOL    C8121221   7.895   5.367   4.288  0.9130  0.0914  0.3598
   71MOL    C8221222   7.918   5.514   4.285 -0.3840  0.4530 -0.4133
   71MOL    C8321223   7.671   5.038   4.513 -0.4893 -0.9616  0.3439
   71MOL    H8421224   7.806   5.167   4.629  0.5278 -2.0437  2.0676
   71MOL    H8521225   0.010   5.318   4.211  3.5364  1.2814  1.5813
   71MOL    H8621226   7.797   5.362   4.241  0.1815  0.1992  1.8318
   71MOL    H8721227   7.919   5.558   4.185  1.0569 -0.0658 -0.6235
   71MOL    H8821228   7.846   5.562   4.352  0.3963 -0.3041  0.9553
   71MOL    H8921229   0.065   5.543   4.335  1.5257 -2.7133 -1.9578
   71MOL    H9021230   7.667   4.986   4.418  1.8440  1.8470 -1.3857
   71MOL    H9121231   7.657   4.950   4.577 -0.5966 -0.4943  0.9689
   71MOL    C9221232   7.542   5.124   4.540 -0.2908 -0.4342  0.0012
   71MOL    O9321233   7.542   5.170   4.675 -0.6352 -0.3418 -0.6880
   71MOL    C9421234   7.441   5.143   4.754  0.5479 -0.8914 -0.3601
   71MOL    O9521235   7.343   5.076   4.721 -0.4097  0.3880 -0.3018
   71MOL    C9621236   7.464   5.187   4.899 -0.2958 -0.6136  0.5313
   71MOL    C9721237   7.583   5.108   4.955  0.9154  0.1930  0.0269
   71MOL    C9821238   7.531   5.250   4.453  0.1262  0.4847  0.1832
   71MOL    H9921239   7.465   5.051   4.518 -2.4616  0.9443  2.8616
   71MOL   H10021240   7.488   5.291   4.918  0.0820 -0.8411  1.3159
   71MOL   H10121241   7.379   5.159   4.960  0.0939 -0.5696  1.0944
   71MOL   H10221242   7.596   5.116   5.063  2.7274  0.3513 -0.1754
   71MOL   H10321243   7.578   5.000   4.941  2.1039  0.2931 -1.2170
   71MOL   H10421244   7.677   5.138   4.908  0.6883  0.8664  0.0031
   71MOL   H10521245   7.625   5.304   4.443  0.9002 -1.0390 -1.1052
   71MOL   H10621246   7.519   5.208   4.353 -0.7073 -0.7487  0.7863
   71MOL   C10721247   7.413   5.346   4.474  0.0376  0.0660 -0.4025
   71MOL   O10821248   7.463   5.433   4.573  0.1877  0.0190 -0.0829
   71MOL   C10921249   7.386   5.477   4.674  0.2850 -0.3693  0.0956
   71MOL   O11021250   7.274   5.446   4.701  0.6407  1.3416  0.1964
   71MOL   C11121251   7.458   5.584   4.752 -0.5630  0.3070 -0.2187
   71MOL   C11221252   7.501   5.694   4.659 -0.2284  0.1113  0.3161
   71MOL   C11321253   7.362   5.425   4.348 -0.3299  0.8608 -0.5791
   71MOL   H11421254   7.333   5.287   4.519  1.1000 -1.1983 -0.1168
   71MOL   H11521255   7.385   5.619   4.824  0.1352  1.0144  0.1529
   71MOL   H11621256   7.540   5.548   4.813 -1.0100  0.5207  0.5110
   71MOL   H11721257   7.516   5.780   4.724 -0.6441 -0.7104  1.5300
   71MOL   H11821258   7.595   5.678   4.606  1.0042  2.0290  1.8687
   71MOL   H11921259   7.420   5.717   4.589  0.6342  1.5911 -0.2082
   71MOL   H12021260   7.325   5.524   4.373 -2.3758  0.4904 -2.0797
   71MOL   H12121261   7.446   5.452   4.285 -1.0386  0.4592 -1.6969
   71MOL   C12221262   7.242   5.362   4.272  0.6282  0.2686  0.3170
   71MOL   O12321263   7.126   5.357   4.352 -0.3466 -0.3652 -0.1024
   71MOL   C12421264   7.073   5.242   4.389 -0.1229 -0.5292  0.1204
   71MOL   O12521265   7.102   5.136   4.336  0.1117 -0.2049  0.4788
   71MOL   C12621266   6.970   5.256   4.507 -0.0073 -0.1507  0.0974
   71MOL   C12721267   6.934   5.394   4.568  0.3660 -0.8165  0.0361
   71MOL   C12821268   7.198   5.448   4.155  0.1728 -0.2085  0.0115
   71MOL   H12921269   7.273   5.260   4.254  0.8285  0.3697  0.0892
   71MOL   H13021270   6.877   5.208   4.477 -0.0405  1.3679 -2.4662
   71MOL   H13121271   7.019   5.197   4.583  1.9889 -0.0774 -1.0985
   71MOL   H13221272   6.837   5.377   4.613  0.8647  0.7175  1.7334
   71MOL   H13321273   7.016   5.434   4.628  1.7123  1.8393 -3.3855
   71MOL   H13421274   6.914   5.467   4.490 -0.8429  0.7881  1.7963
   71MOL   H13521275   7.101   5.415   4.116  2.3471 -1.1870 -4.9264
   71MOL   H13621276   7.187   5.556   4.166 -0.0659  0.0671 -2.4800
   71MOL   C13721277   7.309   5.435   4.047 -0.1019 -1.0766  0.0949
   71MOL   O13821278   7.304   5.302   4.000 -0.3225 -0.2947 -0.4206
   71MOL   C13921279   7.399   5.219   4.026 -0.7296  0.2151  0.5021
   71MOL   O14021280   7.482   5.229   4.119 -0.3329 -0.3773 -0.5940
   71MOL   C14121281   7.405   5.104   3.927 -0.3414  0.0217  0.4901
   71MOL   C14221282   7.507   5.123   3.811 -0.2624 -0.9892  0.3165
   71MOL   C14321283   7.288   5.519   3.915  0.6278  0.1662  0.6780
   71MOL   H14421284   7.404   5.453   4.098 -1.2722  0.6062  1.7707
   71MOL   H14521285   7.448   5.018   3.980  1.0395  0.2884 -0.1929
   71MOL   H14621286   7.301   5.079   3.907 -0.2021 -2.6311  2.6747
   71MOL   H14721287   7.478   5.192   3.731 -1.1141 -1.2968  0.3544
   71MOL   H14821288   7.592   5.172   3.857 -1.0872 -0.3345  1.1701
   71MOL   H14921289   7.535   5.021   3.782  0.5731 -0.7310  0.2128
   71MOL   H15021290   7.352   5.468   3.843  0.0544  1.0605 -0.4785
   71MOL   H15121291   7.183   5.511   3.886  0.9161 -0.8943 -0.1040
   71MOL   C15221292   7.342   5.659   3.934 -0.5765 -0.3957 -0.5036
   71MOL   O15321293   7.473   5.655   3.961  0.1134  0.3465 -0.0614
   71MOL   C15421294   7.517   5.701   4.074 -0.4926 -0.1131 -0.1128
   71MOL   O15521295   7.449   5.732   4.174 -0.6484  0.2387 -0.7784
   71MOL   C15621296   7.673   5.721   4.087 -0.1695 -0.0016  0.0769
   71MOL   C15721297   7.712   5.833   3.984 -0.7302 -0.0637  0.2917
   71MOL   C15821298   7.318   5.748   3.808  0.0552 -0.5457 -0.3918
   71MOL   H15921299   7.287   5.706   4.015  0.4683  1.3774 -0.7993
   71MOL   H16021300   7.698   5.751   4.189  1.3883 -0.3430 -0.1875
   71MOL   H16121301   7.726   5.629   4.063 -0.8430 -0.4106  0.1770
   71MOL   H16221302   7.648   5.921   3.982  1.5186  1.5937 -1.6442
   71MOL   H16321303   7.808   5.878   4.007 -2.0173  1.4765  2.8992
   71MOL   H16421304   7.726   5.783   3.888 -2.0595 -0.5691  0.3524
   71MOL   H16521305   7.376   5.709   3.725  1.1800  1.4786 -0.5762
   71MOL   H16621306   7.211   5.732   3.791 -0.4794 -0.4946  2.6738
   71MOL   C16721307   7.352   5.895   3.842  0.1579 -0.4102  0.0430
   71MOL   O16821308   7.350   5.969   3.716 -0.0095 -0.0645  0.0573
   71MOL   C16921309   7.449   5.964   3.636  0.1407 -0.3331 -0.9374
   71MOL   O17021310   7.558   5.918   3.670 -0.2557 -0.4272 -0.0043
   71MOL   C17121311   7.432   6.019   3.497 -0.1878  0.7182  0.1609
   71MOL   C17221312   7.523   5.948   3.394 -0.8101  0.0250 -0.3343
   71MOL   C17321313   7.256   5.968   3.940 -0.0742  0.3945 -0.6006
   71MOL   H17421314   7.448   5.885   3.893 -0.3631  1.8344  1.5397
   71MOL   H17521315   7.329   5.995   3.471 -0.1876 -0.0011  0.7967
   71MOL   H17621316   7.452   6.126   3.486 -1.4236  0.9179 -0.1385
   71MOL   H17721317   7.511   5.840   3.405 -2.0822  0.1941  0.0085
   71MOL   H17821318   7.482   5.965   3.294 -0.7961 -2.4606 -0.8027
   71MOL   H17921319   7.628   5.973   3.410 -0.4582 -1.2477 -0.6135
   71MOL   H18021320   7.154   5.947   3.908  0.4764 -0.7888 -1.6128
   71MOL   H18121321   7.250   5.914   4.035  0.1646  1.1931 -0.1263
   71MOL   C18221322   7.283   6.116   3.959  0.0140 -0.1686  0.1439
   71MOL   O18321323   7.201   6.148   4.065  0.3609 -0.6644 -0.0777
   71MOL   C18421324   7.103   6.242   4.063 -0.6312 -0.1967  0.1989
   71MOL   O18521325   7.079   6.325   3.974  0.5507 -0.5196  0.1186
   71MOL   C18621326   7.013   6.242   4.188 -0.2905  0.4158 -0.3179
   71MOL   C18721327   6.928   6.115   4.197  0.2323  0.0272 -0.4729
   71MOL   C18821328   7.430   6.150   3.978 -0.7758 -0.3035  0.2780
   71MOL   H18921329   7.239   6.167   3.874 -0.2150 -1.5900 -0.6023
   71MOL   H19021330   7.077   6.261   4.274  0.5033  0.0828 -0.8287
   71MOL   H19121331   6.945   6.327   4.183 -1.6604 -0.6777 -0.4570
   71MOL   H19221332   6.880   6.088   4.104 -0.1401 -1.1525  0.0475
   71MOL   H19321333   6.996   6.033   4.222  1.7327  1.4255  0.1654
   71MOL   H19421334   6.853   6.120   4.276  0.5532 -2.6400  0.0619
   71MOL   H19521335   7.481   6.059   4.011 -1.5127 -1.0221 -0.5295
   71MOL   H19621336   7.472   6.176   3.880 -0.0799 -0.6846  0.4683
   71MOL   C19721337   7.464   6.265   4.072  0.5660 -0.2414 -0.0118
   71MOL   O19821338   7.454   6.201   4.201 -0.3694  0.1196  0.4816
   71MOL   C19921339   7.404   6.262   4.305 -0.1143 -0.4192 -0.3404
   71MOL   O20021340   7.361   6.380   4.305  0.2046  0.6177  0.1624
   71MOL   C20121341   7.416   6.182   4.440  0.7112  0.4399  0.2199
   71MOL   C20221342   7.362   6.042   4.436 -0.3477 -0.0498 -0.2047
   71MOL   C20321343   7.614   6.319   4.052 -0.4743  0.4030  0.1641
   71MOL   H20421344   7.390   6.344   4.059  0.3846 -0.3220  0.4971
   71MOL   H20521345   7.522   6.171   4.461  0.6588 -0.8891 -0.1727
   71MOL   H20621346   7.380   6.250   4.517 -2.1824  2.4495 -2.7603
   71MOL   H20721347   7.262   6.059   4.397  0.2196  1.2237 -1.1309
   71MOL   H20821348   7.407   5.983   4.357 -0.5422 -0.4952  0.0173
   71MOL   H20921349   7.380   5.990   4.531 -0.0741 -1.1342 -0.8379
   71MOL   H21021350   7.638   6.379   4.141  0.3061 -1.2582  1.0965
   71MOL   H21121351   7.685   6.237   4.057  0.1536  0.9539  0.4671
   71MOL   C21221352   7.630   6.420   3.935  0.3637 -0.1237 -0.0137
   71MOL   O21321353   7.548   6.533   3.954  0.2532 -0.4503  0.0122
   71MOL   C21421354   7.462   6.584   3.861 -0.1333  0.3739  0.8394
   71MOL   O21521355   7.419   6.512   3.772  0.0990  0.1405  0.3688
   71MOL   C21621356   7.423   6.732   3.879  0.4088  0.6187  0.1387
   71MOL   C21721357   7.543   6.821   3.842 -0.5037  0.3298 -0.9930
   71MOL   C21821358   7.770   6.477   3.906 -0.0412 -0.2399 -0.3701
   71MOL   H21921359   7.611   6.367   3.841  0.0306 -0.9221  0.4964
   71MOL   H22021360   7.334   6.751   3.819  0.7418 -0.4763 -0.7192
   71MOL   H22121361   7.395   6.748   3.983  0.2616 -0.0995  0.2153
   71MOL   H22221362   7.515   6.926   3.847 -1.0177  0.1779 -0.6611
   71MOL   H22321363   7.623   6.788   3.909 -1.9808  0.9837  1.1621
   71MOL   H22421364   7.560   6.808   3.735 -0.2389 -1.0818 -0.7903
   71MOL   H22521365   7.758   6.538   3.816  0.8733 -0.3062 -0.5386
   71MOL   H22621366   7.809   6.538   3.987  0.5124  0.4279 -1.1252
   71MOL   C22721367   7.882   6.381   3.870  0.2850  0.1333 -0.0951
   71MOL   O22821368   7.842   6.299   3.763  0.1718 -0.1214 -0.0886
   71MOL   C22921369   7.840   6.167   3.790 -0.5354 -0.1744 -0.4154
   71MOL   O23021370   7.855   6.108   3.895 -1.0807 -0.3497 -0.8815
   71MOL   C23121371   7.808   6.096   3.656 -1.0912  0.4102 -0.6753
   71MOL   C23221372   7.927   6.107   3.558 -0.6352  0.6718  0.0588
   71MOL   C23321373   0.062   6.460   3.824 -0.2816  0.5732 -0.3478
   71MOL   H23421374   7.898   6.321   3.960  2.6327  0.3198 -0.3536
   71MOL   H23521375   7.782   5.991   3.669 -0.6759  0.5098  1.1475
   71MOL   H23621376   7.715   6.138   3.619 -1.8169 -1.5056 -1.0277
   71MOL   H23721377   0.075   6.121   3.613 -1.5931 -1.0583  2.2024
   71MOL   H23821378   7.937   6.019   3.494 -3.0320  0.6988 -0.4172
   71MOL   H23921379   7.929   6.184   3.481 -2.4713 -0.1854 -0.8785
   71MOL   H24021380   0.058   6.467   3.716  1.7654 -0.1357 -0.4879
   71MOL   H24121381   0.074   6.556   3.874  3.4547 -1.4242  2.8555
   71MOL   C24221382   0.201   6.386   3.841  0.3864  0.6957  1.0483
   71MOL   O24321383   0.307   6.450   3.779  0.1685  0.4030 -0.6791
   71MOL   C24421384   0.355   6.407   3.673 -0.4347 -0.6115 -0.3724
   71MOL   O24521385   0.321   6.311   3.609  0.5280 -0.1806 -0.4100
   71MOL   C24621386   0.483   6.490   3.644 -0.1412 -0.2292 -0.2932
   71MOL   C24721387   0.547   6.482   3.504  0.3332 -0.3209  0.5516
   71MOL   C24821388   0.237   6.364   3.989  0.2073  0.5337  0.1441
   71MOL   H24921389   0.190   6.286   3.799 -2.1506  1.2982  0.1945
   71MOL   H25021390   0.458   6.592   3.674 -0.5686 -0.0691 -1.1837
   71MOL   H25121391   0.552   6.458   3.722 -1.0457  1.9153  1.4599
   71MOL   H25221392   0.479   6.535   3.438  1.0882 -0.7541 -0.5733
   71MOL   H25321393   0.637   6.543   3.496 -0.4840  0.7662 -0.6188
   71MOL   H25421394   0.572   6.386   3.459 -0.3871 -1.3779  2.3397
   71MOL   H25521395   0.153   6.316   4.039 -0.5622  0.1715 -1.4789
   71MOL   H25621396   0.322   6.296   3.999  0.9075  1.3125 -0.3766
   71MOL   C25721397   0.260   6.491   4.077 -0.3135  0.9984 -0.1194
   71MOL   O25821398   0.253   6.443   4.214  0.1539  0.1284 -0.3447
   71MOL   C25921399   0.132   6.455   4.274  0.3190 -0.8201  0.6928
   71MOL   O26021400   0.029   6.506   4.223  0.1127 -0.3294  0.4277
   71MOL   C26121401   0.137   6.420   4.417 -0.3972 -0.2114 -0.4650
   71MOL   C26221402   0.168   6.543   4.508  0.1318 -0.6146  0.1027
   71MOL   C26321403   0.405   6.556   4.067  0.8994 -0.0257 -0.4846
   71MOL   H26421404   0.184   6.564   4.047 -0.8094  0.7488  0.5329
   71MOL   H26521405   0.040   6.375   4.441 -0.4711 -0.4285 -1.1546
   71MOL   H26621406   0.211   6.341   4.431 -1.5136 -1.3640 -0.9294
   71MOL   H26721407   0.273   6.572   4.507 -0.2358  0.8244  1.0220
   71MOL   H26821408   0.118   6.635   4.480 -2.2142 -1.5138  1.2443
   71MOL   H26921409   0.150   6.516   4.613  1.1638 -2.3717 -0.1428
   71MOL   H27021410   0.479   6.485   4.105  1.0306  1.3791  1.9964
   71MOL   H27121411   0.442   6.575   3.966 -0.7533 -0.7347 -1.2351
   71MOL   C27221412   0.412   6.684   4.155 -0.0184 -0.5433 -0.2256
   71MOL   O27321413   0.513   6.668   4.254  0.2909 -0.0993  0.2008
   71MOL   C27421414   0.498   6.702   4.381 -0.0670 -0.3552 -0.4491
   71MOL   O27521415   0.403   6.772   4.419  0.5099 -0.4426  0.0246
   71MOL   C27621416   0.604   6.645   4.472 -0.2287  0.0755  0.3903
   71MOL   C27721417   0.580   6.667   4.624  0.3700  0.1785 -0.2013
   71MOL   C27821418   0.446   6.817   4.085  1.1278 -0.1090 -0.0339
   71MOL   H27921419   0.323   6.697   4.216  1.1772 -0.9092  1.6508
   71MOL   H28021420   0.610   6.539   4.448  0.7827  0.2088  0.0574
   71MOL   H28121421   0.697   6.682   4.429 -1.4148 -0.3235 -2.6826
   71MOL   H28221422   0.507   6.595   4.662  0.0401  0.3176 -0.5664
   71MOL   H28321423   0.671   6.644   4.679 -0.4671 -0.5983  0.8769
   71MOL   H28421424   0.545   6.767   4.648 -2.6607 -0.7004 -0.6736
   71MOL   H28521425   0.466   6.890   4.163  2.4569 -0.8106  0.2878
   71MOL   H28621426   0.540   6.811   4.031  1.0154 -1.8569 -0.0714
   71MOL   C28721427   0.344   6.885   3.989 -0.0098  0.2877 -0.4580
   71MOL   O28821428   0.230   6.918   4.064 -0.2106  0.2060  0.0146
   71MOL   C28921429   0.122   6.853   4.031 -0.3967 -0.0937  0.6741
   71MOL   O29021430   0.099   6.794   3.923 -0.5655  0.3131  0.4376
   71MOL   C29121431   0.011   6.896   4.129  0.8883  0.6288  0.2708
   71MOL   C29221432   7.819   6.889   4.070  0.0988  0.0112  0.3646
   71MOL   C29321433   0.404   7.021   3.950 -0.3123 -1.1963  0.7246
   71MOL   H29421434   0.324   6.831   3.896 -0.5688 -2.1170  0.9996
   71MOL   H29521435   0.000   6.834   4.218 -0.7532  0.0649 -0.2939
   71MOL   H29621436   0.036   7.000   4.153  2.5850 -0.1199  1.8807
   71MOL   H29721437   7.745   6.903   4.148 -0.3214 -2.7273  0.5053
   71MOL   H29821438   7.800   6.960   3.988  2.0639  0.3255  0.1566
   71MOL   H29921439   7.801   6.792   4.024 -0.8452  1.0310 -1.4763
   71MOL   H30021440   0.502   7.013   3.901 -1.4805 -0.2182 -1.8542
   71MOL   H30121441   0.331   7.072   3.887 -1.5923 -1.4172  2.0137
   71MOL   H30221442   0.433   7.084   4.034 -1.2065 -1.0613  0.9342
   72MOL     C121443   0.508   1.647   2.850 -0.8684  0.3557 -0.1783
   72MOL     O221444   0.491   1.706   2.987  0.1568 -0.2829  0.2907
   72MOL     C321445   0.520   1.833   3.005  0.2374 -0.3704  0.0229
   72MOL     O421446   0.571   1.913   2.920  0.1975  0.6808 -0.5745
   72MOL     C521447   0.470   1.878   3.145 -0.1546 -0.1064 -0.4032
   72MOL     C621448   0.346   1.961   3.140 -0.4237 -0.1285  0.0413
   72MOL     C721449   0.475   1.497   2.852 -0.2547  0.2235 -0.1808
   72MOL     H821450   0.609   1.660   2.810  0.0236 -0.8292  1.6431
   72MOL     H921451   0.462   1.799   3.219 -0.8289  0.9105  0.6317
   72MOL    H1021452   0.552   1.929   3.196 -1.7440  1.7150  0.3762
   72MOL    H1121453   0.282   1.937   3.224  0.7348 -1.6294  0.5123
   72MOL    H1221454   0.364   2.068   3.128  1.4058 -0.0532  2.9441
   72MOL    H1321455   0.285   1.926   3.057 -0.3150 -0.6517  0.1762
   72MOL    H1421456   0.374   1.468   2.884 -0.6646  1.2634 -0.5013
   72MOL    H1521457   0.476   1.464   2.748 -0.4509 -2.9245  0.7676
   72MOL    H1621458   0.439   1.705   2.788  0.7213 -0.1208 -2.4420
   72MOL    C1721459   0.566   1.404   2.930 -0.7544  0.6968 -1.0960
   72MOL    O1821460   0.511   1.383   3.065  0.3313 -0.0304  0.3890
   72MOL    C1921461   0.589   1.397   3.174  0.1991 -0.1663  0.1953
   72MOL    O2021462   0.708   1.449   3.181  0.2999 -0.2694  0.6409
   72MOL    C2121463   0.526   1.349   3.301  1.1074 -0.7987 -0.4796
   72MOL    C2221464   0.406   1.259   3.271 -0.2107 -0.3145 -0.5975
   72MOL    C2321465   0.558   1.264   2.870 -0.4255  0.0207 -0.2895
   72MOL    H2421466   0.667   1.444   2.929 -1.3858  2.3769  0.3373
   72MOL    H2521467   0.605   1.298   3.356  1.3190  1.1548  1.0553
   72MOL    H2621468   0.501   1.442   3.352  0.0635 -0.0329 -2.3199
   72MOL    H2721469   0.370   1.218   3.366  2.2278  1.4044  1.1432
   72MOL    H2821470   0.316   1.316   3.247 -1.1938 -0.4914  2.4309
   72MOL    H2921471   0.429   1.183   3.196  2.4412  1.3267 -1.4781
   72MOL    H3021472   0.610   1.198   2.941  1.7447  0.6425 -1.2710
   72MOL    H3121473   0.454   1.232   2.875 -0.6028  0.6801  0.2862
   72MOL    C3221474   0.622   1.233   2.730  0.3806  0.4498 -0.1141
   72MOL    O3321475   0.756   1.282   2.731 -0.2112  0.2864 -0.5942
   72MOL    C3421476   0.792   1.402   2.671  0.4703  0.5052 -0.2835
   72MOL    O3521477   0.724   1.491   2.627  0.1667 -0.0278  0.0225
   72MOL    C3621478   0.945   1.424   2.691 -0.0334  0.1450  0.1664
   72MOL    C3721479   1.014   1.360   2.811  0.2498 -0.0832  1.0113
   72MOL    C3821480   0.630   1.089   2.692 -0.3741 -0.0305  0.4886
   72MOL    H3921481   0.563   1.289   2.658  1.9380  0.0416 -1.7518
   72MOL    H4021482   0.991   1.404   2.595  0.2457  1.2029  0.0755
   72MOL    H4121483   0.950   1.531   2.709 -2.7183  0.2305  0.6026
   72MOL    H4221484   1.096   1.426   2.839  0.4614 -0.7260  1.9171
   72MOL    H4321485   0.948   1.353   2.897  0.0417  2.1264  1.0544
   72MOL    H4421486   1.039   1.257   2.786 -0.4910  0.0895 -0.4928
   72MOL    H4521487   0.706   1.031   2.744  0.2151  0.1532 -0.1679
   72MOL    H4621488   0.538   1.040   2.727 -0.2631  0.2772  1.2109
   72MOL    C4721489   0.632   1.050   2.536 -0.9747 -0.1047 -0.3396
   72MOL    O4821490   0.767   1.093   2.498 -0.5197  0.4518 -0.2622
   72MOL    C4921491   0.787   1.159   2.387  0.0663 -0.5118 -0.1813
   72MOL    O5021492   0.705   1.174   2.297  0.4261  0.4299  0.1837
   72MOL    C5121493   0.936   1.182   2.363  0.1502  0.0438  0.1807
   72MOL    C5221494   0.961   1.193   2.213 -0.1041  0.2888  0.4483
   72MOL    C5321495   0.622   0.902   2.509 -0.5313  0.0527 -1.2200
   72MOL    H5421496   0.553   1.116   2.500  0.6790  1.9918 -0.2358
   72MOL    H5521497   0.964   1.279   2.404  0.6640 -0.3304  0.7303
   72MOL    H5621498   1.002   1.105   2.402 -0.5920 -0.6408  0.0995
   72MOL    H5721499   0.965   1.089   2.179 -1.1555  0.5192 -0.3830
   72MOL    H5821500   0.879   1.246   2.165 -0.2826 -1.6435 -1.4523
   72MOL    H5921501   1.052   1.244   2.182 -1.0118  2.6916  1.6316
   72MOL    H6021502   0.698   0.867   2.440  1.3161 -0.4198  0.9762
   72MOL    H6121503   0.643   0.846   2.600 -0.4115 -1.2243 -2.0288
   72MOL    C6221504   0.480   0.866   2.462 -0.9152  0.1045 -0.2618
   72MOL    O6321505   0.387   0.904   2.565 -0.5400 -0.3993 -0.4378
   72MOL    C6421506   0.271   0.824   2.585 -0.2639  0.4509 -0.1963
   72MOL    O6521507   0.242   0.721   2.524  0.1225  0.0777 -0.1740
   72MOL    C6621508   0.174   0.873   2.688 -1.0028  0.2596 -0.5191
   72MOL    C6721509   0.249   0.933   2.808  0.7839 -0.1829 -0.0534
   72MOL    C6821510   0.438   0.901   2.322 -0.0534 -0.9500  0.3074
   72MOL    H6921511   0.496   0.759   2.468 -0.3467  0.1570 -0.7330
   72MOL    H7021512   0.103   0.936   2.637 -0.5722  3.6701  2.8563
   72MOL    H7121513   0.114   0.790   2.726  0.6239  0.0982  1.8920
   72MOL    H7221514   0.314   0.867   2.867 -1.1286 -1.0909  1.1260
   72MOL    H7321515   0.306   1.022   2.784  0.9981 -0.4333 -0.4745
   72MOL    H7421516   0.180   0.970   2.885  1.6513  1.1392  0.0928
   72MOL    H7521517   0.331   0.886   2.305 -0.0825  0.2620 -0.6662
   72MOL    H7621518   0.441   1.010   2.315 -1.8629 -0.9431 -0.7644
   72MOL    C7721519   0.513   0.834   2.205  0.2559 -0.7563  0.2502
   72MOL    O7821520   0.470   0.695   2.200  0.2133  0.2868 -0.5440
   72MOL    C7921521   0.557   0.602   2.187 -0.2331 -0.1151  0.3563
   72MOL    O8021522   0.682   0.608   2.177  0.2489  0.2893  0.4214
   72MOL    C8121523   0.480   0.471   2.151  0.1688  0.0183  0.8951
   72MOL    C8221524   0.415   0.461   2.012 -0.3074  0.8228  0.0673
   72MOL    C8321525   0.490   0.894   2.063 -0.5400  0.2179 -0.3075
   72MOL    H8421526   0.621   0.843   2.221  0.4250 -1.9488 -0.1819
   72MOL    H8521527   0.554   0.391   2.154  0.2488  0.1274  2.8464
   72MOL    H8621528   0.415   0.442   2.233  0.6362 -0.1383  1.2162
   72MOL    H8721529   0.342   0.380   2.012 -0.2778  0.7962  0.0567
   72MOL    H8821530   0.353   0.546   1.980 -0.5949  1.2879  1.8085
   72MOL    H8921531   0.495   0.443   1.940  0.8805  1.7957  1.1286
   72MOL    H9021532   0.393   0.846   2.049 -1.2168  1.5914 -0.3569
   72MOL    H9121533   0.467   1.000   2.065  0.6195  0.4967 -0.8534
   72MOL    C9221534   0.593   0.851   1.955 -0.0223 -0.6858  0.5292
   72MOL    O9321535   0.529   0.863   1.825 -0.1761 -0.6080  0.4021
   72MOL    C9421536   0.515   0.757   1.744 -0.6737 -0.2132  0.3207
   72MOL    O9521537   0.542   0.643   1.771  0.1035 -0.1713  0.4194
   72MOL    C9621538   0.461   0.789   1.609 -0.4965  0.2790 -0.7691
   72MOL    C9721539   0.351   0.900   1.595  0.5835  0.0464  0.1575
   72MOL    C9821540   0.720   0.950   1.960 -0.0542  0.1495  0.4069
   72MOL    H9921541   0.627   0.748   1.963  3.3818  0.4031  0.9704
   72MOL   H10021542   0.547   0.806   1.545  0.2720  0.6242  0.3471
   72MOL   H10121543   0.424   0.694   1.571 -1.7360 -0.5715  2.3945
   72MOL   H10221544   0.392   0.999   1.614 -0.8232  0.6869 -0.0528
   72MOL   H10321545   0.325   0.909   1.489  0.9806 -2.8275 -0.2143
   72MOL   H10421546   0.262   0.892   1.656 -0.0132 -1.2322 -0.8612
   72MOL   H10521547   0.686   1.038   1.906  0.3201 -0.3849 -0.7131
   72MOL   H10621548   0.752   0.979   2.061  0.3464  0.6077  0.1516
   72MOL   C10721549   0.839   0.887   1.893 -0.4956 -0.1471 -0.2953
   72MOL   O10821550   0.921   0.997   1.852 -0.5430  0.3089  0.2330
   72MOL   C10921551   0.909   1.057   1.725  0.3793  0.1845  0.0081
   72MOL   O11021552   0.853   1.007   1.634  0.4655 -0.5188  0.4163
   72MOL   C11121553   0.991   1.191   1.715  0.2104 -0.7130  0.6322
   72MOL   C11221554   0.959   1.276   1.838 -0.0860 -0.5832 -0.0694
   72MOL   C11321555   0.933   0.804   1.980  0.3995 -0.8417 -0.1520
   72MOL   H11421556   0.814   0.826   1.806  0.1486 -0.3624 -0.3268
   72MOL   H11521557   1.099   1.178   1.708  0.1898 -0.1913 -0.9393
   72MOL   H11621558   0.962   1.249   1.627 -0.2461  1.9969  2.5147
   72MOL   H11721559   0.967   1.379   1.805 -2.4870 -0.5971 -0.7805
   72MOL   H11821560   0.854   1.271   1.867  0.0834 -0.9069  0.5013
   72MOL   H11921561   1.021   1.257   1.925 -0.5565  0.6434  0.5369
   72MOL   H12021562   0.997   0.878   2.026 -1.3190 -0.6465  1.9882
   72MOL   H12121563   0.884   0.755   2.064 -1.1942 -1.5445 -1.4763
   72MOL   C12221564   1.010   0.689   1.913  0.2202 -0.3604  0.0996
   72MOL   O12321565   0.909   0.591   1.874 -0.1416  0.2152 -0.1233
   72MOL   C12421566   0.909   0.470   1.932 -0.3523 -0.8891 -0.2712
   72MOL   O12521567   0.973   0.440   2.038  0.0733 -0.5053 -0.5727
   72MOL   C12621568   0.818   0.365   1.866  0.0417  0.0347 -0.3353
   72MOL   C12721569   0.833   0.218   1.930  0.3942  0.2564  0.3746
   72MOL   C12821570   1.107   0.736   1.794 -0.0124 -0.4459 -0.1171
   72MOL   H12921571   1.076   0.659   1.995  0.5525  1.2952  0.4378
   72MOL   H13021572   0.718   0.408   1.868  0.6435  1.5618 -1.4907
   72MOL   H13121573   0.844   0.369   1.760  0.8509 -0.1465 -0.1443
   72MOL   H13221574   0.799   0.146   1.856 -0.7220 -0.5558  1.6465
   72MOL   H13321575   0.933   0.189   1.960  0.5764  0.7455  0.2477
   72MOL   H13421576   0.765   0.201   2.014  1.3921  1.3055  1.4046
   72MOL   H13521577   1.049   0.771   1.708 -0.9224 -0.9090  0.3082
   72MOL   H13621578   1.169   0.814   1.838  1.2076 -2.1003  1.1782
   72MOL   C13721579   1.218   0.627   1.752  0.4775  0.1063 -0.5747
   72MOL   O13821580   1.272   0.575   1.875  0.0671  0.1392 -0.4708
   72MOL   C13921581   1.397   0.527   1.874  0.7804 -0.6579 -0.2645
   72MOL   O14021582   1.480   0.520   1.782  0.1297 -0.2927 -0.2024
   72MOL   C14121583   1.439   0.476   2.010  0.3299  0.0313 -0.1702
   72MOL   C14221584   1.354   0.354   2.063  0.3529 -0.3564  0.3802
   72MOL   C14321585   1.163   0.511   1.661  0.2342  0.1443 -0.1987
   72MOL   H14421586   1.287   0.684   1.689 -0.2679 -0.0170 -1.5244
   72MOL   H14521587   1.541   0.437   2.004 -0.0997 -0.9962 -0.8945
   72MOL   H14621588   1.438   0.553   2.087  1.6480  1.0480 -1.1277
   72MOL   H14721589   1.426   0.280   2.097 -0.7533 -0.5163  2.4488
   72MOL   H14821590   1.280   0.375   2.140 -0.1459  0.1550 -0.2231
   72MOL   H14921591   1.302   0.303   1.981  1.2849  0.6407 -0.8649
   72MOL   H15021592   1.231   0.426   1.656 -1.2733 -1.1029  0.2056
   72MOL   H15121593   1.064   0.480   1.695  0.1290  1.1031  0.3662
   72MOL   C15221594   1.167   0.549   1.511  0.3223  0.5647  0.2678
   72MOL   O15321595   1.059   0.633   1.473 -0.4303 -0.1469  0.4166
   72MOL   C15421596   0.929   0.596   1.480  0.3204  0.0639 -0.3007
   72MOL   O15521597   0.883   0.484   1.518  0.0236 -0.1230  0.1072
   72MOL   C15621598   0.835   0.703   1.426  0.3067 -0.0579  0.5137
   72MOL   C15721599   0.707   0.648   1.358  0.3998  0.2785 -0.1410
   72MOL   C15821600   1.301   0.598   1.451  0.6856 -0.1066  0.0080
   72MOL   H15921601   1.146   0.453   1.462 -0.8522  0.6714  0.5588
   72MOL   H16021602   0.812   0.763   1.514 -1.7780  0.8881 -0.6443
   72MOL   H16121603   0.899   0.763   1.362 -0.1377  0.6045  0.6796
   72MOL   H16221604   0.636   0.628   1.438  1.3887 -0.5148  0.5395
   72MOL   H16321605   0.659   0.711   1.283 -0.0257 -0.5540 -0.5791
   72MOL   H16421606   0.727   0.552   1.309 -0.3431  1.0550 -2.0472
   72MOL   H16521607   1.318   0.702   1.482 -0.8212  1.2658 -3.5598
   72MOL   H16621608   1.383   0.551   1.505 -1.5391 -3.2990  0.7415
   72MOL   C16721609   1.321   0.601   1.290 -0.0605  0.0563 -0.0177
   72MOL   O16821610   1.452   0.650   1.273  0.4408  0.0714  0.2080
   72MOL   C16921611   1.485   0.765   1.209  0.2395 -0.7058 -0.5240
   72MOL   O17021612   1.405   0.844   1.157 -0.3176 -0.1756  0.1177
   72MOL   C17121613   1.636   0.779   1.191  0.2160  0.3262 -0.2222
   72MOL   C17221614   1.692   0.673   1.103  0.0300 -0.6608 -0.0465
   72MOL   C17321615   1.321   0.453   1.225  0.4381 -0.4287  0.0008
   72MOL   H17421616   1.251   0.668   1.239  2.9337  2.3710 -1.2501
   72MOL   H17521617   1.659   0.877   1.150  0.5343 -0.1210 -1.1131
   72MOL   H17621618   1.677   0.776   1.293 -2.5693 -1.0171  0.8998
   72MOL   H17721619   1.634   0.674   1.011  1.5748 -0.4288 -1.0317
   72MOL   H17821620   1.796   0.693   1.078  0.1151 -1.0647 -0.0230
   72MOL   H17921621   1.697   0.574   1.149  0.0919 -0.8532 -0.4654
   72MOL   H18021622   1.384   0.451   1.136 -1.5367  0.3164 -1.4463
   72MOL   H18121623   1.372   0.385   1.294  3.2861  0.1011 -1.5078
   72MOL   C18221624   1.188   0.387   1.180 -0.0836  0.2839 -0.1777
   72MOL   O18321625   1.134   0.322   1.295 -0.3315  0.1907  0.1726
   72MOL   C18421626   1.144   0.186   1.318 -0.0545  0.0844 -0.6127
   72MOL   O18521627   1.183   0.103   1.240 -0.0012 -0.5335 -0.8265
   72MOL   C18621628   1.102   0.147   1.458  0.4861  0.0054  0.1852
   72MOL   C18721629   0.950   0.143   1.472 -0.6595  0.4947 -0.1065
   72MOL   C18821630   1.094   0.488   1.122 -0.0898 -0.2909  0.6153
   72MOL   H18921631   1.225   0.302   1.123 -1.4110 -0.8356  0.6276
   72MOL   H19021632   1.140   0.046   1.477  1.1995  0.4953  1.4038
   72MOL   H19121633   1.155   0.207   1.532  1.1322  0.4379 -0.6160
   72MOL   H19221634   0.914   0.183   1.567 -0.8699 -1.4695  0.6504
   72MOL   H19321635   0.903   0.204   1.395  0.9722  0.5546 -1.0703
   72MOL   H19421636   0.927   0.037   1.466  2.7892 -0.4777  2.0503
   72MOL   H19521637   0.999   0.445   1.091  0.2110 -0.0885 -0.6157
   72MOL   H19621638   1.069   0.559   1.202  1.0450  3.3206 -2.1145
   72MOL   C19721639   1.151   0.569   0.997 -0.1488  0.5072 -0.6151
   72MOL   O19821640   1.184   0.462   0.907 -0.0555  0.0783  0.0455
   72MOL   C19921641   1.304   0.467   0.848 -0.2966 -0.1779  0.0904
   72MOL   O20021642   1.391   0.554   0.855 -0.2550  0.1078 -0.1089
   72MOL   C20121643   1.331   0.352   0.752 -0.0025  0.3638 -0.2004
   72MOL   C20221644   1.250   0.342   0.625  0.4296 -0.5944  1.0190
   72MOL   C20321645   1.051   0.662   0.928  0.0729 -0.4818 -0.3080
   72MOL   H20421646   1.242   0.622   1.026 -0.4882  0.4828  0.5217
   72MOL   H20521647   1.439   0.340   0.737 -0.1920  0.7648 -2.0324
   72MOL   H20621648   1.303   0.265   0.811 -1.2560  0.9014  0.0161
   72MOL   H20721649   1.144   0.333   0.648  0.8106 -1.9971  2.3530
   72MOL   H20821650   1.284   0.426   0.565 -1.3947 -0.9944 -0.6185
   72MOL   H20921651   1.270   0.255   0.563  1.0789 -0.2788  0.7853
   72MOL   H21021652   0.975   0.598   0.883 -1.2804  0.5564  0.4517
   72MOL   H21121653   1.000   0.705   1.014  1.2767 -1.2453  0.8040
   72MOL   C21221654   1.125   0.769   0.844  0.2996 -0.0485  0.8259
   72MOL   O21321655   1.042   0.791   0.730 -0.0662  0.3315 -0.1780
   72MOL   C21421656   1.059   0.723   0.619 -0.7956 -0.5342 -0.1307
   72MOL   O21521657   1.149   0.634   0.608 -0.2462 -0.1910 -1.0543
   72MOL   C21621658   0.943   0.744   0.510 -0.0943  0.0520  0.0375
   72MOL   C21721659   0.992   0.708   0.378  0.1274  0.1642 -0.0983
   72MOL   C21821660   1.155   0.897   0.923 -0.3200  0.5754  0.1659
   72MOL   H21921661   1.223   0.723   0.831  0.4128 -0.1977  2.1627
   72MOL   H22021662   0.853   0.689   0.535  0.0005  0.0139  0.2982
   72MOL   H22121663   0.899   0.843   0.521  0.7346  0.2127  2.2548
   72MOL   H22221664   0.912   0.704   0.305 -0.1579  1.1067  0.1475
   72MOL   H22321665   1.060   0.787   0.346 -0.3914  0.2742 -0.9580
   72MOL   H22421666   1.037   0.609   0.383 -0.9945 -0.3163  0.8234
   72MOL   H22521667   1.060   0.945   0.945 -1.4672 -0.5010 -2.2590
   72MOL   H22621668   1.208   0.869   1.014  1.1438  2.1069 -0.2017
   72MOL   C22721669   1.255   0.986   0.842 -0.4182 -0.1980 -0.1820
   72MOL   O22821670   1.264   1.109   0.921  0.0578 -0.1126 -0.3383
   72MOL   C22921671   1.216   1.222   0.869 -0.3543 -0.4582 -0.0954
   72MOL   O23021672   1.149   1.226   0.763  0.1883 -0.3497 -0.0963
   72MOL   C23121673   1.245   1.352   0.942  0.3135  0.0964 -0.3741
   72MOL   C23221674   1.208   1.341   1.091 -0.0836  0.0124  0.6299
   72MOL   C23321675   1.409   0.940   0.836 -0.0949  0.2680  0.3586
   72MOL   H23421676   1.205   1.005   0.747  0.5038  0.8588 -0.4726
   72MOL   H23521677   1.350   1.381   0.938  0.2499  0.2734 -0.8504
   72MOL   H23621678   1.175   1.424   0.900 -1.1578 -0.2103  1.4528
   72MOL   H23721679   1.231   1.242   1.130 -0.0789 -0.4460 -0.5090
   72MOL   H23821680   1.282   1.396   1.148  1.4433  0.1644 -1.4307
   72MOL   H23921681   1.110   1.380   1.118  0.7875  4.1400 -1.7994
   72MOL   H24021682   1.484   1.009   0.874  0.7635  0.3501 -1.4149
   72MOL   H24121683   1.418   0.863   0.913  1.4299  1.1902  1.1313
   72MOL   C24221684   1.466   0.876   0.698 -0.3973 -0.0530 -0.1439
   72MOL   O24321685   1.499   0.987   0.611  0.4135 -0.1930  0.2438
   72MOL   C24421686   1.427   1.019   0.501 -0.1690  0.3423 -0.2539
   72MOL   O24521687   1.340   0.944   0.454 -0.1761  0.1220  0.7322
   72MOL   C24621688   1.457   1.155   0.443 -1.0238  0.2873  0.2374
   72MOL   C24721689   1.406   1.254   0.533 -0.2069  0.8197  0.5900
   72MOL   C24821690   1.590   0.789   0.722 -0.0781 -0.1076 -0.3282
   72MOL   H24921691   1.391   0.808   0.659 -0.2598  1.2773 -2.8267
   72MOL   H25021692   1.563   1.170   0.425 -1.1143  0.6841  0.0369
   72MOL   H25121693   1.403   1.173   0.350 -0.2111  0.8909 -0.1183
   72MOL   H25221694   1.300   1.272   0.514 -0.6849 -1.8464  0.5267
   72MOL   H25321695   1.435   1.249   0.638  1.4200  2.0804  0.2145
   72MOL   H25421696   1.454   1.344   0.493 -1.0628  0.8734 -0.3382
   72MOL   H25521697   1.668   0.845   0.772  0.6250 -0.9956 -0.4297
   72MOL   H25621698   1.569   0.697   0.776  2.7515 -0.3395  0.4268
   72MOL   C25721699   1.649   0.733   0.585 -0.6497 -0.1619 -0.9373
   72MOL   O25821700   1.766   0.657   0.621 -0.2010  0.1358  0.1754
   72MOL   C25921701   1.890   0.695   0.580  0.4568 -0.3282 -0.7400
   72MOL   O26021702   1.910   0.783   0.499  0.0161  0.3683 -0.4991
   72MOL   C26121703   1.999   0.597   0.632  0.3125 -0.3965  0.3186
   72MOL   C26221704   2.124   0.608   0.541  0.5540  1.0283  0.3157
   72MOL   C26321705   1.553   0.628   0.514  0.0695 -0.6055 -0.0837
   72MOL   H26421706   1.669   0.813   0.514  0.0981  0.6120  0.1320
   72MOL   H26521707   2.019   0.613   0.738 -1.3716 -1.2755  0.7798
   72MOL   H26621708   1.973   0.492   0.617  1.4874 -0.6466 -0.0381
   72MOL   H26721709   2.210   0.554   0.580 -0.6310 -0.9167  0.2565
   72MOL   H26821710   2.093   0.579   0.441  1.2143 -0.2790  0.4897
   72MOL   H26921711   2.152   0.714   0.543  2.3590  0.5640  0.0076
   72MOL   H27021712   1.567   0.524   0.543  3.4586 -0.7649 -2.0498
   72MOL   H27121713   1.449   0.637   0.544  0.2744  1.8640  0.0577
   72MOL   C27221714   1.547   0.635   0.360 -0.0122  0.3122 -0.5073
   72MOL   O27321715   1.667   0.590   0.310  0.2448  0.5656 -0.4205
   72MOL   C27421716   1.735   0.668   0.216 -0.6848 -0.3328 -0.0628
   72MOL   O27521717   1.704   0.780   0.165  0.7453  0.0304 -0.7789
   72MOL   C27621718   1.865   0.594   0.173  0.1609  0.4716 -0.1142
   72MOL   C27721719   1.901   0.617   0.026  0.1927 -0.6112 -0.2896
   72MOL   C27821720   1.421   0.570   0.296  1.2533  0.5974  0.4220
   72MOL   H27921721   1.536   0.742   0.343  1.3356  0.6370  0.5043
   72MOL   H28021722   1.938   0.635   0.242  0.9911  2.6078 -2.2531
   72MOL   H28121723   1.855   0.490   0.205  0.1286  0.4268 -0.2696
   72MOL   H28221724   1.997   0.570   0.004  0.6354 -0.0946  0.5249
   72MOL   H28321725   1.838   0.567   7.898 -1.3931  1.2211 -0.2181
   72MOL   H28421726   1.917   0.722   7.944 -1.4759  0.1717  1.6455
   72MOL   H28521727   1.438   0.464   0.310  0.6634  0.6780  1.7965
   72MOL   H28621728   1.332   0.596   0.354  0.3909 -1.1153 -0.1148
   72MOL   C28721729   1.393   0.624   0.153 -0.6799 -0.1747  0.3091
   72MOL   O28821730   1.280   0.556   0.105 -0.2957 -0.9047  0.5188
   72MOL   C28921731   1.278   0.469   0.006 -0.8260 -0.0413  0.0123
   72MOL   O29021732   1.380   0.438   7.894  0.5486  0.8045 -0.1823
   72MOL   C29121733   1.142   0.411   7.909 -0.1043  0.0141  0.0091
   72MOL   C29221734   1.032   0.517   7.923  0.3245 -0.0974  0.3152
   72MOL   C29321735   1.352   0.769   0.147 -0.4723 -0.4911 -0.7952
   72MOL   H29421736   1.485   0.609   0.096 -1.2228  1.2570 -0.9915
   72MOL   H29521737   1.149   0.402   7.800  1.3103 -0.3115  0.1241
   72MOL   H29621738   1.126   0.318   0.017  1.2950 -0.4758 -0.4183
   72MOL   H29721739   1.040   0.567   0.075  1.9455 -0.7485  0.5320
   72MOL   H29821740   1.035   0.589   7.842 -2.9604  0.3755  0.5307
   72MOL   H29921741   0.930   0.477   7.917  0.1405  0.5583 -0.9255
   72MOL   H30021742   1.276   0.797   0.220  0.7837 -0.5894  0.5707
   72MOL   H30121743   1.434   0.840   0.147 -0.3153 -0.6752  0.3187
   72MOL   H30221744   1.296   0.778   0.053  0.3639  0.6347 -1.1937
   73MOL     C121745   5.711   7.697   0.037  0.4537 -0.4206  0.0724
   73MOL     O221746   5.800   7.609   0.107 -0.1496 -0.1378 -0.1103
   73MOL     C321747   5.770   7.561   0.224 -0.0453  0.0445 -0.2979
   73MOL     O421748   5.678   7.595   0.296 -0.0892  0.4157 -0.0020
   73MOL     C521749   5.867   7.454   0.265  0.0553 -0.7549 -0.6409
   73MOL     C621750   5.844   7.321   0.188 -0.4374  0.0516  0.2135
   73MOL     C721751   5.689   7.835   0.101 -0.3297  0.0953 -0.2051
   73MOL     H821752   5.622   7.636   0.022 -0.1436 -0.0319  1.8404
   73MOL     H921753   5.972   7.483   0.255 -0.5269  1.5662 -0.1758
   73MOL    H1021754   5.830   7.428   0.364  2.4720  0.3444  0.5893
   73MOL    H1121755   5.892   7.241   0.244  0.1308  0.8542  0.8952
   73MOL    H1221756   5.739   7.296   0.175 -1.0530  2.3851  0.5655
   73MOL    H1321757   5.891   7.324   0.089 -0.5416  0.0885  0.1649
   73MOL    H1421758   5.666   7.814   0.206 -0.0894 -0.9378 -0.3496
   73MOL    H1521759   5.788   7.881   0.103  0.0991 -0.8297  1.3650
   73MOL    H1621760   5.747   7.715   7.881 -1.8011  0.8238 -0.5485
   73MOL    C1721761   5.586   7.923   0.024  0.4617 -0.4557 -0.0597
   73MOL    O1821762   5.633   7.943   7.832 -0.4208  0.2063  0.0143
   73MOL    C1921763   5.607   0.106   7.769 -0.0765 -0.5949 -0.8773
   73MOL    O2021764   5.543   0.204   7.812  0.1811 -0.8293 -0.0372
   73MOL    C2121765   5.650   0.103   7.627  0.5326  0.0293 -0.0085
   73MOL    C2221766   5.568   0.198   7.543 -0.4532 -0.5374 -0.2867
   73MOL    C2321767   5.443   7.861   0.011  0.9424 -0.3473  0.6944
   73MOL    H2421768   5.598   0.075   0.073 -1.7129  1.4635 -3.1432
   73MOL    H2521769   5.747   0.148   7.610  0.5721 -0.3072 -0.6847
   73MOL    H2621770   5.651   7.944   7.596  0.2793 -0.3821  1.3203
   73MOL    H2721771   5.473   0.163   7.502 -1.6211  1.8557  0.2989
   73MOL    H2821772   5.543   0.293   7.591 -1.9186 -0.7192 -0.6914
   73MOL    H2921773   5.623   0.229   7.454 -0.2330  1.2532  0.4586
   73MOL    H3021774   5.384   7.930   7.894  1.1401  1.1733  2.1837
   73MOL    H3121775   5.452   7.788   7.875 -0.0324  1.0033 -0.6826
   73MOL    C3221776   5.365   7.798   0.125 -0.8980 -0.3473  0.7645
   73MOL    O3321777   5.323   7.907   0.206  0.0813  0.2310  0.4351
   73MOL    C3421778   5.366   7.910   0.339 -0.0120  0.1427 -0.1725
   73MOL    O3521779   5.446   7.828   0.387  0.4176 -0.3648  0.0331
   73MOL    C3621780   5.300   0.065   0.428  0.1358 -0.1857  0.1575
   73MOL    C3721781   5.306   0.198   0.361  0.5863 -0.1753 -0.1547
   73MOL    C3821782   5.239   7.731   0.073  0.2752  0.4270 -0.0548
   73MOL    H3921783   5.419   7.722   0.181  0.6385 -0.5305 -0.9156
   73MOL    H4021784   5.202   0.029   0.459 -0.2800 -0.1592 -1.1215
   73MOL    H4121785   5.353   0.071   0.523  0.9012 -2.1367 -0.1154
   73MOL    H4221786   5.406   0.210   0.318  0.0465  0.7133 -1.2033
   73MOL    H4321787   5.235   0.211   0.279 -0.3631 -2.5042  0.2756
   73MOL    H4421788   5.283   0.285   0.422 -0.3162 -0.2592 -0.3730
   73MOL    H4521789   5.156   7.738   0.144  0.5974  1.4648  0.2249
   73MOL    H4621790   5.203   7.785   7.931 -0.9044 -0.2380  0.0056
   73MOL    C4721791   5.274   7.581   0.049  0.8665  0.2614 -0.7454
   73MOL    O4821792   5.303   7.522   0.179 -0.1299 -0.4669 -0.0843
   73MOL    C4921793   5.399   7.425   0.180  0.3264 -1.0372 -0.6363
   73MOL    O5021794   5.446   7.371   0.081 -0.1642 -0.5850 -0.1703
   73MOL    C5121795   5.406   7.352   0.307 -0.1850 -0.2981 -0.2023
   73MOL    C5221796   5.302   7.248   0.329  0.3184 -0.5651 -0.3728
   73MOL    C5321797   5.168   7.493   7.919  0.2357 -0.8236 -0.3883
   73MOL    H5421798   5.365   7.578   7.934 -0.3668  2.6269 -2.8571
   73MOL    H5521799   5.500   7.297   0.305 -0.2275 -0.3518 -1.1862
   73MOL    H5621800   5.396   7.427   0.385  0.4474 -2.8464  2.4299
   73MOL    H5721801   5.219   7.304   0.372  2.2335  2.4654 -0.4358
   73MOL    H5821802   5.273   7.203   0.235 -0.5508  0.8955 -0.8263
   73MOL    H5921803   5.340   7.167   0.391  0.9643  0.2145  0.2782
   73MOL    H6021804   5.137   7.402   0.025  1.8101 -1.3793 -0.4138
   73MOL    H6121805   5.074   7.547   7.935 -0.7163 -2.3737 -0.6636
   73MOL    C6221806   5.187   7.468   7.768  0.0804 -0.0700  0.1110
   73MOL    O6321807   5.261   7.345   7.754 -0.3479 -0.2056 -0.1727
   73MOL    C6421808   5.392   7.339   7.712 -0.6740 -0.3140 -0.2071
   73MOL    O6521809   5.469   7.428   7.666  0.6561 -0.1653 -0.0448
   73MOL    C6621810   5.439   7.194   7.721  0.4130  0.3133  0.2059
   73MOL    C6721811   5.469   7.132   7.584  0.3776  0.6073 -0.5294
   73MOL    C6821812   5.053   7.443   7.699 -0.4499  0.0163 -0.8472
   73MOL    H6921813   5.240   7.544   7.710 -0.4412  1.1949  1.2613
   73MOL    H7021814   5.522   7.192   7.791  1.1006  0.1713 -0.6096
   73MOL    H7121815   5.366   7.126   7.764  0.6869 -0.2727 -0.2485
   73MOL    H7221816   5.376   7.090   7.545  0.4818 -0.6523  0.5488
   73MOL    H7321817   5.510   7.204   7.512  2.4649  0.3237  0.3349
   73MOL    H7421818   5.540   7.053   7.607  0.8325  1.2624  0.3545
   73MOL    H7521819   4.977   7.403   7.766 -0.8093 -2.8072 -2.8713
   73MOL    H7621820   5.016   7.545   7.687 -0.2532  0.0710 -0.9870
   73MOL    C7721821   5.053   7.386   7.560 -0.3539 -0.5935 -0.3187
   73MOL    O7821822   4.925   7.355   7.507 -0.0671  0.3407  0.0816
   73MOL    C7921823   4.864   7.249   7.563  0.6990 -0.9496 -0.0392
   73MOL    O8021824   4.906   7.181   7.655 -0.2398  0.1573 -0.4384
   73MOL    C8121825   4.716   7.234   7.519 -0.1180 -0.3984 -0.6199
   73MOL    C8221826   4.637   7.128   7.588  0.1817  0.2342  0.1738
   73MOL    C8321827   5.128   7.474   7.453 -0.4317  0.2943 -0.0054
   73MOL    H8421828   5.103   7.290   7.559  0.7957 -0.0061 -1.0893
   73MOL    H8521829   4.678   7.335   7.533 -1.1783 -0.6923 -1.3085
   73MOL    H8621830   4.728   7.211   7.413  1.3311  0.7529 -0.7304
   73MOL    H8721831   4.538   7.122   7.543 -0.0842 -0.9641  0.8824
   73MOL    H8821832   4.672   7.030   7.555  0.1379  0.0578  0.6372
   73MOL    H8921833   4.613   7.137   7.694 -0.0636  2.0006 -0.0173
   73MOL    H9021834   5.089   7.575   7.461 -2.8033 -0.5177 -0.9397
   73MOL    H9121835   5.231   7.481   7.488 -0.7693  0.4889  0.9778
   73MOL    C9221836   5.128   7.423   7.309 -0.1061 -0.5085 -0.1878
   73MOL    O9321837   5.149   7.537   7.223  0.1846 -0.4494 -0.1309
   73MOL    C9421838   5.058   7.580   7.132 -0.7021  0.9303 -0.3673
   73MOL    O9521839   4.951   7.535   7.115  0.0661  0.5039  0.3234
   73MOL    C9621840   5.106   7.701   7.064 -0.1063 -0.0050  0.1762
   73MOL    C9721841   5.134   7.824   7.150  0.1871  0.4049 -0.1235
   73MOL    C9821842   5.245   7.316   7.284  0.3913  0.1801 -0.2670
   73MOL    H9921843   5.029   7.390   7.276  0.6419 -0.4712 -2.5625
   73MOL   H10021844   5.205   7.671   7.031  0.0130 -0.7364  1.1917
   73MOL   H10121845   5.041   7.724   6.979  2.1617 -0.3286 -1.7013
   73MOL   H10221846   5.167   7.816   7.253  0.0856  3.1435  0.1345
   73MOL   H10321847   5.223   7.869   7.105 -0.2861  0.2285 -1.2683
   73MOL   H10421848   5.056   7.898   7.134 -0.4807 -0.0330  1.0213
   73MOL   H10521849   5.332   7.363   7.240  0.0276 -0.4587 -1.7059
   73MOL   H10621850   5.270   7.266   7.378  0.5630 -2.0548 -1.4740
   73MOL   C10721851   5.195   7.206   7.190 -0.4347  0.0397 -0.0757
   73MOL   O10821852   5.076   7.143   7.247 -0.7440  0.3531  0.1922
   73MOL   C10921853   5.089   7.037   7.329  0.2207  0.5479 -0.4415
   73MOL   O11021854   5.193   6.982   7.364  0.2272  0.9788  0.4031
   73MOL   C11121855   4.952   6.986   7.368  0.5936 -0.4055  0.1111
   73MOL   C11221856   4.890   6.883   7.273  0.2416 -0.4520 -0.2855
   73MOL   C11321857   5.179   7.237   7.043  0.1734 -0.3502 -0.7398
   73MOL   H11421858   5.275   7.132   7.196 -3.0253 -2.9865 -1.2455
   73MOL   H11521859   4.950   6.956   7.472  1.7751 -0.5219  0.1046
   73MOL   H11621860   4.868   7.055   7.369  0.5467 -0.4851  1.3138
   73MOL   H11721861   4.802   6.847   7.326  0.8883 -1.5996  0.0207
   73MOL   H11821862   4.865   6.933   7.179  2.8701 -0.3916 -1.0077
   73MOL   H11921863   4.960   6.805   7.243  0.4425 -0.6575  0.7016
   73MOL   H12021864   5.123   7.155   6.999 -0.0323 -0.1698 -0.8195
   73MOL   H12121865   5.120   7.329   7.040  1.3941  0.5428  1.6393
   73MOL   C12221866   5.309   7.268   6.958 -0.5005 -0.4134 -0.9937
   73MOL   O12321867   5.400   7.163   6.961 -0.2598  0.9709 -0.0905
   73MOL   C12421868   5.524   7.172   7.011 -0.5745 -0.3909 -0.1363
   73MOL   O12521869   5.585   7.273   7.041 -0.3062  0.2874  0.0684
   73MOL   C12621870   5.574   7.034   7.027 -0.3486 -0.2124 -0.0790
   73MOL   C12721871   5.555   6.986   7.170  0.2658 -0.0692  0.6379
   73MOL   C12821872   5.274   7.282   6.811  0.2940 -0.0859 -0.2146
   73MOL   H12921873   5.366   7.352   6.996 -1.7468  0.0507 -0.1156
   73MOL   H13021874   5.517   6.960   6.972  2.3510 -2.1275 -0.3832
   73MOL   H13121875   5.679   7.021   7.001 -0.5699  1.5925 -2.0108
   73MOL   H13221876   5.596   7.051   7.247  1.3266 -0.9144  0.8068
   73MOL   H13321877   5.451   6.961   7.192  0.3486  0.1261  1.2684
   73MOL   H13421878   5.607   6.892   7.189  0.7515 -0.3953 -2.1450
   73MOL   H13521879   5.357   7.260   6.743  0.3190 -0.3224 -0.1083
   73MOL   H13621880   5.211   7.199   6.781 -0.8711  0.5107  0.5391
   73MOL   C13721881   5.191   7.410   6.777  0.1042 -0.1626 -0.4217
   73MOL   O13821882   5.285   7.491   6.704  0.0150 -0.1959 -0.2818
   73MOL   C13921883   5.375   7.573   6.762  0.5680 -0.8670 -0.1722
   73MOL   O14021884   5.368   7.588   6.882 -0.3659  0.2228  0.0742
   73MOL   C14121885   5.472   7.635   6.672 -0.7121  0.4726  0.8703
   73MOL   C14221886   5.417   7.729   6.565 -0.2816  0.2427 -0.4230
   73MOL   C14321887   5.077   7.374   6.684 -0.4389  0.5804 -0.2792
   73MOL   H14421888   5.146   7.446   6.870 -2.2575 -2.7554 -0.5048
   73MOL   H14521889   5.543   7.688   6.736 -0.4856  1.5883 -0.2753
   73MOL   H14621890   5.528   7.552   6.629  0.9193  0.5698  2.7387
   73MOL   H14721891   5.449   7.704   6.464  0.5139  1.7678 -0.5679
   73MOL   H14821892   5.309   7.733   6.573 -0.3989  0.3712 -1.8665
   73MOL   H14921893   5.448   7.830   6.591  1.2943 -0.3663  0.1313
   73MOL   H15021894   5.116   7.361   6.583  0.1598  2.4938 -0.3149
   73MOL   H15121895   5.037   7.276   6.712  0.2826  0.5943  0.8318
   73MOL   C15221896   4.959   7.473   6.693 -1.1351 -0.0923 -0.5846
   73MOL   O15321897   4.978   7.578   6.593  0.4574  0.5614  0.1336
   73MOL   C15421898   5.041   7.696   6.623 -0.5297 -0.0863 -0.0422
   73MOL   O15521899   5.073   7.721   6.739  0.1304 -0.0638  0.0569
   73MOL   C15621900   5.049   7.795   6.508  0.1599  0.0536 -0.1226
   73MOL   C15721901   4.948   7.905   6.510  0.6225 -0.1601 -0.1442
   73MOL   C15821902   4.831   7.410   6.645  0.0354  0.0298  1.2003
   73MOL   H15921903   4.959   7.511   6.795 -1.2209  2.1393 -1.3732
   73MOL   H16021904   5.152   7.823   6.488 -0.1020  1.0730 -0.0399
   73MOL   H16121905   5.041   7.735   6.418  1.5196 -0.0268 -0.1908
   73MOL   H16221906   4.850   7.862   6.532  1.1807 -0.5838  1.6238
   73MOL   H16321907   4.970   0.025   6.595  2.1329  2.6079 -2.5563
   73MOL   H16421908   4.958   0.013   6.415 -0.0842 -0.0703 -0.1700
   73MOL   H16521909   4.762   7.481   6.599  0.4614 -0.7809 -0.7261
   73MOL   H16621910   4.849   7.338   6.565 -0.1993  0.8111  0.4376
   73MOL   C16721911   4.748   7.335   6.748  0.0237  0.1708  0.2704
   73MOL   O16821912   4.825   7.225   6.796 -0.1780 -0.0198  0.3016
   73MOL   C16921913   4.773   7.119   6.861  0.7740 -0.1602 -0.4057
   73MOL   O17021914   4.663   7.110   6.921  0.5316  1.1264 -0.3186
   73MOL   C17121915   4.878   7.013   6.893  1.2273  0.3680 -0.0018
   73MOL   C17221916   4.831   6.871   6.860 -0.2734  0.3828 -0.1493
   73MOL   C17321917   4.690   7.419   6.872 -0.1667 -0.0111  0.6139
   73MOL   H17421918   4.661   7.304   6.690 -0.0932 -2.2782  1.6687
   73MOL   H17521919   4.962   7.041   6.829  1.4891 -0.4327 -0.0158
   73MOL   H17621920   4.924   7.023   6.991 -0.7776  0.9696  0.9121
   73MOL   H17721921   4.742   6.865   6.798 -0.3032  3.2679 -0.4737
   73MOL   H17821922   4.920   6.828   6.812 -0.6428 -1.8475  1.1201
   73MOL   H17921923   4.808   6.818   6.952  0.9825  1.6785  0.9489
   73MOL   H18021924   4.612   7.356   6.916 -2.3987  2.6841  0.6630
   73MOL   H18121925   4.759   7.428   6.955 -0.4006 -0.2621  0.8331
   73MOL   C18221926   4.618   7.554   6.834  0.9584  0.3829 -0.8655
   73MOL   O18321927   4.493   7.557   6.906  0.1997  0.0635  0.3005
   73MOL   C18421928   4.373   7.545   6.848 -0.1356 -0.9417 -0.9453
   73MOL   O18521929   4.352   7.507   6.731 -0.0881 -0.0867  0.3613
   73MOL   C18621930   4.262   7.593   6.936 -0.8436 -0.1041  0.2298
   73MOL   C18721931   4.150   7.486   6.946 -0.0091  0.2794 -0.2512
   73MOL   C18821932   4.709   7.673   6.845  0.7930  0.3525  0.5997
   73MOL   H18921933   4.596   7.530   6.730 -1.7134  0.8025 -0.4498
   73MOL   H19021934   4.300   7.605   7.038 -0.8370  2.4700 -0.0242
   73MOL   H19121935   4.219   7.680   6.885  1.5286  1.5764  0.9714
   73MOL   H19221936   4.179   7.395   6.998  0.4393  1.2183  1.1724
   73MOL   H19321937   4.053   7.513   6.988 -1.4553 -1.0105 -2.6778
   73MOL   H19421938   4.121   7.452   6.847  0.6783  2.2476 -1.1576
   73MOL   H19521939   4.756   7.664   6.943  0.1925 -2.6096  0.6552
   73MOL   H19621940   4.793   7.681   6.777  0.0902  0.3530 -0.2709
   73MOL   C19721941   4.637   7.809   6.817  0.0523  0.6103 -0.7028
   73MOL   O19821942   4.750   7.891   6.852 -0.1503  0.3224  0.2953
   73MOL   C19921943   4.759   0.010   6.970  0.1328 -0.0017 -0.3498
   73MOL   O20021944   4.690   7.943   7.074 -0.2501  0.1201  0.2038
   73MOL   C20121945   4.879   0.104   6.972 -0.2444 -0.1588  0.0844
   73MOL   C20221946   4.864   0.226   6.884 -0.9773 -0.0214 -0.6707
   73MOL   C20321947   4.593   7.822   6.671 -0.1083 -0.2395  0.0331
   73MOL   H20421948   4.553   7.814   6.887  0.1126 -0.7227 -0.5284
   73MOL   H20521949   4.897   0.128   7.077 -1.0704 -0.7371  0.3630
   73MOL   H20621950   4.968   0.056   6.933 -1.0006  0.2450 -2.1850
   73MOL   H20721951   4.861   0.205   6.777  1.1702  0.1032 -0.7814
   73MOL   H20821952   4.775   0.284   6.910 -2.2514 -2.5595  0.7873
   73MOL   H20921953   4.948   0.293   6.905 -2.1254  1.1150  0.3780
   73MOL   H21021954   4.679   7.857   6.614 -0.5029  1.8151  0.6320
   73MOL   H21121955   4.571   7.726   6.626  1.0132 -1.9305  2.9882
   73MOL   C21221956   4.486   7.931   6.646 -0.3444 -0.2195  0.8844
   73MOL   O21321957   4.478   0.017   6.504 -0.4522  0.1759 -0.4952
   73MOL   C21421958   4.570   0.099   6.454  0.0928  0.0193 -0.1777
   73MOL   O21521959   4.673   0.132   6.510 -0.0045 -0.0863  0.3338
   73MOL   C21621960   4.522   0.151   6.315  0.2766 -0.4113  0.0835
   73MOL   C21721961   4.371   0.194   6.305  0.4544  0.5705  0.2868
   73MOL   C21821962   4.348   7.892   6.697 -0.3460  0.2069  0.7203
   73MOL   H21921963   4.526   0.076   6.694  0.2170  0.3561 -0.6378
   73MOL   H22021964   4.585   0.238   6.297  1.2263 -0.8806  1.0225
   73MOL   H22121965   4.544   0.087   6.230  0.5425 -1.4123  0.8889
   73MOL   H22221966   4.350   0.250   6.396  0.8216  0.4189  0.4709
   73MOL   H22321967   4.344   0.272   6.234  1.4007 -0.5405 -1.3249
   73MOL   H22421968   4.303   0.112   6.285 -0.5674  1.2556  0.9259
   73MOL   H22521969   4.315   7.799   6.653  1.6002  0.8712 -2.3005
   73MOL   H22621970   4.345   7.876   6.805  0.7290  3.2232  1.2528
   73MOL   C22721971   4.238   0.048   6.658  0.7081 -0.2103  0.3598
   73MOL   O22821972   4.109   7.934   6.691 -0.2265  0.0367  0.1181
   73MOL   C22921973   4.003   7.927   6.608 -0.1247 -0.6234  0.4865
   73MOL   O23021974   4.005   7.937   6.486 -0.5129  0.2831 -0.3820
   73MOL   C23121975   3.869   7.918   6.681  0.1033 -0.0452 -0.2129
   73MOL   C23221976   3.823   0.099   6.757  0.2591 -0.7711  0.0380
   73MOL   C23321977   4.235   0.176   6.741 -0.4463  0.4744  0.9983
   73MOL   H23421978   4.240   0.066   6.551 -2.4242  1.5885  0.5298
   73MOL   H23521979   3.797   7.905   6.601 -1.0057 -1.1468  0.9405
   73MOL   H23621980   3.872   7.828   6.742  0.5800  2.0001  2.8981
   73MOL   H23721981   3.734   0.086   6.818  1.6232  0.4845  2.3770
   73MOL   H23821982   3.907   0.135   6.816  2.0420 -2.4987 -1.3722
   73MOL   H23921983   3.789   0.179   6.691  2.2080  0.8215  0.9163
   73MOL   H24021984   4.146   0.172   6.803 -1.0916  0.4379  0.0809
   73MOL   H24121985   4.323   0.184   6.805  1.5860 -4.2290 -0.9938
   73MOL   C24221986   4.208   0.301   6.653 -0.6481  0.4475 -0.4308
   73MOL   O24321987   4.079   0.292   6.593  0.2187  0.2779  0.1792
   73MOL   C24421988   4.050   0.375   6.494 -0.1402  0.2676 -0.5780
   73MOL   O24521989   4.122   0.450   6.426 -0.5712 -0.0208  0.5563
   73MOL   C24621990   3.902   0.359   6.451 -0.6599  0.0774 -0.0854
   73MOL   C24721991   3.852   0.468   6.360 -0.2163 -0.5026 -0.2393
   73MOL   C24821992   4.229   0.423   6.750 -0.0587  0.0382 -0.2703
   73MOL   H24921993   4.291   0.309   6.583 -1.0205 -0.5021 -0.9974
   73MOL   H25021994   3.898   0.260   6.405  2.2173  0.0365 -0.3378
   73MOL   H25121995   3.839   0.361   6.541 -0.2644 -1.2665  0.2417
   73MOL   H25221996   3.903   0.487   6.265  0.9735 -1.2063  0.2595
   73MOL   H25321997   3.755   0.424   6.338 -0.7621 -0.2841  1.6889
   73MOL   H25421998   3.848   0.566   6.408  0.9699  0.5696 -2.2614
   73MOL   H25521999   4.188   0.511   6.700 -2.0452 -0.7837 -0.1439
   73MOL   H25622000   4.165   0.398   6.834 -0.0823  1.6529  0.2120
   73MOL   C25722001   4.375   0.457   6.782 -0.5566  0.1869  0.2319
   73MOL   O25822002   4.428   0.477   6.659 -0.0368 -0.1301  0.9434
   73MOL   C25922003   4.555   0.439   6.632  0.3290 -0.1490  0.2859
   73MOL   O26022004   4.639   0.406   6.716 -0.7133  0.1352  0.2184
   73MOL   C26122005   4.605   0.468   6.493 -0.3099  0.2070 -0.5625
   73MOL   C26222006   4.504   0.538   6.410  0.2274  0.0879  0.9664
   73MOL   C26322007   4.406   0.582   6.871  0.0502  0.5036 -0.1604
   73MOL   H26422008   4.416   0.378   6.844 -2.8869 -0.7648  0.5994
   73MOL   H26522009   4.689   0.534   6.515 -1.5777  1.6424  0.1357
   73MOL   H26622010   4.642   0.374   6.453  0.8587  1.3768 -2.3278
   73MOL   H26722011   4.424   0.471   6.379 -0.1057  1.6042 -1.5892
   73MOL   H26822012   4.462   0.623   6.463 -4.0794 -1.4868  0.2044
   73MOL   H26922013   4.551   0.567   6.315  1.8097  1.2174  2.0536
   73MOL   H27022014   4.511   0.605   6.891 -0.7985  3.2502  1.4599
   73MOL   H27122015   4.372   0.668   6.814 -1.9055  0.8880  1.5396
   73MOL   C27222016   4.324   0.573   7.004  0.2759 -0.1534  0.2717
   73MOL   O27322017   4.369   0.475   7.093 -0.2769  0.2909  0.1467
   73MOL   C27422018   4.282   0.376   7.141  0.3857 -0.3140 -0.1178
   73MOL   O27522019   4.173   0.344   7.099 -0.2372  0.1267  0.1751
   73MOL   C27622020   4.343   0.303   7.262 -0.3776  0.1861 -0.0643
   73MOL   C27722021   4.463   0.226   7.214  0.9818  1.0366  0.2766
   73MOL   C27822022   4.325   0.702   7.087 -0.4902 -0.3081  0.5026
   73MOL   H27922023   4.221   0.552   6.975  0.2605 -0.8433  0.7989
   73MOL   H28022024   4.358   0.378   7.340  0.0920 -1.3866  1.3900
   73MOL   H28122025   4.276   0.225   7.299 -0.0390 -1.4157 -2.6645
   73MOL   H28222026   4.496   0.160   7.294 -0.2638 -0.3139 -0.3002
   73MOL   H28322027   4.453   0.170   7.121 -0.0307 -0.6155  1.3486
   73MOL   H28422028   4.542   0.300   7.199  0.7418  1.3314  0.4746
   73MOL   H28522029   4.420   0.731   7.133 -0.3233  1.3158 -0.8112
   73MOL   H28622030   4.309   0.770   7.003 -1.9484  0.3178  1.2645
   73MOL   C28722031   4.208   0.720   7.184 -0.1471  0.0465  0.2883
   73MOL   O28822032   4.232   0.821   7.272 -0.8415  0.0153  0.1802
   73MOL   C28922033   4.314   0.810   7.376 -0.2580 -0.3301  0.5862
   73MOL   O29022034   4.367   0.709   7.420 -0.3251  0.4704  0.1768
   73MOL   C29122035   4.335   0.943   7.454 -0.5512 -0.5487  0.3393
   73MOL   C29222036   4.228   0.967   7.563 -1.1044 -0.5006  0.2184
   73MOL   C29322037   4.071   0.750   7.115  0.0080 -0.1806  0.3540
   73MOL   H29422038   4.207   0.625   7.238 -3.4936 -0.0368  0.1926
   73MOL   H29522039   4.435   0.953   7.498 -0.7846  1.5697  0.4607
   73MOL   H29622040   4.341   1.032   7.391 -0.0328  0.0869  1.2723
   73MOL   H29722041   4.204   1.072   7.549  2.1620  0.0545 -1.8880
   73MOL   H29822042   4.138   0.905   7.562 -0.8093 -0.9283  0.0306
   73MOL   H29922043   4.274   0.964   7.662  0.1250  0.4760 -0.3028
   73MOL   H30022044   4.032   0.658   7.072 -1.2421  0.6071 -0.2275
   73MOL   H30122045   3.994   0.782   7.186 -1.2163 -1.5277 -0.3268
   73MOL   H30222046   4.086   0.820   7.032  3.0976 -1.3217 -0.1048
   74MOL     C122047   2.920   2.562   6.493  0.6076 -0.3174 -0.9123
   74MOL     O222048   2.937   2.476   6.607 -0.5121  0.4020  0.3964
   74MOL     C322049   2.950   2.344   6.582 -0.0998  0.3147 -0.4334
   74MOL     O422050   2.945   2.288   6.471 -0.5221 -0.4566  0.4112
   74MOL     C522051   2.974   2.265   6.712 -0.6275  0.1138  0.6220
   74MOL     C622052   3.117   2.294   6.763 -0.2068 -0.3217 -0.2812
   74MOL     C722053   2.778   2.614   6.485  1.0251 -0.3111  0.0376
   74MOL     H822054   2.935   2.518   6.394  0.8692  0.7304 -1.3411
   74MOL     H922055   2.895   2.273   6.787 -1.4561  1.0829 -0.3445
   74MOL    H1022056   2.972   2.160   6.685  1.6606  0.3225 -0.4736
   74MOL    H1122057   3.125   2.403   6.773 -0.6679 -0.2734 -0.4175
   74MOL    H1222058   3.138   2.240   6.855 -0.6658  0.8063  0.4985
   74MOL    H1322059   3.191   2.267   6.688 -3.0812  1.0018 -3.7489
   74MOL    H1422060   2.702   2.537   6.490 -0.9209  1.5482 -0.0988
   74MOL    H1522061   2.764   2.665   6.580 -1.5353 -2.1496  0.6864
   74MOL    H1622062   2.979   2.653   6.490  1.8584 -1.1301 -1.5471
   74MOL    C1722063   2.756   2.698   6.363 -0.1232  0.7589  0.5141
   74MOL    O1822064   2.704   2.616   6.255  0.1757 -0.1755 -0.9210
   74MOL    C1922065   2.787   2.564   6.164  0.0240 -1.0763 -0.4638
   74MOL    O2022066   2.908   2.587   6.159  0.3000  0.6886 -0.6336
   74MOL    C2122067   2.712   2.468   6.071  0.4214 -0.1142 -0.2275
   74MOL    C2222068   2.665   2.347   6.152  0.0071  0.3323 -0.5943
   74MOL    C2322069   2.648   2.803   6.382 -0.0017  0.4593 -0.0520
   74MOL    H2422070   2.846   2.751   6.331 -0.1373  0.3347 -0.2398
   74MOL    H2522071   2.625   2.513   6.023 -0.8532 -0.8206  1.3731
   74MOL    H2622072   2.784   2.435   5.997  1.8435  2.7907 -0.1926
   74MOL    H2722073   2.601   2.388   6.230 -0.1010  1.2141 -1.1331
   74MOL    H2822074   2.613   2.276   6.087 -0.7201  1.4725 -1.2799
   74MOL    H2922075   2.752   2.296   6.194 -0.0380 -0.7138 -1.7363
   74MOL    H3022076   2.555   2.747   6.379  0.0064  0.4546 -0.2431
   74MOL    H3122077   2.648   2.847   6.482  0.0492 -2.5548  1.3296
   74MOL    C3222078   2.628   2.901   6.259 -0.0895  0.5329 -0.3149
   74MOL    O3322079   2.516   2.980   6.283 -0.0829  0.2007 -1.0411
   74MOL    C3422080   2.428   3.014   6.190  0.2086 -0.5791  0.8043
   74MOL    O3522081   2.440   2.992   6.072 -0.5739  0.3455 -0.2501
   74MOL    C3622082   2.322   3.097   6.247  0.3591  0.2245  0.1176
   74MOL    C3722083   2.201   3.120   6.151 -0.3002  0.4852 -0.3400
   74MOL    C3822084   2.749   2.987   6.216 -0.1792  0.0210 -0.5737
   74MOL    H3922085   2.608   2.837   6.173  0.6255  0.5879 -0.5296
   74MOL    H4022086   2.275   3.037   6.325  0.7634 -0.9051 -0.5031
   74MOL    H4122087   2.362   3.190   6.289  3.6794 -0.3038 -1.7100
   74MOL    H4222088   2.167   3.030   6.099 -1.1043  1.0023 -0.7198
   74MOL    H4322089   2.115   3.169   6.197  0.5550 -0.0418  1.8823
   74MOL    H4422090   2.233   3.181   6.067 -0.0867  0.9973  0.1118
   74MOL    H4522091   2.720   3.092   6.211  0.2263  0.0625 -2.2811
   74MOL    H4622092   2.825   2.983   6.294 -2.9436  1.7470  2.3515
   74MOL    C4722093   2.811   2.941   6.085 -0.1007 -0.2566  0.6095
   74MOL    O4822094   2.726   2.984   5.980 -0.6291 -0.0467  0.6089
   74MOL    C4922095   2.676   2.900   5.882 -0.3726 -0.6991  0.1390
   74MOL    O5022096   2.685   2.779   5.876 -0.3460  0.0489 -0.4325
   74MOL    C5122097   2.601   2.979   5.773 -0.2776 -0.3149  0.3520
   74MOL    C5222098   2.458   2.941   5.745 -0.5062 -0.4053 -0.3180
   74MOL    C5322099   2.945   3.016   6.052  0.3742 -0.4363 -0.5713
   74MOL    H5422100   2.843   2.836   6.089  1.5804  0.1518 -1.2884
   74MOL    H5522101   2.623   3.084   5.792  1.4381 -0.0224 -2.7898
   74MOL    H5622102   2.652   2.956   5.679  1.0438  1.1730  0.6828
   74MOL    H5722103   2.422   3.005   5.665  0.8846 -0.5282 -1.0517
   74MOL    H5822104   2.458   2.838   5.710 -1.2502 -0.2540 -0.7973
   74MOL    H5922105   2.403   2.964   5.837  3.1085  3.2324  1.1028
   74MOL    H6022106   2.915   3.120   6.035  3.9836  0.4761 -1.8009
   74MOL    H6122107   3.023   3.022   6.127  0.5523  1.1002 -0.8635
   74MOL    C6222108   3.020   2.954   5.927  0.8880 -0.4314 -0.7882
   74MOL    O6322109   3.135   3.026   5.931  0.0163 -0.1138 -0.3889
   74MOL    C6422110   3.169   3.114   5.838 -0.5198 -0.5356 -0.4529
   74MOL    O6522111   3.103   3.145   5.740  0.2332  0.1329 -0.6205
   74MOL    C6622112   3.304   3.175   5.867 -0.3471 -0.1237  0.5204
   74MOL    C6722113   3.323   3.239   6.008 -0.1203  0.1635 -0.3895
   74MOL    C6822114   3.061   2.807   5.936  0.3117  0.4562  0.0619
   74MOL    H6922115   2.965   2.971   5.834 -2.3275 -2.7638  0.5715
   74MOL    H7022116   3.386   3.106   5.846  0.3924  1.2842 -1.3883
   74MOL    H7122117   3.310   3.255   5.793  3.4453  0.2871  1.1801
   74MOL    H7222118   3.238   3.286   6.057 -1.1931 -1.1996 -0.8886
   74MOL    H7322119   3.360   3.162   6.075  0.3194 -0.6311 -1.5337
   74MOL    H7422120   3.407   3.308   6.003  0.9236 -0.8565  2.1441
   74MOL    H7522121   3.109   2.762   6.023 -1.2085 -1.4378 -0.0528
   74MOL    H7622122   2.966   2.753   5.939  0.6270 -0.0755  0.4019
   74MOL    C7722123   3.148   2.751   5.811  0.1530 -0.3903 -0.4171
   74MOL    O7822124   3.291   2.780   5.823 -0.4918  0.1536 -0.3098
   74MOL    C7922125   3.357   2.814   5.713  0.1486 -0.7091  0.7102
   74MOL    O8022126   3.309   2.821   5.602 -0.1586  0.3150  0.3959
   74MOL    C8122127   3.504   2.836   5.737 -0.7408  0.4774  0.2827
   74MOL    C8222128   3.564   2.944   5.645  0.1003 -0.1188  0.1906
   74MOL    C8322129   3.115   2.607   5.778 -0.6307 -0.3557 -0.4037
   74MOL    H8422130   3.101   2.800   5.725  0.6314 -0.5277 -0.7626
   74MOL    H8522131   3.519   2.866   5.841 -0.6977 -2.0288  1.0531
   74MOL    H8622132   3.556   2.741   5.722 -0.6294  0.7283 -0.9661
   74MOL    H8722133   3.534   2.931   5.540 -0.6290  0.2057  0.3546
   74MOL    H8822134   3.556   3.048   5.677  1.2630  0.4281 -1.2315
   74MOL    H8922135   3.673   2.935   5.646  0.2749  1.9175  0.3487
   74MOL    H9022136   3.196   2.557   5.725  0.3469  1.9348 -1.1371
   74MOL    H9122137   3.092   2.560   5.873 -1.2174 -0.3869 -0.5565
   74MOL    C9222138   2.987   2.585   5.697  0.0441 -0.9164 -0.3893
   74MOL    O9322139   3.004   2.658   5.569  0.5551  0.3606 -0.5446
   74MOL    C9422140   2.935   2.769   5.543 -0.3638  0.2246  0.0761
   74MOL    O9522141   2.840   2.809   5.607 -0.8498  0.5173 -0.0756
   74MOL    C9622142   2.992   2.833   5.422  0.2086  0.0833 -0.0906
   74MOL    C9722143   3.074   2.957   5.437 -0.5074  0.0266  0.3791
   74MOL    C9822144   2.971   2.437   5.660 -0.1488  0.6074 -0.2214
   74MOL    H9922145   2.902   2.624   5.753  0.0660 -1.9989  0.4241
   74MOL   H10022146   3.048   2.760   5.364  2.1231 -1.5614  3.6701
   74MOL   H10122147   2.908   2.859   5.356  1.0149  0.0845 -1.1309
   74MOL   H10222148   3.069   3.003   5.536 -0.8391 -1.4231  1.0490
   74MOL   H10322149   3.178   2.934   5.418 -0.6677 -0.4334  0.0335
   74MOL   H10422150   3.048   3.033   5.363 -2.1081  2.3036  3.1651
   74MOL   H10522151   3.047   2.406   5.587  0.8343 -0.7559  1.3332
   74MOL   H10622152   2.971   2.377   5.751 -1.0869  0.8290 -0.0707
   74MOL   C10722153   2.830   2.417   5.598  0.6773 -0.1013  0.8512
   74MOL   O10822154   2.815   2.282   5.551 -0.0315 -0.0441 -0.6033
   74MOL   C10922155   2.781   2.250   5.426  0.7479  0.3326  0.5988
   74MOL   O11022156   2.758   2.340   5.335 -0.5204  0.6458 -0.2667
   74MOL   C11122157   2.760   2.103   5.395 -0.2196  0.6122  0.2399
   74MOL   C11222158   2.691   2.014   5.506 -0.7671 -0.1421  0.1496
   74MOL   C11322159   2.710   2.434   5.695 -0.0553 -0.0052 -0.3304
   74MOL   H11422160   2.839   2.480   5.510 -0.9008 -0.7410  0.2228
   74MOL   H11522161   2.699   2.101   5.305  0.6938  2.1105 -0.4229
   74MOL   H11622162   2.856   2.062   5.366 -0.0546  0.4460  1.0144
   74MOL   H11722163   2.608   2.054   5.564 -0.3631  0.2195  0.4859
   74MOL   H11822164   2.669   1.914   5.470  1.4614 -0.8779  0.7821
   74MOL   H11922165   2.768   2.005   5.582 -1.6300  1.1269  1.1944
   74MOL   H12022166   2.720   2.362   5.776 -0.5419  1.8678  1.4395
   74MOL   H12122167   2.717   2.538   5.727 -1.5061  0.2558 -0.8270
   74MOL   C12222168   2.574   2.424   5.624 -0.3887  0.0711 -0.0097
   74MOL   O12322169   2.473   2.433   5.722 -0.0886  0.0717  0.0247
   74MOL   C12422170   2.371   2.359   5.716 -0.0319 -0.0776  0.6716
   74MOL   O12522171   2.360   2.279   5.624  0.1716  0.4581 -0.0693
   74MOL   C12622172   2.270   2.386   5.827  0.6690 -0.2709 -0.1088
   74MOL   C12722173   2.193   2.515   5.802 -0.2232  0.6134 -0.6489
   74MOL   C12822174   2.551   2.545   5.526 -0.8963  0.2475 -0.0133
   74MOL   H12922175   2.576   2.330   5.569  0.0490 -0.1733  0.4248
   74MOL   H13022176   2.199   2.304   5.822  0.4161 -0.1163  0.9301
   74MOL   H13122177   2.316   2.374   5.925  1.0912 -1.0195 -0.3970
   74MOL   H13222178   2.237   2.608   5.838  0.5282 -0.0961  0.2953
   74MOL   H13322179   2.185   2.521   5.693  0.0542 -1.3931 -0.8010
   74MOL   H13422180   2.093   2.508   5.843 -0.5193 -0.4062 -1.5117
   74MOL   H13522181   2.526   2.631   5.587  3.3230  1.2331  0.4560
   74MOL   H13622182   2.643   2.579   5.479 -0.5182 -0.9773 -0.1715
   74MOL   C13722183   2.431   2.538   5.424  0.4408  0.6340 -0.2828
   74MOL   O13822184   2.404   2.668   5.367  0.2459 -0.4646 -0.2431
   74MOL   C13922185   2.281   2.728   5.378  0.2279  0.0800 -0.2881
   74MOL   O14022186   2.186   2.679   5.437 -0.4803 -0.1823 -0.5126
   74MOL   C14122187   2.266   2.858   5.299 -0.3203 -0.9703  0.6018
   74MOL   C14222188   2.343   2.983   5.362 -0.3840  0.4849  0.9261
   74MOL   C14322189   2.459   2.432   5.307 -0.1017 -0.7078 -0.8425
   74MOL   H14422190   2.342   2.518   5.484 -0.7884  1.0405 -1.9306
   74MOL   H14522191   2.294   2.842   5.195  0.9588  0.5972  0.6739
   74MOL   H14622192   2.164   2.895   5.306  0.0374  0.0709  0.5409
   74MOL   H14722193   2.448   2.974   5.336 -0.3297  2.0899  0.5769
   74MOL   H14822194   2.292   3.070   5.322  0.1632 -1.2939 -4.0177
   74MOL   H14922195   2.335   2.984   5.470  1.2245  0.5222  1.0583
   74MOL   H15022196   2.552   2.461   5.258  0.0955  1.6721  0.8470
   74MOL   H15122197   2.484   2.337   5.355  1.3145 -0.0457 -0.2190
   74MOL   C15222198   2.346   2.431   5.197 -0.0529  0.5282  0.0013
   74MOL   O15322199   2.378   2.525   5.105 -0.3940 -0.6328  0.2547
   74MOL   C15422200   2.283   2.591   5.039  0.4621  0.1650  0.3817
   74MOL   O15522201   2.166   2.584   5.056  0.2412  0.4046 -0.2586
   74MOL   C15622202   2.345   2.704   4.956 -0.0119  0.6215 -0.4636
   74MOL   C15722203   2.422   2.644   4.837  0.4726 -0.8505  0.1101
   74MOL   C15822204   2.336   2.283   5.144 -0.0835  0.2634  0.0677
   74MOL   H15922205   2.254   2.459   5.249 -0.0317  2.2815 -0.8846
   74MOL   H16022206   2.259   2.762   4.922  0.1624 -0.3980 -2.7974
   74MOL   H16122207   2.409   2.770   5.014 -0.0406  0.5380 -0.3383
   74MOL   H16222208   2.365   2.562   4.793 -2.3249  0.1565  1.7071
   74MOL   H16322209   2.426   2.717   4.757  2.4752  0.0308  0.9855
   74MOL   H16422210   2.522   2.607   4.859  0.4863 -1.5229 -1.0553
   74MOL   H16522211   2.271   2.284   5.056 -1.2323 -1.8774  0.8389
   74MOL   H16622212   2.437   2.244   5.130  0.8255  1.8973  1.8397
   74MOL   C16722213   2.250   2.198   5.244 -0.0172  0.7334  0.9667
   74MOL   O16822214   2.116   2.238   5.226  0.1101 -0.0795 -0.0580
   74MOL   C16922215   2.022   2.233   5.327 -0.2809  0.3906  0.0823
   74MOL   O17022216   2.040   2.204   5.447 -0.1107 -0.0708  0.0976
   74MOL   C17122217   1.888   2.276   5.273  0.7202 -0.6473  0.2980
   74MOL   C17222218   1.860   2.425   5.251  0.6053 -0.2193  0.5458
   74MOL   C17322219   2.273   2.046   5.222 -0.5963  0.4760  0.2874
   74MOL   H17422220   2.286   2.227   5.343  2.2838 -0.6564  0.5629
   74MOL   H17522221   1.875   2.226   5.177  0.7355  0.9625 -0.5493
   74MOL   H17622222   1.814   2.223   5.334  1.1929 -1.1172  0.4743
   74MOL   H17722223   1.844   2.476   5.345  1.5199 -0.7185  0.9856
   74MOL   H17822224   1.949   2.474   5.211 -0.1840 -0.3061 -1.3925
   74MOL   H17922225   1.773   2.440   5.187 -0.0665  0.4944  1.6300
   74MOL   H18022226   2.202   2.019   5.145 -1.0655  0.0785  0.8534
   74MOL   H18122227   2.377   2.030   5.192  0.1398  0.3788  2.7654
   74MOL   C18222228   2.233   1.963   5.336 -0.2877  0.4280  0.3792
   74MOL   O18322229   2.202   1.832   5.278  0.2347  0.2326  1.0413
   74MOL   C18422230   2.095   1.771   5.301  0.3095 -0.5448  0.4296
   74MOL   O18522231   2.007   1.823   5.366  0.8933  0.1286 -0.3892
   74MOL   C18622232   2.085   1.626   5.240  0.1927 -0.3694 -0.5022
   74MOL   C18722233   2.050   1.624   5.088  1.1365  0.5057  0.2715
   74MOL   C18822234   2.347   1.950   5.445  0.6627 -0.7636  0.3148
   74MOL   H18922235   2.145   1.999   5.388 -1.9979 -0.4284 -1.8034
   74MOL   H19022236   2.184   1.588   5.267  0.2148 -0.1234 -0.2249
   74MOL   H19122237   2.020   1.556   5.293  2.3118 -1.4607  0.7245
   74MOL   H19222238   1.946   1.593   5.076  1.8877 -2.7612  1.4801
   74MOL   H19322239   2.066   1.721   5.041  0.6496  0.7346  0.5675
   74MOL   H19422240   2.117   1.556   5.036 -0.3155  0.8772 -2.1805
   74MOL   H19522241   2.431   1.893   5.405  0.8810 -0.4934  0.3911
   74MOL   H19622242   2.383   2.048   5.476  1.7768 -1.7617  2.2447
   74MOL   C19722243   2.304   1.877   5.578 -0.8097  0.1579  0.5231
   74MOL   O19822244   2.412   1.804   5.640  0.0071 -0.0862 -0.2318
   74MOL   C19922245   2.419   1.674   5.632 -0.0417 -0.2653  0.3239
   74MOL   O20022246   2.342   1.601   5.565 -0.1637 -0.9792  0.5673
   74MOL   C20122247   2.526   1.620   5.728 -0.3182  0.2525  0.2995
   74MOL   C20222248   2.558   1.463   5.705 -0.2939 -0.0837  0.6169
   74MOL   C20322249   2.251   1.967   5.686  1.0046 -0.3309 -0.7646
   74MOL   H20422250   2.229   1.804   5.548  2.8013 -2.8080 -1.8746
   74MOL   H20522251   2.619   1.676   5.713  0.3793 -0.6212  1.2705
   74MOL   H20622252   2.505   1.634   5.834 -3.7116 -1.4596 -0.1063
   74MOL   H20722253   2.574   1.448   5.598 -0.9332  1.4817  0.2924
   74MOL   H20822254   2.653   1.450   5.758 -0.7185  3.1452  2.2941
   74MOL   H20922255   2.475   1.408   5.750 -1.5071  0.3967 -0.9696
   74MOL   H21022256   2.340   2.012   5.728  1.2689 -0.6842 -0.9385
   74MOL   H21122257   2.184   2.048   5.658 -0.6625 -1.4615 -0.1368
   74MOL   C21222258   2.172   1.894   5.796 -0.2129  0.3089  0.0442
   74MOL   O21322259   2.156   1.995   5.896 -0.4533  0.3280  0.2218
   74MOL   C21422260   2.204   1.978   6.018 -0.2466  0.5459 -0.2918
   74MOL   O21522261   2.259   1.880   6.061 -0.4468 -0.2331  0.2386
   74MOL   C21622262   2.178   2.096   6.109 -0.0400 -0.2825  0.9310
   74MOL   C21722263   2.279   2.117   6.222  0.6856 -0.3087 -0.1592
   74MOL   C21822264   2.032   1.827   5.765 -0.3709  0.0322 -0.0935
   74MOL   H21922265   2.235   1.810   5.827  0.7743  1.4444  1.1694
   74MOL   H22022266   2.176   2.185   6.047  0.4354 -1.6286 -1.0623
   74MOL   H22122267   2.079   2.095   6.157  0.4002 -2.7010  1.8505
   74MOL   H22222268   2.228   2.109   6.318  0.5366 -0.2101 -0.2305
   74MOL   H22322269   2.365   2.050   6.216  0.1599 -1.2008  1.8416
   74MOL   H22422270   2.315   2.217   6.200 -0.8273  0.6459  1.5760
   74MOL   H22522271   1.948   1.857   5.827  0.4858  1.5465  0.3612
   74MOL   H22622272   2.011   1.856   5.662  3.6409 -1.4101 -1.4238
   74MOL   C22722273   2.037   1.676   5.780 -0.3130 -0.2120  0.7997
   74MOL   O22822274   2.045   1.649   5.923 -0.4883  0.4294  0.3771
   74MOL   C22922275   2.127   1.558   5.971  0.9154  0.1713 -0.0241
   74MOL   O23022276   2.208   1.498   5.900  0.4295  0.0967  0.6257
   74MOL   C23122277   2.127   1.547   6.124 -0.0101 -0.8130 -0.1143
   74MOL   C23222278   2.161   1.398   6.161  0.0895  0.3632  0.0227
   74MOL   C23322279   1.904   1.610   5.731 -0.3481 -0.0060 -0.1612
   74MOL   H23422280   2.116   1.634   5.719 -0.2804  1.0168 -0.0302
   74MOL   H23522281   2.202   1.609   6.172  0.0197 -0.3039 -0.8138
   74MOL   H23622282   2.029   1.560   6.171 -0.0716 -1.2810 -0.1125
   74MOL   H23722283   2.157   1.384   6.269 -0.5075  1.1554  0.1084
   74MOL   H23822284   2.092   1.325   6.119  0.5321 -0.1500  0.1923
   74MOL   H23922285   2.262   1.365   6.138 -0.1274  0.2613 -0.8095
   74MOL   H24022286   1.825   1.622   5.805 -1.3295  0.3213 -1.2519
   74MOL   H24122287   1.876   1.655   5.636  0.0367  1.7932  0.5508
   74MOL   C24222288   1.931   1.459   5.708  0.1829 -0.5257  0.0321
   74MOL   O24322289   1.800   1.405   5.687 -0.0333 -0.0785 -0.2113
   74MOL   C24422290   1.730   1.348   5.783  0.5327  0.2229 -0.1380
   74MOL   O24522291   1.771   1.326   5.898  0.1442 -0.2497 -0.2090
   74MOL   C24622292   1.586   1.319   5.742 -0.5161 -0.0705 -0.0839
   74MOL   C24722293   1.494   1.299   5.870 -0.2457  0.1245 -0.2063
   74MOL   C24822294   2.022   1.414   5.582  0.4498 -0.1953 -0.0539
   74MOL   H24922295   1.982   1.417   5.795  3.3767  0.7026 -1.1849
   74MOL   H25022296   1.542   1.394   5.676 -0.2896 -0.5923 -0.8372
   74MOL   H25122297   1.578   1.230   5.679  2.0169 -0.1504 -0.3129
   74MOL   H25222298   1.395   1.283   5.828 -0.5215  2.3890 -0.4424
   74MOL   H25322299   1.519   1.204   5.918  0.2192 -0.9610 -2.5036
   74MOL   H25422300   1.489   1.368   5.954 -1.1762 -0.7948  0.5036
   74MOL   H25522301   1.965   1.444   5.494 -0.2576  2.5456  1.3115
   74MOL   H25622302   2.107   1.481   5.576 -0.3118  0.9010  1.1187
   74MOL   C25722303   2.060   1.262   5.585  0.3453 -0.0103 -0.2280
   74MOL   O25822304   2.109   1.243   5.453  0.0691  0.5200  0.3719
   74MOL   C25922305   2.060   1.171   5.359 -0.0961  0.1794  0.7381
   74MOL   O26022306   1.947   1.129   5.356  0.2349  0.9936  0.0205
   74MOL   C26122307   2.151   1.158   5.232 -0.1449  0.0116 -0.6205
   74MOL   C26222308   2.114   1.256   5.124 -0.0756  0.2385 -0.4536
   74MOL   C26322309   2.169   1.230   5.696 -0.2029 -0.0440 -0.5549
   74MOL   H26422310   1.970   1.202   5.603 -0.5153  1.9495  2.5031
   74MOL   H26522311   2.258   1.166   5.250 -0.4911 -1.5137  2.3557
   74MOL   H26622312   2.125   1.061   5.190 -0.4950 -1.4420  2.7681
   74MOL   H26722313   2.092   1.355   5.164  0.7223  0.0039  0.5805
   74MOL   H26822314   2.184   1.257   5.041 -1.0111 -0.4189 -1.2571
   74MOL   H26922315   2.023   1.223   5.074 -0.5320 -0.8766  1.0825
   74MOL   H27022316   2.257   1.292   5.678 -1.2678  2.1043  1.3309
   74MOL   H27122317   2.141   1.271   5.793 -1.4058  1.2693 -1.4297
   74MOL   C27222318   2.207   1.082   5.700 -0.3828  0.6907  0.0957
   74MOL   O27322319   2.274   1.057   5.577 -0.0776  0.6922 -0.6541
   74MOL   C27422320   2.267   0.927   5.532  0.6086  0.3206 -0.2124
   74MOL   O27522321   2.208   0.832   5.586  0.1338 -0.0711 -0.2867
   74MOL   C27622322   2.342   0.915   5.400 -0.3548 -0.2522 -0.0035
   74MOL   C27722323   2.290   0.819   5.288 -0.1049 -0.5120 -0.3966
   74MOL   C27822324   2.291   1.050   5.823  0.3891 -0.0083  0.0529
   74MOL   H27922325   2.114   1.026   5.711  1.0886 -1.7420  0.5715
   74MOL   H28022326   2.352   1.015   5.356 -2.0589  0.5050  1.2832
   74MOL   H28122327   2.441   0.880   5.430 -0.5628  0.1566  1.1735
   74MOL   H28222328   2.183   0.841   5.293  0.1772  0.4984  1.7249
   74MOL   H28322329   2.319   0.838   5.184 -0.8240  0.7305 -0.3785
   74MOL   H28422330   2.298   0.713   5.312  0.0738 -0.2255  0.7932
   74MOL   H28522331   2.319   0.945   5.815  0.4056  0.2102 -3.5199
   74MOL   H28622332   2.383   1.108   5.821  0.6846 -0.4332  0.9694
   74MOL   C28722333   2.221   1.072   5.965 -0.2027 -0.5136 -0.1154
   74MOL   O28822334   2.108   0.988   5.963  0.3032 -0.1057 -0.1799
   74MOL   C28922335   1.993   1.004   6.038  0.0674 -0.0154 -0.0398
   74MOL   O29022336   1.972   1.090   6.126 -0.7326  0.2055  0.3950
   74MOL   C29122337   1.883   0.909   5.994 -0.4346 -0.6528  0.4008
   74MOL   C29222338   1.820   0.928   5.856 -0.6413  0.2485 -0.3893
   74MOL   C29322339   2.317   1.038   6.082 -0.1220  0.4741  0.1556
   74MOL   H29422340   2.197   1.177   5.981  0.3074 -0.5400  0.8475
   74MOL   H29522341   1.907   0.803   6.002  0.8651 -0.5206 -1.3587
   74MOL   H29622342   1.796   0.920   6.059 -0.1501 -0.1269  0.6900
   74MOL   H29722343   1.728   0.873   5.838 -1.7210  1.1535  2.0263
   74MOL   H29822344   1.781   1.029   5.839 -1.6323  0.0141  0.4389
   74MOL   H29922345   1.895   0.914   5.779  0.6133  1.1031  0.6464
   74MOL   H30022346   2.372   0.946   6.067  0.3703  0.5102  1.5907
   74MOL   H30122347   2.389   1.120   6.088  0.3923  0.1174 -1.1003
   74MOL   H30222348   2.257   1.030   6.173 -0.9398  0.7732 -0.3487
   75MOL     C122349   1.374   2.963   7.343 -0.7714 -0.0668 -0.0450
   75MOL     O222350   1.477   3.050   7.391  0.0293 -0.7973 -0.0067
   75MOL     C322351   1.510   3.163   7.323 -0.1166  0.2029 -0.3191
   75MOL     O422352   1.479   3.188   7.207 -0.3108  0.0573  0.0848
   75MOL     C522353   1.590   3.264   7.405 -0.2948  0.0998  0.1785
   75MOL     C622354   1.508   3.338   7.506 -0.1884  0.2530 -0.1130
   75MOL     C722355   1.314   2.878   7.458  0.1855  0.4347  0.0075
   75MOL     H822356   1.412   2.896   7.265  1.1940  0.5608  0.3427
   75MOL     H922357   1.660   3.195   7.453 -1.2776 -0.6746  0.5212
   75MOL    H1022358   1.649   3.330   7.342 -0.1886  0.6042  0.8080
   75MOL    H1122359   1.464   3.258   7.565  0.6669  0.1413  0.3772
   75MOL    H1222360   1.571   3.405   7.566 -0.3482 -0.5319  0.9514
   75MOL    H1322361   1.434   3.403   7.459 -0.3181 -0.8443 -1.4508
   75MOL    H1422362   1.391   2.817   7.504 -0.1894 -0.9571 -1.1763
   75MOL    H1522363   1.271   2.941   7.535  0.1763  0.2936  0.1175
   75MOL    H1622364   1.292   3.024   7.305 -0.1567 -0.5229 -2.1763
   75MOL    C1722365   1.205   2.785   7.405  0.2508  0.1913  0.6839
   75MOL    O1822366   1.259   2.674   7.339 -0.3336 -0.4069  0.4188
   75MOL    C1922367   1.217   2.632   7.223 -0.3311 -0.4540 -0.2203
   75MOL    O2022368   1.117   2.677   7.164  0.8526 -0.5530 -0.1485
   75MOL    C2122369   1.312   2.530   7.162  0.3508 -0.0664 -0.2772
   75MOL    C2222370   1.334   2.405   7.259  0.7084 -0.8454  0.5076
   75MOL    C2322371   1.119   2.716   7.515  1.4324  0.4449 -0.1885
   75MOL    H2422372   1.149   2.854   7.341  0.3452  0.8734  1.3210
   75MOL    H2522373   1.268   2.503   7.066 -0.0703  1.6453 -0.5930
   75MOL    H2622374   1.408   2.579   7.145  0.3397  0.0082 -0.1323
   75MOL    H2722375   1.437   2.416   7.293  1.4127 -0.2733 -1.7515
   75MOL    H2822376   1.264   2.396   7.342  2.6750 -1.4498  2.1471
   75MOL    H2922377   1.340   2.314   7.199  0.6086 -0.2429 -0.4170
   75MOL    H3022378   1.053   2.646   7.464  0.1589  0.6492  1.1474
   75MOL    H3122379   1.193   2.650   7.560  0.1922 -0.6265  0.2840
   75MOL    C3222380   1.048   2.804   7.622  0.5244  0.5281 -0.2078
   75MOL    O3322381   0.963   2.885   7.537  0.1574  0.6252 -0.5256
   75MOL    C3422382   0.976   3.018   7.542  0.1281 -0.0260  0.1109
   75MOL    O3522383   1.065   3.084   7.600 -0.4667  0.1474  0.1649
   75MOL    C3622384   0.872   3.098   7.468  0.0245  0.2121 -0.2256
   75MOL    C3722385   0.935   3.203   7.376  0.1335  0.8997  0.6004
   75MOL    C3822386   0.958   2.716   7.722 -0.2375 -0.7560  0.4804
   75MOL    H3922387   1.113   2.863   7.687  0.6927 -0.8936  0.9483
   75MOL    H4022388   0.812   3.027   7.411  1.1494 -2.4347  1.7941
   75MOL    H4122389   0.817   3.151   7.545  0.3028 -0.7764  0.6626
   75MOL    H4222390   0.991   3.162   7.292  0.3658 -0.8972  1.6126
   75MOL    H4322391   0.857   3.249   7.315 -1.5505 -2.5832  0.0443
   75MOL    H4422392   0.979   3.286   7.431  0.5074  2.7574 -2.3780
   75MOL    H4522393   0.883   2.779   7.770 -0.4053 -0.4774 -0.1374
   75MOL    H4622394   0.899   2.643   7.664  2.3716 -1.5808 -1.2178
   75MOL    C4722395   1.050   2.648   7.823  0.0469  0.0442  0.7161
   75MOL    O4822396   1.117   2.744   7.905  0.0384  0.4133 -0.4033
   75MOL    C4922397   1.056   2.822   0.047 -0.4583  0.7240  0.1845
   75MOL    O5022398   0.929   2.825   0.063  0.2267  0.1802  0.5161
   75MOL    C5122399   1.152   2.910   0.122 -0.1695  0.4298 -0.3594
   75MOL    C5222400   1.240   2.993   0.039 -0.4495  0.4666  0.2946
   75MOL    C5322401   0.980   2.543   7.919  0.1230  0.2023 -0.1287
   75MOL    H5422402   1.130   2.591   7.777 -0.8325 -1.1945  0.6757
   75MOL    H5522403   1.092   2.980   0.180 -2.2023 -0.4695 -1.3304
   75MOL    H5622404   1.205   2.842   0.188 -1.3582  0.6888  0.8808
   75MOL    H5722405   1.309   3.045   0.106  0.5913 -0.7458  0.2040
   75MOL    H5822406   1.288   2.930   7.909 -1.1399  0.4128 -0.0956
   75MOL    H5922407   1.182   3.073   7.939  0.4606  1.3124  0.6164
   75MOL    H6022408   1.058   2.498   0.036  0.6668 -0.5573 -1.3524
   75MOL    H6122409   0.906   2.597   0.032 -0.7593 -1.2901  0.1537
   75MOL    C6222410   0.889   2.420   7.864 -0.0572 -0.4673  0.3087
   75MOL    O6322411   0.777   2.478   7.808  0.0654  0.4079  0.2409
   75MOL    C6422412   0.657   2.455   7.867 -0.3451  0.5215 -0.3119
   75MOL    O6522413   0.635   2.392   0.022 -0.3820  0.4871 -0.0050
   75MOL    C6622414   0.537   2.527   7.806 -0.0410 -0.8584  0.3613
   75MOL    C6722415   0.563   2.599   7.673 -0.2328 -1.0223  0.4191
   75MOL    C6822416   0.947   2.323   7.752 -0.1829  0.3228  0.6786
   75MOL    H6922417   0.866   2.354   0.003  1.3597 -0.2418  0.8739
   75MOL    H7022418   0.457   2.454   7.800 -0.2200 -0.8100  2.1430
   75MOL    H7122419   0.488   2.597   7.873 -0.2765 -1.1711  0.5135
   75MOL    H7222420   0.476   2.660   7.649 -1.3390 -2.2048  1.3242
   75MOL    H7322421   0.649   2.666   7.670 -0.3395 -0.9223 -0.3378
   75MOL    H7422422   0.580   2.535   7.587 -1.2134 -0.6831 -0.0408
   75MOL    H7522423   0.879   2.242   7.727  1.0463 -0.2379 -0.9217
   75MOL    H7622424   0.965   2.383   7.663 -0.3271 -0.2928  0.2353
   75MOL    C7722425   1.079   2.258   7.779  0.4323 -0.3251  0.2678
   75MOL    O7822426   1.079   2.172   7.894 -0.0485 -0.2242  0.2097
   75MOL    C7922427   1.149   2.199   0.059 -0.4564 -0.0066 -0.1363
   75MOL    O8022428   1.227   2.292   0.073  0.2195  0.2473  0.1650
   75MOL    C8122429   1.110   2.102   0.176  0.1258  0.7201  0.1077
   75MOL    C8222430   0.963   2.059   0.172  0.1470  0.1646 -0.3807
   75MOL    C8322431   1.127   2.182   7.649  0.0886  0.9643 -0.1622
   75MOL    H8422432   1.148   2.342   7.790  0.6700 -0.0296 -3.0034
   75MOL    H8522433   1.179   2.021   0.155 -0.4712  0.4762 -0.9286
   75MOL    H8622434   1.142   2.163   0.261 -1.1594  1.0664  0.3469
   75MOL    H8722435   0.933   2.026   0.272  1.3659  1.5188  0.4472
   75MOL    H8822436   0.894   2.137   0.141 -2.0717 -1.1717  1.0479
   75MOL    H8922437   0.951   1.984   0.094 -0.9766 -2.1043  1.8740
   75MOL    H9022438   1.165   2.250   7.572  3.0340  1.1445  1.3831
   75MOL    H9122439   1.225   2.140   7.673 -0.3160 -0.4276 -0.8529
   75MOL    C9222440   1.032   2.075   7.586  0.8194 -0.1047  0.7550
   75MOL    O9322441   1.104   1.993   7.494  0.0933 -0.5652  0.1971
   75MOL    C9422442   1.090   2.002   7.364  1.2117  0.4503  0.1381
   75MOL    O9522443   1.025   2.085   7.305  0.5191  0.0410  0.5002
   75MOL    C9622444   1.168   1.895   7.292 -0.3277  0.0285 -0.0293
   75MOL    C9722445   1.314   1.915   7.295  0.0206  0.4381  0.5287
   75MOL    C9822446   0.963   1.982   7.674 -0.8587  0.0289  0.1579
   75MOL    H9922447   0.946   2.129   7.545  0.8534  0.3025  1.2077
   75MOL   H10022448   1.152   1.796   7.334 -2.0358  0.2640 -0.0832
   75MOL   H10122449   1.135   1.877   7.189  0.8258  1.2913 -0.6394
   75MOL   H10222450   1.346   1.915   7.399  2.1625  1.4012 -0.1036
   75MOL   H10322451   1.355   1.821   7.260  0.6072  1.2735 -1.0528
   75MOL   H10422452   1.332   2.009   7.244 -0.4957 -0.7792 -1.9520
   75MOL   H10522453   1.035   1.936   7.742  0.7681  1.9238 -0.2415
   75MOL   H10622454   0.906   2.030   7.753  0.2360 -1.9711  2.2123
   75MOL   C10722455   0.881   1.878   7.607  0.2523 -0.5549 -0.3411
   75MOL   O10822456   0.846   1.783   7.702 -0.1305  0.1610 -0.0341
   75MOL   C10922457   0.911   1.673   7.723 -0.2468  0.3260 -0.0586
   75MOL   O11022458   1.004   1.626   7.659  0.3695  0.0056  0.0648
   75MOL   C11122459   0.856   1.586   7.835  0.6632 -0.7309  0.1313
   75MOL   C11222460   0.771   1.657   7.941  0.3932 -0.1417 -0.7931
   75MOL   C11322461   0.753   1.931   7.545  0.7787 -0.7312  0.4072
   75MOL   H11422462   0.942   1.830   7.531  2.2530 -2.7501  2.5206
   75MOL   H11522463   0.795   1.515   7.780 -0.3947  1.7660 -2.0295
   75MOL   H11622464   0.930   1.535   7.896  1.3482  2.2600  1.9138
   75MOL   H11722465   0.756   1.592   0.083  1.4969 -0.7876 -1.0762
   75MOL   H11822466   0.825   1.746   0.031  0.5306 -0.1202 -1.0623
   75MOL   H11922467   0.674   1.690   7.906  0.2155  1.6016  1.2264
   75MOL   H12022468   0.664   1.884   7.587  0.3782 -0.8449 -0.5790
   75MOL   H12122469   0.742   2.038   7.560  0.1332 -0.7961  0.4187
   75MOL   C12222470   0.743   1.919   7.390  0.4000 -0.8005 -0.7015
   75MOL   O12322471   0.768   1.785   7.363 -0.1421 -0.1536  0.0507
   75MOL   C12422472   0.852   1.744   7.267 -0.0751 -0.2468 -0.0283
   75MOL   O12522473   0.894   1.817   7.176  0.5270  0.0254  0.2772
   75MOL   C12622474   0.885   1.597   7.259 -0.3039 -0.0671 -0.4395
   75MOL   C12722475   0.766   1.503   7.292  0.0686  0.1708 -0.2457
   75MOL   C12822476   0.609   1.949   7.326 -0.2543  0.2459  0.3551
   75MOL   H12922477   0.816   1.988   7.347 -0.0473  0.9277  1.1922
   75MOL   H13022478   0.935   1.572   7.165  1.7357  0.1250  0.5593
   75MOL   H13122479   0.961   1.570   7.332 -0.6504 -1.0511 -0.4360
   75MOL   H13222480   0.674   1.535   7.244  0.0843 -0.1350 -0.4838
   75MOL   H13322481   0.779   1.397   7.267  1.6744 -0.0155  1.2877
   75MOL   H13422482   0.747   1.496   7.399  0.9313  0.3686 -0.0741
   75MOL   H13522483   0.633   1.944   7.220 -0.8918 -4.7297  0.3388
   75MOL   H13622484   0.526   1.880   7.341  1.1734 -1.7417 -0.5276
   75MOL   C13722485   0.570   2.093   7.348 -0.3941  0.6965 -0.0317
   75MOL   O13822486   0.656   2.186   7.280 -0.2967  0.1707  0.7019
   75MOL   C13922487   0.758   2.254   7.343 -1.2347 -0.6148 -0.9177
   75MOL   O14022488   0.776   2.259   7.465 -0.5117  0.2685 -0.3538
   75MOL   C14122489   0.836   2.339   7.243  0.2011 -0.3373 -0.7137
   75MOL   C14222490   0.954   2.409   7.324 -0.1568 -0.1569  0.1871
   75MOL   C14322491   0.428   2.133   7.300 -0.5409 -0.1565  0.2830
   75MOL   H14422492   0.575   2.113   7.455 -0.8137 -3.1451  0.7949
   75MOL   H14522493   0.880   2.265   7.177  0.5082 -0.3200 -0.5252
   75MOL   H14622494   0.783   2.407   7.176 -0.5207  0.1313  0.3096
   75MOL   H14722495   1.018   2.336   7.375  1.2345  0.5621 -0.5049
   75MOL   H14822496   1.016   2.460   7.250  1.6044 -1.2700  0.8467
   75MOL   H14922497   0.916   2.472   7.405 -0.7302 -1.2279  0.7604
   75MOL   H15022498   0.419   2.240   7.282 -0.6833  0.6773  4.6427
   75MOL   H15122499   0.414   2.082   7.205 -0.7740  1.2779 -0.4555
   75MOL   C15222500   0.308   2.081   7.387 -0.3538  0.4380 -0.2572
   75MOL   O15322501   0.320   2.135   7.525  0.1817  0.3655 -0.0491
   75MOL   C15422502   0.259   2.067   7.628  0.4438 -1.3892  0.2140
   75MOL   O15522503   0.194   1.964   7.623 -0.9010 -0.2302 -0.0026
   75MOL   C15622504   0.276   2.137   7.762  0.3883 -0.6638  1.1719
   75MOL   C15722505   0.231   2.287   7.760  0.0181  0.1477  0.3797
   75MOL   C15822506   0.168   2.110   7.328  0.5855  0.3840 -0.0767
   75MOL   H15922507   0.326   1.973   7.392 -0.8524  0.1671 -3.2001
   75MOL   H16022508   0.221   2.080   7.837 -3.3215 -0.5415 -1.3314
   75MOL   H16122509   0.379   2.130   7.797  1.1120  2.2862 -0.1478
   75MOL   H16222510   0.222   2.334   7.858  0.2788  1.1664 -0.0733
   75MOL   H16322511   0.297   2.343   7.693  1.1565  0.7425  1.9531
   75MOL   H16422512   0.133   2.288   7.712 -0.3029 -0.8909  1.0091
   75MOL   H16522513   0.100   2.068   7.402  0.7601 -2.1295 -1.2779
   75MOL   H16622514   0.137   2.214   7.317 -3.5622 -0.8911 -1.5724
   75MOL   C16722515   0.149   2.036   7.194 -0.2518 -1.2725  0.2635
   75MOL   O16822516   0.195   1.903   7.212  0.2517 -0.5318  0.1572
   75MOL   C16922517   0.288   1.855   7.122  0.0167  0.2909  0.7033
   75MOL   O17022518   0.337   1.927   7.034 -0.0047  1.3651  0.4911
   75MOL   C17122519   0.310   1.700   7.137 -0.8109 -0.8384 -0.2409
   75MOL   C17222520   0.457   1.666   7.130  0.3108 -0.0936  0.6132
   75MOL   C17322521   0.009   2.036   7.142 -0.6645 -0.1280  0.4780
   75MOL   H17422522   0.208   2.096   7.124 -3.4221  0.5272 -0.9623
   75MOL   H17522523   0.272   1.658   7.230 -0.4788  0.0463  0.3093
   75MOL   H17622524   0.276   1.651   7.046 -0.4399 -0.1613 -0.7469
   75MOL   H17722525   0.515   1.706   7.047 -1.1443 -1.1887 -0.9553
   75MOL   H17822526   0.507   1.692   7.224  0.7602  0.5397  0.2018
   75MOL   H17922527   0.465   1.558   7.124  1.2136  0.0908 -2.4098
   75MOL   H18022528   0.012   1.968   7.057 -1.5834  0.6268 -0.1864
   75MOL   H18122529   7.884   1.991   7.212 -0.7076  0.6947  0.9723
   75MOL   C18222530   7.898   2.172   7.095 -0.6583 -0.3934  0.5352
   75MOL   O18322531   0.036   2.221   6.989 -0.0103  0.0754  0.5612
   75MOL   C18422532   0.083   2.348   6.992  0.3287 -0.0474  0.0924
   75MOL   O18522533   0.062   2.433   7.076 -0.1828  0.2640  0.2200
   75MOL   C18622534   0.167   2.374   6.872  0.6724 -0.1744 -0.5460
   75MOL   C18722535   0.250   2.506   6.874  0.3350  0.5378 -0.1348
   75MOL   C18822536   7.752   2.156   7.047  0.2322 -0.0800 -0.1920
   75MOL   H18922537   7.890   2.233   7.185  0.7515  0.7746 -0.1174
   75MOL   H19022538   0.236   2.290   6.872 -0.2332 -0.9251  0.4647
   75MOL   H19122539   0.107   2.367   6.782  1.4679 -1.2011 -0.9980
   75MOL   H19222540   0.332   2.493   6.945 -0.7404 -0.4392  0.9405
   75MOL   H19322541   0.300   2.528   6.780  3.7639 -2.6533  0.7948
   75MOL   H19422542   0.182   2.587   6.901 -0.6624 -0.3018 -0.0955
   75MOL   H19522543   7.742   2.097   6.956  0.8544 -0.4580 -0.0130
   75MOL   H19622544   7.689   2.110   7.123  0.3675 -1.5393 -0.9435
   75MOL   C19722545   7.698   2.291   7.007 -0.4186  0.8812  0.2316
   75MOL   O19822546   7.567   2.256   6.959  0.5085 -0.2273 -0.2273
   75MOL   C19922547   7.537   2.245   6.829  0.1590  0.0780  0.3153
   75MOL   O20022548   7.621   2.234   6.740 -0.2286 -0.2517  0.0338
   75MOL   C20122549   7.385   2.241   6.791  0.1315 -0.8256 -0.4812
   75MOL   C20222550   7.345   2.105   6.760  0.1135 -0.1985 -0.3142
   75MOL   C20322551   7.667   2.398   7.117 -0.0688  0.5907  0.3669
   75MOL   H20422552   7.752   2.338   6.924 -1.7449  2.3732  0.1912
   75MOL   H20522553   7.322   2.284   6.868 -0.3280 -1.1580 -0.6728
   75MOL   H20622554   7.365   2.301   6.702  0.8081 -2.3603 -1.7027
   75MOL   H20722555   7.363   2.026   6.833 -0.0642  0.2275  0.1870
   75MOL   H20822556   7.236   2.097   6.765  0.1537 -1.1755 -0.8589
   75MOL   H20922557   7.391   2.055   6.674  0.0171 -1.9527  0.6328
   75MOL   H21022558   7.565   2.385   7.151  0.4979 -0.5133  1.7274
   75MOL   H21122559   7.742   2.393   7.197 -0.0286 -0.2168  0.2783
   75MOL   C21222560   7.685   2.536   7.059 -0.0283 -0.4962  0.0489
   75MOL   O21322561   7.639   2.564   6.927 -0.1365 -0.0013 -0.4417
   75MOL   C21422562   7.714   2.631   6.835  0.2836  0.3355  0.0579
   75MOL   O21522563   7.832   2.660   6.859  0.8821  1.0051  0.1894
   75MOL   C21622564   7.639   2.665   6.708  0.1874 -0.2634 -0.2641
   75MOL   C21722565   7.708   2.761   6.606  0.5868 -0.4157  0.5679
   75MOL   C21822566   7.624   2.646   7.152 -0.2101  0.1176  0.5932
   75MOL   H21922567   7.793   2.552   7.055 -0.1201 -0.4137 -3.5239
   75MOL   H22022568   7.623   2.571   6.655 -2.3883  0.2728 -0.4670
   75MOL   H22122569   7.538   2.695   6.735 -0.4372 -3.4228  1.1213
   75MOL   H22222570   7.647   2.795   6.523  1.1715 -0.0043  0.3083
   75MOL   H22322571   7.735   2.849   6.664  0.9192 -1.3987  1.9305
   75MOL   H22422572   7.800   2.715   6.570  1.0615  1.2379 -0.3870
   75MOL   H22522573   7.520   2.661   7.121 -0.3112 -0.9985  0.3714
   75MOL   H22622574   7.615   2.601   7.251  0.5744 -0.9737  0.1749
   75MOL   C22722575   7.711   2.773   7.156  0.0581 -0.1781 -0.2051
   75MOL   O22822576   7.636   2.861   7.238  0.6151  0.2802  0.0445
   75MOL   C22922577   7.577   2.971   7.195 -0.1556 -0.1213  0.6978
   75MOL   O23022578   7.578   3.003   7.076  0.2789 -0.0994  0.2484
   75MOL   C23122579   7.517   3.060   7.299 -0.5797 -0.1711 -0.4929
   75MOL   C23222580   7.430   3.178   7.244 -0.7579  0.4186  0.4083
   75MOL   C23322581   7.845   2.778   7.222 -0.3003  0.0178 -0.2523
   75MOL   H23422582   7.728   2.815   7.057 -0.1499 -1.8980 -0.9776
   75MOL   H23522583   7.460   2.995   7.365  1.1994 -0.2926  0.9609
   75MOL   H23622584   7.602   3.096   7.357  0.2657 -0.7039 -1.3888
   75MOL   H23722585   7.463   3.259   7.310  0.8226  0.5328 -0.5016
   75MOL   H23822586   7.462   3.208   7.144  0.6311 -0.3753  0.6044
   75MOL   H23922587   7.322   3.162   7.252 -1.0316 -0.2202 -3.5223
   75MOL   H24022588   7.835   2.769   7.330 -0.5216  1.8213 -0.1018
   75MOL   H24122589   7.891   2.686   7.186 -0.5840  0.1094 -0.8669
   75MOL   C24222590   7.942   2.893   7.177 -0.2029  0.1343  1.1178
   75MOL   O24322591   7.913   3.016   7.256 -0.2662 -0.2284  0.5499
   75MOL   C24422592   7.932   3.136   7.196  0.1747  0.4078 -0.1099
   75MOL   O24522593   0.029   3.161   7.084  0.1765  0.1625 -0.2939
   75MOL   C24622594   7.915   3.245   7.302 -0.2840  0.1728 -0.1584
   75MOL   C24722595   0.063   3.367   7.292  0.0950 -0.5155 -0.6839
   75MOL   C24822596   0.144   2.858   7.208  0.2677 -0.2663  0.3123
   75MOL   H24922597   7.924   2.920   7.073  2.0075 -1.7758  0.1941
   75MOL   H25022598   7.810   3.273   7.301 -0.1391  0.7758  0.9624
   75MOL   H25122599   7.937   3.196   7.396 -1.3490 -0.2865 -0.1516
   75MOL   H25222600   0.094   3.393   7.191  2.2572 -0.9619 -0.1788
   75MOL   H25322601   0.018   3.448   7.349  1.6223  0.5364 -0.9348
   75MOL   H25422602   0.161   3.336   7.328  1.1398  0.5018 -2.5663
   75MOL   H25522603   0.158   2.770   7.146  1.5832 -0.0807  0.3282
   75MOL   H25622604   0.199   2.935   7.153  2.4730 -3.2792 -1.8021
   75MOL   C25722605   0.195   2.839   7.352  0.0050  0.5271 -0.6067
   75MOL   O25822606   0.301   2.744   7.346 -0.3716 -0.3772 -0.2812
   75MOL   C25922607   0.269   2.619   7.384  0.2487  0.6589 -0.4665
   75MOL   O26022608   0.162   2.578   7.426  0.0932  0.0720 -0.3626
   75MOL   C26122609   0.391   2.525   7.362  0.1696  0.9586  0.8398
   75MOL   C26222610   0.408   2.504   7.213 -0.0606  0.0048  0.3205
   75MOL   C26322611   0.251   2.965   7.424 -0.5030  0.7574 -0.7678
   75MOL   H26422612   0.102   2.813   7.401  1.1609 -1.0293  0.8426
   75MOL   H26522613   0.477   2.570   7.411  2.6442  0.6962 -3.0413
   75MOL   H26622614   0.363   2.438   7.422  2.6254  0.2567  1.0143
   75MOL   H26722615   0.332   2.434   7.177  0.0591  0.7756 -1.4846
   75MOL   H26822616   0.401   2.601   7.164 -0.0538  0.4908  1.2646
   75MOL   H26922617   0.503   2.458   7.187 -0.4108  0.1475 -1.2514
   75MOL   H27022618   0.335   3.009   7.370  1.3017  0.0631  1.3915
   75MOL   H27122619   0.173   3.039   7.408  1.0359  1.6223 -4.9772
   75MOL   C27222620   0.286   2.937   7.567  0.3116  0.0614 -0.0559
   75MOL   O27322621   0.365   3.052   7.602 -0.1166  0.1728 -0.6738
   75MOL   C27422622   0.496   3.052   7.612 -0.1765 -0.6488  0.6698
   75MOL   O27522623   0.575   2.953   7.611 -0.7768  0.1054 -0.0854
   75MOL   C27622624   0.556   3.197   7.620  0.1440  0.2550  0.3107
   75MOL   C27722625   0.588   3.271   7.492 -0.0190 -0.3481 -0.7779
   75MOL   C27822626   0.171   2.910   7.669 -0.5548 -0.2751  0.6816
   75MOL   H27922627   0.346   2.847   7.557 -0.2528 -0.1569 -1.5829
   75MOL   H28022628   0.483   3.261   7.669 -1.0889 -1.9089  1.3548
   75MOL   H28122629   0.645   3.195   7.683 -0.2679 -1.0515  0.8527
   75MOL   H28222630   0.665   3.346   7.509 -0.3910  0.0110 -0.6623
   75MOL   H28322631   0.625   3.208   7.411  0.4914 -0.7526 -0.2378
   75MOL   H28422632   0.507   3.328   7.448 -0.3676 -0.5899 -0.4552
   75MOL   H28522633   0.132   3.008   7.695  1.1154  0.5355  0.1425
   75MOL   H28622634   0.091   2.848   7.628  1.3796 -1.9206 -0.7196
   75MOL   C28722635   0.223   2.839   7.796  0.6080 -0.1852 -0.3444
   75MOL   O28822636   0.157   2.905   7.903 -0.3184  0.0524 -0.6614
   75MOL   C28922637   0.218   2.999   0.030 -0.4680 -0.6208  0.4084
   75MOL   O29022638   0.317   3.070   0.001  0.4235  0.3389 -0.7594
   75MOL   C29122639   0.152   3.010   0.168 -0.4934 -0.0417 -0.2504
   75MOL   C29222640   0.175   2.885   0.257 -0.4995 -0.1384  0.7287
   75MOL   C29322641   0.221   2.683   7.810 -0.2612 -0.3994 -0.0754
   75MOL   H29422642   0.327   2.868   7.806  0.5882 -0.8928  2.5832
   75MOL   H29522643   0.207   3.096   0.206  0.8193  0.6061 -3.4239
   75MOL   H29622644   0.051   3.040   0.143 -0.6416  0.4271  0.9069
   75MOL   H29722645   0.276   2.847   0.268 -1.1640 -1.7475  1.4207
   75MOL   H29822646   0.128   2.911   0.352 -1.0227 -0.2011  0.4881
   75MOL   H29922647   0.112   2.802   0.226 -2.1390  0.5637  2.0865
   75MOL   H30022648   0.117   2.652   7.815 -0.5761  0.7356  0.8125
   75MOL   H30122649   0.276   2.642   7.725  0.4405 -1.0582  0.6838
   75MOL   H30222650   0.270   2.646   7.900 -0.3042  0.1188  0.1661
   76MOL     C122651   7.933   5.164   5.329  0.1069  0.0751 -0.6205
   76MOL     O222652   0.004   5.035   5.396 -0.1668  0.0110  0.7728
   76MOL     C322653   7.852   4.939   5.388 -0.7848  0.0333  0.4449
   76MOL     O422654   7.744   4.964   5.342  0.2132 -0.2815 -0.8142
   76MOL     C522655   7.900   4.799   5.428 -0.0448 -0.1958 -0.1812
   76MOL     C622656   7.941   4.775   5.580 -0.1147  0.5212 -0.2337
   76MOL     C722657   7.912   5.273   5.444  0.4164 -0.5317  0.1233
   76MOL     H822658   7.853   5.163   5.255 -2.6650 -2.5323  2.2309
   76MOL     H922659   7.825   4.727   5.395 -1.5716  0.7597  1.1682
   76MOL    H1022660   0.036   4.767   5.362  0.5995  2.2603 -0.6087
   76MOL    H1122661   7.858   4.792   5.649  0.4531 -0.7725  0.8000
   76MOL    H1222662   0.042   4.680   5.609 -0.5176  0.7801  1.2993
   76MOL    H1322663   0.074   4.845   5.611  1.8857 -0.9152 -1.8404
   76MOL    H1422664   7.823   5.252   5.503  0.4011  0.6753  0.5369
   76MOL    H1522665   0.063   5.258   5.494  1.2513  0.6379 -1.0887
   76MOL    H1622666   0.081   5.195   5.281 -0.5434  0.8165 -1.4131
   76MOL    C1722667   7.913   5.419   5.393  0.3481  0.2315 -0.4812
   76MOL    O1822668   7.780   5.464   5.379  0.4906 -0.5414  0.2515
   76MOL    C1922669   7.741   5.519   5.272 -0.2784 -0.1230  0.0240
   76MOL    O2022670   7.808   5.540   5.171 -0.2358 -0.0349 -0.0247
   76MOL    C2122671   7.589   5.536   5.281  0.1617  1.0506 -0.9218
   76MOL    C2222672   7.524   5.546   5.141 -0.2077  0.2440 -0.3545
   76MOL    C2322673   0.043   5.523   5.482  0.6980 -0.7604 -0.1225
   76MOL    H2422674   0.016   5.409   5.295  1.1680 -1.5213  0.0838
   76MOL    H2522675   7.551   5.454   5.343  0.9758  0.7862 -0.7661
   76MOL    H2622676   7.584   5.632   5.331 -0.2402  0.3779  0.3470
   76MOL    H2722677   7.415   5.545   5.154 -0.4333  0.3504 -2.1152
   76MOL    H2822678   7.549   5.636   5.085 -0.0896  0.3697 -0.1014
   76MOL    H2922679   7.542   5.450   5.092  1.0240 -0.0407  0.6279
   76MOL    H3022680   0.009   5.627   5.474  1.6321 -0.3942  0.4864
   76MOL    H3122681   0.026   5.488   5.584 -4.7555  0.8059 -0.3601
   76MOL    C3222682   0.199   5.531   5.458  0.0350 -0.3664 -0.8008
   76MOL    O3322683   0.227   5.598   5.337  0.4579  0.0747 -0.3594
   76MOL    C3422684   0.251   5.524   5.223 -0.3780  0.4146 -0.3058
   76MOL    O3522685   0.264   5.400   5.219 -0.0972 -0.0611 -0.3573
   76MOL    C3622686   0.264   5.606   5.102 -0.6850 -0.4263 -0.3136
   76MOL    C3722687   0.378   5.708   5.103 -0.4746  0.1807  0.4167
   76MOL    C3822688   0.272   5.614   5.571 -0.0972  0.2375  0.3835
   76MOL    H3922689   0.244   5.431   5.456 -0.4350 -0.5608 -1.6836
   76MOL    H4022690   0.293   5.538   5.022 -0.3826 -0.7159  0.0391
   76MOL    H4122691   0.167   5.653   5.087 -0.7554 -0.8383 -1.1373
   76MOL    H4222692   0.472   5.659   5.076 -2.1511 -1.8067 -2.0750
   76MOL    H4322693   0.358   5.785   5.029  0.1946  0.9159  0.9917
   76MOL    H4422694   0.395   5.767   5.193 -2.4516  2.5197 -0.7011
   76MOL    H4522695   0.377   5.625   5.544 -0.2567  1.3649  0.1573
   76MOL    H4622696   0.230   5.714   5.586 -0.7767 -0.0951  0.7065
   76MOL    C4722697   0.272   5.542   5.710 -0.4366 -0.0738 -0.4655
   76MOL    O4822698   0.337   5.413   5.691  0.0923  0.3701 -0.1189
   76MOL    C4922699   0.273   5.296   5.713 -0.7217  0.4186 -0.5017
   76MOL    O5022700   0.153   5.282   5.740  0.5256 -0.4882  0.1562
   76MOL    C5122701   0.372   5.179   5.711  0.8913  0.4036 -0.1697
   76MOL    C5222702   0.311   5.041   5.691  0.1410  0.1675 -0.2020
   76MOL    C5322703   0.355   5.608   5.815 -0.0015 -0.2148 -0.3239
   76MOL    H5422704   0.169   5.531   5.742 -0.1396  3.1021  1.8208
   76MOL    H5522705   0.435   5.195   5.624  1.6732  0.2194  0.3601
   76MOL    H5622706   0.425   5.186   5.806  1.6853 -0.5719 -0.5347
   76MOL    H5722707   0.392   4.971   5.670  0.2333  0.4436 -0.7989
   76MOL    H5822708   0.249   5.019   5.778 -1.0359 -1.7618 -1.4854
   76MOL    H5922709   0.247   5.039   5.602 -0.6040  2.8574  0.2176
   76MOL    H6022710   0.459   5.587   5.791 -0.0445 -0.5465 -0.2157
   76MOL    H6122711   0.348   5.717   5.814  0.7459 -0.1661 -0.3893
   76MOL    C6222712   0.326   5.551   5.954  1.3589 -0.1523 -0.2717
   76MOL    O6322713   0.447   5.552   6.040  0.1395 -0.1244  0.1556
   76MOL    C6422714   0.510   5.440   6.057 -0.4070  0.2039  0.8078
   76MOL    O6522715   0.483   5.334   5.995 -0.6018  0.1210  0.2141
   76MOL    C6622716   0.617   5.439   6.170  0.1510  0.4045  0.3221
   76MOL    C6722717   0.730   5.545   6.159 -0.2182 -0.7401 -0.2767
   76MOL    C6822718   0.216   5.635   6.026 -0.4008 -0.0589 -0.5327
   76MOL    H6922719   0.292   5.449   5.939 -2.8328  1.3603 -1.9202
   76MOL    H7022720   0.565   5.441   6.267  0.6293 -1.0263  0.6136
   76MOL    H7122721   0.672   5.345   6.171 -2.1502 -1.0095  3.0357
   76MOL    H7222722   0.789   5.527   6.069 -0.8638  1.6282 -1.2187
   76MOL    H7322723   0.687   5.644   6.141  2.0998  0.5821  1.1728
   76MOL    H7422724   0.799   5.548   6.243 -0.4100 -0.8550 -0.1133
   76MOL    H7522725   0.254   5.737   6.027  0.6145 -0.4394  0.9366
   76MOL    H7622726   0.119   5.650   5.978  0.3171  0.9048 -1.7096
   76MOL    C7722727   0.192   5.578   6.170 -0.4491 -0.2194  0.0909
   76MOL    O7822728   0.088   5.666   6.222 -0.3012 -0.4394  0.6348
   76MOL    C7922729   0.097   5.737   6.336 -1.2683 -0.0071  0.9363
   76MOL    O8022730   0.186   5.731   6.421  0.1192  0.4171  0.0989
   76MOL    C8122731   7.919   5.828   6.346 -0.3997 -0.1574 -0.4260
   76MOL    C8222732   7.932   5.936   6.459 -0.5414 -0.4106  0.0501
   76MOL    C8322733   0.137   5.437   6.172  0.5562 -0.5081  0.6030
   76MOL    H8422734   0.274   5.596   6.240  0.5401  0.2194 -1.1692
   76MOL    H8522735   7.914   5.899   6.264 -1.7715  0.9447  0.5741
   76MOL    H8622736   7.823   5.780   6.363  0.1154 -0.8607  0.5390
   76MOL    H8722737   7.878   6.031   6.452  1.6377  0.8443 -0.3434
   76MOL    H8822738   7.909   5.890   6.555 -0.3367 -0.8125 -0.0935
   76MOL    H8922739   0.087   5.974   6.481 -2.1302  3.1040  1.6291
   76MOL    H9022740   0.033   5.440   6.138  1.4651 -1.1946 -2.3948
   76MOL    H9122741   0.192   5.369   6.108 -0.8595 -1.6920  0.6203
   76MOL    C9222742   0.110   5.385   6.314  0.0381 -0.5540 -0.0867
   76MOL    O9322743   0.021   5.276   6.300 -0.3073  0.0524 -0.4062
   76MOL    C9422744   7.840   5.294   6.339  0.6313  0.3177  0.8040
   76MOL    O9522745   7.795   5.400   6.385  0.0939  0.2467 -0.2025
   76MOL    C9622746   7.746   5.184   6.302 -0.4078 -0.2381  0.1348
   76MOL    C9722747   7.778   5.047   6.350 -0.8399  0.9831 -0.8826
   76MOL    C9822748   0.242   5.321   6.367  0.5371  0.0174 -0.0752
   76MOL    H9922749   0.066   5.470   6.365 -3.5132 -2.7451  0.7050
   76MOL   H10022750   7.655   5.211   6.356  0.6425  2.3631  0.6535
   76MOL   H10122751   7.714   5.188   6.197 -1.0447  1.1507  0.3635
   76MOL   H10222752   7.864   5.019   6.290 -2.6099 -1.8486 -2.2143
   76MOL   H10322753   7.807   5.059   6.455  0.0821 -1.8860 -0.7475
   76MOL   H10422754   7.691   4.982   6.335 -1.4025  1.9084 -1.7191
   76MOL   H10522755   0.277   5.244   6.298 -0.8364  0.8272 -1.7353
   76MOL   H10622756   0.321   5.396   6.380  0.5911 -0.1353  0.4677
   76MOL   C10722757   0.223   5.264   6.515  0.8252  0.6512  0.1989
   76MOL   O10822758   0.349   5.220   6.566  0.1954 -0.4355 -0.0715
   76MOL   C10922759   0.391   5.098   6.539  0.1732 -0.2488 -0.3466
   76MOL   O11022760   0.334   5.014   6.473 -0.2439  0.4453  0.3404
   76MOL   C11122761   0.528   5.063   6.598  0.3624  0.4625 -0.2946
   76MOL   C11222762   0.535   5.069   6.748  0.2825  0.3883 -0.6593
   76MOL   C11322763   0.155   5.366   6.605 -0.6123 -0.7179  0.2038
   76MOL   H11422764   0.162   5.174   6.517 -1.1507  1.9678  0.0137
   76MOL   H11522765   0.555   4.962   6.566 -0.1773 -0.3887  1.7914
   76MOL   H11622766   0.594   5.141   6.560 -2.2270  2.5384 -0.6603
   76MOL   H11722767   0.511   5.173   6.774 -0.8140 -0.1059  0.3348
   76MOL   H11822768   0.470   5.004   6.806 -0.4519  1.6861 -0.0104
   76MOL   H11922769   0.636   5.064   6.789  0.8355  1.1785 -1.8911
   76MOL   H12022770   0.233   5.434   6.640 -1.1631 -0.1752  0.3888
   76MOL   H12122771   0.088   5.434   6.552 -0.4905 -0.0901  0.8540
   76MOL   C12222772   0.080   5.321   6.735 -0.9953 -0.1238 -0.4448
   76MOL   O12322773   7.920   5.226   6.705  0.1913  0.4444  0.0383
   76MOL   C12422774   7.811   5.229   6.774 -0.7069 -0.0591 -0.1976
   76MOL   O12522775   7.788   5.302   6.869 -0.3180  0.5781  0.0475
   76MOL   C12622776   7.696   5.142   6.711  0.2644  0.8723  0.5271
   76MOL   C12722777   7.571   5.122   6.799  0.2137  0.6622 -0.1194
   76MOL   C12822778   0.179   5.273   6.842 -0.0915 -0.5873  0.1549
   76MOL   H12922779   0.018   5.405   6.766 -0.4954 -0.3207  1.0944
   76MOL   H13022780   7.649   5.190   6.625 -0.8353 -0.7970  0.1854
   76MOL   H13122781   7.733   5.044   6.681 -1.8393  0.1376  0.2951
   76MOL   H13222782   7.581   5.028   6.854  0.5772  1.2077  0.7571
   76MOL   H13322783   7.562   5.202   6.873  0.5288 -1.3177  2.1189
   76MOL   H13422784   7.479   5.117   6.741  0.2062  0.4739 -0.0904
   76MOL   H13522785   0.135   5.194   6.903  0.7553  0.8450  2.7243
   76MOL   H13622786   0.264   5.227   6.791 -1.0405  1.5797 -3.5333
   76MOL   C13722787   0.224   5.381   6.937  0.4999  0.0192 -0.0697
   76MOL   O13822788   0.112   5.417   7.023  0.3364  0.0829  0.2799
   76MOL   C13922789   0.054   5.545   7.024 -0.0436  0.3854  0.6097
   76MOL   O14022790   0.094   5.633   6.949 -0.6729 -0.1697  0.4671
   76MOL   C14122791   7.883   5.566   7.122 -0.7265  0.0769  0.5130
   76MOL   C14222792   7.841   5.712   7.111 -0.3082 -0.0475 -0.0751
   76MOL   C14322793   0.343   5.325   7.017 -0.3374 -0.1896 -0.6457
   76MOL   H14422794   0.252   5.463   6.871 -3.6814 -0.2756 -2.4187
   76MOL   H14522795   7.811   5.489   7.097 -0.5370  0.3015 -0.7512
   76MOL   H14622796   7.913   5.534   7.222  2.1395  1.8924  0.3068
   76MOL   H14722797   7.814   5.733   7.008 -0.7668  2.1391  0.4496
   76MOL   H14822798   7.755   5.741   7.172 -0.0547  1.2691 -0.3286
   76MOL   H14922799   7.930   5.772   7.128  0.0792 -0.0764 -1.9535
   76MOL   H15022800   0.314   5.224   7.049  0.5954 -0.0242  0.7550
   76MOL   H15122801   0.419   5.304   6.941  0.3545  4.0353 -1.1929
   76MOL   C15222802   0.400   5.427   7.122  0.2466 -0.1728 -0.0871
   76MOL   O15322803   0.484   5.348   7.205  0.0822  0.1462  0.7814
   76MOL   C15422804   0.467   5.359   7.330 -0.0636 -0.0848  0.6419
   76MOL   O15522805   0.377   5.426   7.384 -0.2170  0.1019 -0.1987
   76MOL   C15622806   0.570   5.285   7.411 -0.1862  0.7470 -0.1906
   76MOL   C15722807   0.694   5.366   7.459  0.0170  0.1524 -0.1177
   76MOL   C15822808   0.492   5.532   7.061 -0.0882 -0.1562  0.0966
   76MOL   H15922809   0.319   5.481   7.171  0.6352  0.6894 -0.3748
   76MOL   H16022810   0.517   5.240   7.495 -0.6728 -2.0583 -1.9328
   76MOL   H16122811   0.601   5.201   7.350  0.0166  0.4807  0.2755
   76MOL   H16222812   0.769   5.303   7.506 -1.0065  0.5464  2.0902
   76MOL   H16322813   0.736   5.418   7.373 -0.9474  0.3778 -0.4566
   76MOL   H16422814   0.663   5.442   7.530  0.6349  0.1874  0.1152
   76MOL   H16522815   0.592   5.491   7.043 -0.0418  0.1331 -0.3096
   76MOL   H16622816   0.437   5.563   6.972  0.0273 -0.8261 -0.2134
   76MOL   C16722817   0.510   5.661   7.149 -0.4805  0.3024 -0.1590
   76MOL   O16822818   0.621   5.743   7.116  0.1182 -0.5264 -0.5617
   76MOL   C16922819   0.743   5.703   7.142  0.2412  0.8786  0.1417
   76MOL   O17022820   0.772   5.599   7.199  0.1717 -0.1493  0.0974
   76MOL   C17122821   0.846   5.806   7.091 -0.4072  0.8384  0.9220
   76MOL   C17222822   0.841   5.946   7.156  0.1061 -0.9415 -0.5217
   76MOL   C17322823   0.394   5.765   7.138  0.4730  0.1337  0.0513
   76MOL   H17422824   0.520   5.632   7.253 -2.0202  0.8501  0.1500
   76MOL   H17522825   0.947   5.766   7.092  0.3179  2.4100 -2.3117
   76MOL   H17622826   0.817   5.817   6.987  0.0771  0.6239  0.7640
   76MOL   H17722827   0.818   5.938   7.263  1.7790 -3.2675 -0.2909
   76MOL   H17822828   0.934   5.998   7.134  0.5233 -0.5042  2.1374
   76MOL   H17922829   0.760   6.005   7.114  1.2463  0.1839 -1.1616
   76MOL   H18022830   0.387   5.819   7.044 -2.8526 -1.2012 -0.5472
   76MOL   H18122831   0.305   5.702   7.143 -0.4954  1.4520 -0.2726
   76MOL   C18222832   0.383   5.862   7.253  0.4498 -0.6006  0.0374
   76MOL   O18322833   0.463   5.982   7.231 -0.5210  0.4591 -0.1130
   76MOL   C18422834   0.502   6.060   7.334 -0.2225 -0.0200  0.8417
   76MOL   O18522835   0.464   6.043   7.448  0.0487  0.0048 -0.3041
   76MOL   C18622836   0.589   6.175   7.295  0.2024  0.9401  0.1421
   76MOL   C18722837   0.512   6.276   7.207  0.3137  0.5563 -0.2010
   76MOL   C18822838   0.235   5.894   7.274  0.6063 -0.0899  0.0231
   76MOL   H18922839   0.421   5.821   7.346  1.8153 -1.1834 -0.7631
   76MOL   H19022840   0.630   6.219   7.386  0.5981 -2.1301  1.5260
   76MOL   H19122841   0.672   6.132   7.238 -1.8287 -1.9004 -0.7625
   76MOL   H19222842   0.428   6.308   7.269 -0.3672 -0.4766 -0.5823
   76MOL   H19322843   0.578   6.357   7.177 -0.0595  1.4587  1.3668
   76MOL   H19422844   0.471   6.231   7.117 -0.2608 -1.1471  0.8737
   76MOL   H19522845   0.167   5.809   7.264 -1.7717  2.0982 -3.6826
   76MOL   H19622846   0.234   5.927   7.378 -0.9663 -0.0289 -0.0106
   76MOL   C19722847   0.177   6.004   7.181  0.5876  0.1808 -0.5450
   76MOL   O19822848   0.152   5.965   7.046 -0.2004 -0.0119 -0.0281
   76MOL   C19922849   0.180   6.041   6.937 -0.6647  1.0152 -0.0225
   76MOL   O20022850   0.221   6.153   6.934  0.0038 -0.3389 -0.1842
   76MOL   C20122851   0.137   5.973   6.809  0.6240  0.3012 -0.0426
   76MOL   C20222852   0.239   5.872   6.759  0.9093 -0.0141 -0.3591
   76MOL   C20322853   0.053   6.070   7.250 -0.0566 -0.3120  0.2819
   76MOL   H20422854   0.256   6.080   7.184 -0.7509  1.5638 -0.0778
   76MOL   H20522855   0.046   5.915   6.829 -0.2883  2.5440  2.5933
   76MOL   H20622856   0.118   6.054   6.739  3.2854 -0.0229 -1.1966
   76MOL   H20722857   0.334   5.922   6.740  0.0430  1.2024 -1.5934
   76MOL   H20822858   0.261   5.795   6.833 -0.7176 -0.7976 -0.6733
   76MOL   H20922859   0.205   5.824   6.667  3.6290 -4.2725  0.7033
   76MOL   H21022860   7.907   6.014   7.228  0.0008  0.3137 -1.6959
   76MOL   H21122861   0.060   6.061   7.358  0.8824  2.0115  0.4467
   76MOL   C21222862   0.028   6.220   7.202  0.0788 -0.5932  0.5897
   76MOL   O21322863   7.847   6.259   7.261 -0.4169  0.1433 -0.7597
   76MOL   C21422864   7.768   6.347   7.194  0.0412  0.2901 -0.2215
   76MOL   O21522865   7.777   6.382   7.073  0.7289  0.5058 -0.4803
   76MOL   C21622866   7.655   6.388   7.286  0.4489 -0.4479  0.3371
   76MOL   C21722867   7.522   6.385   7.209 -0.4409 -0.0215  0.2210
   76MOL   C21822868   0.143   6.312   7.243  0.3288 -0.5946  0.0789
   76MOL   H21922869   0.012   6.224   7.095  0.9614 -1.1274  0.4345
   76MOL   H22022870   7.646   6.335   7.381 -1.6294  1.0743  1.0310
   76MOL   H22122871   7.664   6.491   7.320 -3.8796  0.7120 -1.6998
   76MOL   H22222872   7.444   6.332   7.263  0.5866 -3.3679 -1.4595
   76MOL   H22322873   7.498   6.490   7.188  1.2295  0.4908  0.7724
   76MOL   H22422874   7.530   6.330   7.115  1.3024 -0.0587  0.3791
   76MOL   H22522875   0.136   6.323   7.351 -2.8906 -0.0400 -0.1464
   76MOL   H22622876   0.243   6.281   7.212  0.7845 -0.4769  1.4117
   76MOL   C22722877   0.148   6.454   7.176 -0.1952 -0.0846  0.0981
   76MOL   O22822878   0.240   6.534   7.246  0.0146 -0.4344 -0.3180
   76MOL   C22922879   0.195   6.609   7.346 -0.2539  0.4666 -0.3636
   76MOL   O23022880   0.079   6.636   7.378 -0.4413  0.2698 -0.1784
   76MOL   C23122881   0.315   6.655   7.432  0.1572  1.0081  0.2410
   76MOL   C23222882   0.349   6.551   7.541  0.3684 -0.4195  0.2318
   76MOL   C23322883   0.174   6.462   7.018 -0.1180  0.5027 -0.3346
   76MOL   H23422884   0.048   6.495   7.192 -0.9118 -2.5171  2.2020
   76MOL   H23522885   0.405   6.662   7.371 -0.5738  1.6599 -0.7949
   76MOL   H23622886   0.301   6.753   7.477  3.2573  0.3116  2.8841
   76MOL   H23722887   0.368   6.461   7.483 -0.2639 -0.1956 -0.3430
   76MOL   H23822888   0.443   6.583   7.586 -0.2583  2.4811 -0.3990
   76MOL   H23922889   0.269   6.536   7.613 -1.7041  0.1477 -1.8728
   76MOL   H24022890   0.282   6.472   7.005 -0.0791 -0.4663 -0.8385
   76MOL   H24122891   0.139   6.371   6.968 -0.1617  0.1879  0.2717
   76MOL   C24222892   0.098   6.569   6.940  0.6152  0.1698  0.1167
   76MOL   O24322893   0.127   6.692   6.993 -0.5054 -0.3905 -0.2118
   76MOL   C24422894   0.025   6.781   7.018  0.1408  0.4209 -0.2424
   76MOL   O24522895   7.850   6.763   7.006 -0.3177 -0.3409  0.3320
   76MOL   C24622896   0.084   6.907   7.095  0.1075  0.5476  0.1004
   76MOL   C24722897   7.925   6.959   7.194  0.1887  0.3777 -1.0189
   76MOL   C24822898   0.138   6.584   6.796 -0.1444 -0.7236  0.1229
   76MOL   H24922899   7.936   6.550   6.948  0.5357 -0.0101 -1.1583
   76MOL   H25022900   0.183   6.885   7.134 -0.9397 -0.1691  2.4154
   76MOL   H25122901   0.096   6.990   7.026  1.8163  1.0845  1.0409
   76MOL   H25222902   0.017   7.037   7.260  3.3782 -1.8101 -0.0660
   76MOL   H25322903   7.827   6.984   7.154 -1.1828 -2.0316  0.7102
   76MOL   H25422904   7.912   6.880   7.268 -2.5134  0.9909 -0.8001
   76MOL   H25522905   0.081   6.517   6.731 -0.5310 -0.5375  0.2686
   76MOL   H25622906   0.088   6.670   6.753  0.3905  0.0996  1.1225
   76MOL   C25722907   0.292   6.574   6.766  0.8494 -0.6862  0.1519
   76MOL   O25822908   0.385   6.644   6.854  0.4269 -0.3099 -0.2162
   76MOL   C25922909   0.396   6.784   6.861  0.7586 -0.0859  0.8826
   76MOL   O26022910   0.341   6.865   6.785  0.0127  0.1826  0.2607
   76MOL   C26122911   0.486   6.833   6.972  0.0492 -0.7467 -0.8883
   76MOL   C26222912   0.463   6.766   7.107  0.0912  0.4487  0.0433
   76MOL   C26322913   0.337   6.430   6.743 -0.9314  0.9781  0.1603
   76MOL   H26422914   0.310   6.626   6.672  0.0259 -1.0337 -0.1989
   76MOL   H26522915   0.593   6.834   6.949  0.1856 -2.4410 -0.4131
   76MOL   H26622916   0.478   6.941   6.984  3.7321 -0.0437 -3.7930
   76MOL   H26722917   0.540   6.786   7.182  0.7855 -1.2472 -0.2061
   76MOL   H26822918   0.367   6.798   7.148 -0.5341 -3.4295  1.7808
   76MOL   H26922919   0.444   6.660   7.119  2.1256  0.0404 -0.2518
   76MOL   H27022920   0.433   6.402   6.786 -1.4522 -1.9238 -0.4740
   76MOL   H27122921   0.264   6.360   6.782  0.4990 -0.0317  1.0643
   76MOL   C27222922   0.346   6.389   6.599 -0.2018  0.0248 -0.0285
   76MOL   O27322923   0.219   6.412   6.540 -0.1944  0.2845 -0.1603
   76MOL   C27422924   0.158   6.308   6.466 -0.8183 -0.7589 -0.6363
   76MOL   O27522925   0.204   6.201   6.426 -0.3187 -0.1620 -0.2218
   76MOL   C27622926   0.013   6.358   6.418 -0.5138 -0.3530 -0.0902
   76MOL   C27722927   7.930   6.321   6.277  0.5922 -0.3161  0.3164
   76MOL   C27822928   0.462   6.456   6.519  0.3426  0.2138 -0.0517
   76MOL   H27922929   0.377   6.284   6.597  2.4665  0.8120 -1.7450
   76MOL   H28022930   7.875   6.324   6.480  0.5228 -3.2116 -0.1722
   76MOL   H28122931   0.023   6.466   6.422  1.2723 -0.4950 -0.0544
   76MOL   H28222932   7.929   6.214   6.255 -2.7238  0.0615 -1.6783
   76MOL   H28322933   7.844   6.367   6.228  0.9738 -0.4456 -0.4836
   76MOL   H28422934   0.060   6.365   6.212 -0.5501  0.3685 -0.5481
   76MOL   H28522935   0.418   6.484   6.423 -1.5876 -1.5741  0.2716
   76MOL   H28622936   0.495   6.545   6.571  1.3284 -0.2301  0.0926
   76MOL   C28722937   0.584   6.368   6.484 -0.8047  0.7454 -0.2808
   76MOL   O28822938   0.547   6.241   6.434  0.4461  0.1678  0.1540
   76MOL   C28922939   0.631   6.126   6.461 -0.1796 -0.3570 -0.0298
   76MOL   O29022940   0.735   6.137   6.520 -0.2760 -0.4238 -0.5655
   76MOL   C29122941   0.593   6.002   6.382 -0.2083  0.0905  0.2569
   76MOL   C29222942   0.459   5.958   6.410  0.2692 -0.5415 -0.2945
   76MOL   C29322943   0.673   6.439   6.379 -0.2441  0.1558  0.5420
   76MOL   H29422944   0.640   6.359   6.577  1.4185 -3.8706 -1.9215
   76MOL   H29522945   0.598   6.030   6.277 -1.9687 -1.7537 -0.3441
   76MOL   H29622946   0.659   5.914   6.380  0.3715  0.5432 -2.2291
   76MOL   H29722947   0.432   5.867   6.358 -2.1671  1.5346 -2.7999
   76MOL   H29822948   0.457   5.939   6.518  0.8376 -0.1354 -0.2044
   76MOL   H29922949   0.388   6.036   6.384  0.9895  0.1013 -0.3825
   76MOL   H30022950   0.631   6.450   6.279  1.5282  0.4120 -0.1938
   76MOL   H30122951   0.701   6.540   6.409 -0.6273  1.2466 -2.5910
   76MOL   H30222952   0.769   6.388   6.372  0.2178  0.8038  1.9559
   77MOL     C122953   5.298   3.935   5.222  0.2450 -0.2830 -0.0285
   77MOL     O222954   5.217   3.946   5.106  0.1523 -0.2857  0.1256
   77MOL     C322955   5.284   3.935   4.990  0.3056 -0.0635  0.1530
   77MOL     O422956   5.406   3.939   4.978 -0.3055  0.2550  0.0752
   77MOL     C522957   5.195   3.927   4.873 -1.0072 -0.3047  0.1129
   77MOL     C622958   5.114   3.797   4.876  0.2634  0.5762  0.2285
   77MOL     C722959   5.240   4.032   5.340 -0.0021  0.6574  0.1817
   77MOL     H822960   5.397   3.969   5.192 -0.2767  1.2291 -0.0855
   77MOL     H922961   5.121   4.007   4.872 -1.8898 -1.1102 -1.3668
   77MOL    H1022962   5.258   3.936   4.784 -0.6896  0.5879  0.4154
   77MOL    H1122963   5.058   3.787   4.783 -2.8581  0.8148  1.9979
   77MOL    H1222964   5.174   3.708   4.895 -1.5038 -1.0885 -1.7040
   77MOL    H1322965   5.034   3.794   4.951  1.7202 -3.8409  1.7752
   77MOL    H1422966   5.246   4.137   5.310 -0.8786  0.8884  0.8106
   77MOL    H1522967   5.134   4.007   5.349 -0.1057  1.1791  0.4174
   77MOL    H1622968   5.309   3.832   5.255  0.0416 -0.1626  0.4179
   77MOL    C1722969   5.299   4.018   5.481  0.0604  0.5886 -0.1149
   77MOL    O1822970   5.246   4.131   5.546 -0.4503  0.8607  0.5325
   77MOL    C1922971   5.328   4.247   5.567  0.3267 -0.1956 -0.1783
   77MOL    O2022972   5.443   4.261   5.525 -0.2967 -0.0029 -0.0097
   77MOL    C2122973   5.247   4.366   5.622  0.1081 -0.4131 -0.6338
   77MOL    C2222974   5.144   4.412   5.517 -0.3150  0.2332  0.1334
   77MOL    C2322975   5.271   3.889   5.547 -0.2527 -0.0109  0.2984
   77MOL    H2422976   5.406   4.035   5.482 -0.1960  2.4662 -1.8116
   77MOL    H2522977   5.196   4.315   5.703  0.8216  0.6737  0.5154
   77MOL    H2622978   5.316   4.445   5.652  0.9788 -1.0937 -0.7993
   77MOL    H2722979   5.202   4.457   5.436  2.0595 -2.5315  0.2076
   77MOL    H2822980   5.084   4.333   5.472 -0.9640  1.5353 -1.3442
   77MOL    H2922981   5.069   4.487   5.544 -0.9533 -0.7213  1.0641
   77MOL    H3022982   5.168   3.887   5.583 -0.6177  1.5673 -0.6384
   77MOL    H3122983   5.276   3.807   5.474 -0.8403 -0.8861  1.2283
   77MOL    C3222984   5.379   3.853   5.658  0.3893 -0.7066 -0.2488
   77MOL    O3322985   5.345   3.939   5.770  0.0727 -0.3267  0.4134
   77MOL    C3422986   5.440   3.962   5.860  0.1938  1.0758 -0.0657
   77MOL    O3522987   5.550   3.907   5.865 -0.7690 -0.0907  0.5661
   77MOL    C3622988   5.393   4.059   5.970  0.3455 -1.2995 -0.1888
   77MOL    C3722989   5.490   4.095   6.089 -0.1122 -0.9485 -0.5972
   77MOL    C3822990   5.352   3.698   5.692 -0.5436 -0.5298 -0.1104
   77MOL    H3922991   5.476   3.878   5.615  1.4702  2.6344  3.7896
   77MOL    H4022992   5.363   4.158   5.935 -3.6059 -1.3792  2.6209
   77MOL    H4122993   5.298   4.024   6.010 -0.4612  0.2854 -0.6611
   77MOL    H4222994   5.592   4.120   6.061 -1.0321  0.6139 -2.6780
   77MOL    H4322995   5.443   4.177   6.144 -0.9263 -1.5831 -0.3374
   77MOL    H4422996   5.502   4.009   6.155 -2.0204  0.0327  1.0917
   77MOL    H4522997   5.395   3.679   5.790  0.0038  0.8834 -0.0699
   77MOL    H4622998   5.245   3.675   5.691 -1.0337  1.5373 -2.6943
   77MOL    C4722999   5.426   3.602   5.591  0.5326  0.1937 -0.3562
   77MOL    O4823000   5.372   3.605   5.462 -0.1435  0.1537 -0.3722
   77MOL    C4923001   5.302   3.505   5.410  0.3961 -0.5421  0.2051
   77MOL    O5023002   5.279   3.397   5.462  0.5518  0.0117 -0.2761
   77MOL    C5123003   5.254   3.543   5.269  0.4588 -0.3109  0.9250
   77MOL    C5223004   5.350   3.525   5.156 -0.2286 -0.1238 -0.1757
   77MOL    C5323005   5.577   3.626   5.589 -0.3319  0.0667  0.2229
   77MOL    H5423006   5.404   3.499   5.621 -0.8106  0.3525 -0.7674
   77MOL    H5523007   5.165   3.481   5.256  0.5492 -0.3578  0.5361
   77MOL    H5623008   5.226   3.649   5.273 -1.8787 -0.8616 -0.1104
   77MOL    H5723009   5.435   3.593   5.154 -0.9597  0.7865 -2.2710
   77MOL    H5823010   5.383   3.422   5.143  2.3187  0.7408 -0.7418
   77MOL    H5923011   5.301   3.557   5.064 -0.5880 -0.0666  0.0344
   77MOL    H6023012   5.610   3.568   5.503  0.8997 -0.2325  0.8894
   77MOL    H6123013   5.601   3.731   5.570  0.2543 -0.0782  0.1500
   77MOL    C6223014   5.651   3.587   5.713  0.3481 -0.5092  0.7250
   77MOL    O6323015   5.675   3.450   5.730 -0.0091 -0.2151 -0.0476
   77MOL    C6423016   5.621   3.388   5.835  1.0611 -0.1231 -0.9063
   77MOL    O6523017   5.562   3.440   5.928  0.5517 -0.2520  0.0741
   77MOL    C6623018   5.654   3.240   5.835  0.3664 -1.2778  0.3299
   77MOL    C6723019   5.644   3.170   5.700  0.5334  0.6478 -0.1090
   77MOL    C6823020   5.795   3.638   5.717  0.2283 -0.3090  0.1066
   77MOL    H6923021   5.601   3.632   5.799 -0.0809 -0.7602  0.6108
   77MOL    H7023022   5.758   3.241   5.868  0.2739 -0.7255  0.5988
   77MOL    H7123023   5.602   3.191   5.918  3.0766 -1.4457  1.9819
   77MOL    H7223024   5.663   3.063   5.712 -0.1884  0.6125  0.7752
   77MOL    H7323025   5.543   3.179   5.661 -0.3876 -1.1588  1.7547
   77MOL    H7423026   5.713   3.208   5.624 -0.6236 -0.3383 -1.6784
   77MOL    H7523027   5.851   3.592   5.637 -0.3530  0.6599 -0.8681
   77MOL    H7623028   5.798   3.744   5.693 -3.2974 -0.2041 -0.1107
   77MOL    C7723029   5.866   3.635   5.857 -0.0478 -0.2232  0.4135
   77MOL    O7823030   6.007   3.589   5.840 -0.0663 -0.4639 -0.2358
   77MOL    C7923031   6.041   3.460   5.820  0.7368  0.2544 -0.4539
   77MOL    O8023032   5.964   3.369   5.799 -0.1248  0.3632  0.4456
   77MOL    C8123033   6.193   3.438   5.842  0.2645  0.1465  0.5625
   77MOL    C8223034   6.262   3.462   5.704 -0.6093 -0.4466  0.6912
   77MOL    C8323035   5.861   3.772   5.931  0.5134 -0.1094  0.1124
   77MOL    H8423036   5.814   3.562   5.918  1.4390 -1.6230  0.0378
   77MOL    H8523037   6.233   3.509   5.914 -2.6194  0.2206  2.2046
   77MOL    H8623038   6.237   3.343   5.871  1.1267 -0.0798 -1.4297
   77MOL    H8723039   6.213   3.407   5.624  1.2447 -0.2398 -0.6104
   77MOL    H8823040   6.247   3.566   5.673  1.2821 -0.8989 -1.8768
   77MOL    H8923041   6.370   3.447   5.708 -0.9285 -2.8776  0.6782
   77MOL    H9023042   5.941   3.835   5.895  0.3209  0.9311  1.4676
   77MOL    H9123043   5.764   3.811   5.902  0.9115 -0.7571 -2.1853
   77MOL    C9223044   5.878   3.759   6.086 -0.4570 -1.1148  0.1438
   77MOL    O9323045   5.894   3.887   6.142 -0.0610  0.0008 -0.0373
   77MOL    C9423046   6.015   3.944   6.152  0.8345  0.3409 -0.4548
   77MOL    O9523047   6.122   3.882   6.135  0.1809  0.0640  0.0738
   77MOL    C9623048   6.013   4.086   6.204 -0.6787  0.5551  0.6814
   77MOL    C9723049   5.883   4.159   6.186  0.1000 -0.0288  0.0195
   77MOL    C9823050   5.750   3.699   6.149  0.8561  1.0879 -0.3727
   77MOL    H9923051   5.958   3.690   6.113  0.1040 -1.2283 -1.7574
   77MOL   H10023052   6.041   4.089   6.309 -1.2997 -1.6305  0.9396
   77MOL   H10123053   6.085   4.147   6.150 -1.5768 -1.1892 -2.6410
   77MOL   H10223054   5.837   4.140   6.089 -0.3482 -0.6920  0.3636
   77MOL   H10323055   5.808   4.131   6.260  0.5609 -2.2964 -0.3457
   77MOL   H10423056   5.898   4.267   6.194  0.2570 -0.1069  0.8151
   77MOL   H10523057   5.677   3.775   6.176 -0.7595 -0.6935  0.3219
   77MOL   H10623058   5.711   3.636   6.069  0.8577 -0.2413  0.6529
   77MOL   C10723059   5.768   3.612   6.277  0.2692 -0.4314 -0.1505
   77MOL   O10823060   5.774   3.700   6.391 -0.3833  0.0384  0.1557
   77MOL   C10923061   5.883   3.724   6.452  0.3866  0.9729 -0.4459
   77MOL   O11023062   5.998   3.679   6.432 -0.4223 -0.1755  0.0628
   77MOL   C11123063   5.868   3.834   6.560 -0.3167 -0.4567 -0.3784
   77MOL   C11223064   5.966   3.822   6.675 -0.9829 -0.0305 -0.1457
   77MOL   C11323065   5.653   3.513   6.283  0.0884 -0.0735 -0.1323
   77MOL   H11423066   5.865   3.571   6.249 -0.6664 -2.5066 -0.4932
   77MOL   H11523067   5.887   3.933   6.518 -0.4439  0.0277  0.6797
   77MOL   H11623068   5.767   3.835   6.601  1.1507 -2.9971  3.6053
   77MOL   H11723069   5.948   3.730   6.731 -4.1575  0.5540 -0.1062
   77MOL   H11823070   6.069   3.830   6.639 -0.3055  1.2683  1.9081
   77MOL   H11923071   5.941   3.902   6.746 -2.6604  0.4040 -1.2100
   77MOL   H12023072   5.557   3.558   6.308  1.7221  1.6165  3.5256
   77MOL   H12123073   5.640   3.472   6.183 -0.3969 -0.7266  0.1953
   77MOL   C12223074   5.670   3.396   6.385 -0.3179 -0.0756 -0.9522
   77MOL   O12323075   5.693   3.440   6.520 -0.0194 -0.2374 -0.0504
   77MOL   C12423076   5.766   3.367   6.599 -0.6061  0.0232 -0.4602
   77MOL   O12523077   5.796   3.248   6.582 -0.0962  0.1657  0.2416
   77MOL   C12623078   5.819   3.435   6.725 -0.5515  0.2232  0.2715
   77MOL   C12723079   5.971   3.417   6.725  0.8924 -0.3578  0.5194
   77MOL   C12823080   5.542   3.312   6.386 -0.2302  0.4155 -0.4075
   77MOL   H12923081   5.756   3.334   6.359  0.8714  1.1115  0.0746
   77MOL   H13023082   5.777   3.536   6.723 -1.0718  0.0055 -0.0069
   77MOL   H13123083   5.760   3.396   6.808  0.8922 -0.7267  0.8675
   77MOL   H13223084   6.022   3.484   6.795  0.5372  1.0358 -0.5250
   77MOL   H13323085   5.985   3.311   6.744  0.4972 -0.2963  1.1776
   77MOL   H13423086   6.010   3.445   6.628 -1.3199 -0.8784 -0.5494
   77MOL   H13523087   5.557   3.249   6.474  0.5235 -0.8485 -1.4146
   77MOL   H13623088   5.457   3.377   6.402 -0.5258 -0.4151  1.4727
   77MOL   C13723089   5.526   3.218   6.260  0.3193  0.1252 -0.5977
   77MOL   O13823090   5.623   3.116   6.268 -0.1860  0.4549 -0.0353
   77MOL   C13923091   5.740   3.120   6.195 -0.3397  0.3635  0.0904
   77MOL   O14023092   5.785   3.228   6.150  0.8704 -0.0628 -0.0632
   77MOL   C14123093   5.815   2.989   6.185 -0.1016 -0.3283 -0.2572
   77MOL   C14223094   5.778   2.901   6.063 -0.0147  0.0282 -0.3463
   77MOL   C14323095   5.390   3.159   6.254 -0.5855  0.3714  0.8177
   77MOL   H14423096   5.545   3.276   6.170  0.8190  0.1630 -0.4732
   77MOL   H14523097   5.919   3.019   6.173 -0.5963  0.9967 -1.4103
   77MOL   H14623098   5.807   2.934   6.279  1.0951  0.2157  0.1743
   77MOL   H14723099   5.799   2.959   5.972 -0.1536  0.8052  0.1113
   77MOL   H14823100   5.826   2.804   6.059  1.6438  0.8281 -0.0886
   77MOL   H14923101   5.672   2.874   6.059 -0.5287  2.0181 -0.7083
   77MOL   H15023102   5.387   3.085   6.334 -1.2500  1.6271  1.9908
   77MOL   H15123103   5.307   3.225   6.280 -1.1012 -0.9997  2.7439
   77MOL   C15223104   5.355   3.087   6.119  0.5864 -0.0336  0.3458
   77MOL   O15323105   5.242   2.996   6.129  0.2942  0.4217 -0.5019
   77MOL   C15423106   5.254   2.863   6.133  0.1822 -0.6976  0.1473
   77MOL   O15523107   5.360   2.796   6.120  0.6025 -0.2920  0.2502
   77MOL   C15623108   5.120   2.798   6.156  0.1577  0.0827 -0.2920
   77MOL   C15723109   5.114   2.691   6.263  0.3018  0.4479  0.0684
   77MOL   C15823110   5.323   3.180   6.007 -0.4309  0.1121 -0.1198
   77MOL   H15923111   5.435   3.024   6.079  1.4794 -0.6042  2.9122
   77MOL   H16023112   5.056   2.873   6.202  0.7656  0.8169 -0.6272
   77MOL   H16123113   5.077   2.760   6.064  0.0816  1.3168 -0.7798
   77MOL   H16223114   5.107   2.725   6.367  1.5013  0.8286  0.0328
   77MOL   H16323115   5.018   2.644   6.242  0.6177 -0.5859  0.8930
   77MOL   H16423116   5.186   2.611   6.247  0.1272  0.2073  0.4854
   77MOL   H16523117   5.392   3.264   6.005  0.0171 -0.2366  0.6514
   77MOL   H16623118   5.329   3.114   5.920  1.8072  0.7930 -0.5049
   77MOL   C16723119   5.180   3.249   5.998 -0.5841 -0.0112 -0.8889
   77MOL   O16823120   5.131   3.317   6.115 -0.0406  0.4631 -0.1082
   77MOL   C16923121   5.038   3.267   6.196 -0.5997 -0.0112 -0.0326
   77MOL   O17023122   4.975   3.161   6.178  0.0858 -0.5660  0.4347
   77MOL   C17123123   5.020   3.351   6.324  0.4456  0.0708  0.4794
   77MOL   C17223124   4.914   3.308   6.424  0.2297 -0.1635 -0.0332
   77MOL   C17323125   5.178   3.366   5.893  0.3668 -0.4713 -1.1491
   77MOL   H17423126   5.114   3.167   5.970  0.3510 -0.6108 -1.3826
   77MOL   H17523127   5.117   3.355   6.373 -0.3296  0.4085  2.0124
   77MOL   H17623128   4.996   3.452   6.291 -2.7914 -0.9708 -0.5732
   77MOL   H17723129   4.939   3.219   6.482 -0.2584 -2.0637 -2.6336
   77MOL   H17823130   4.896   3.395   6.487 -2.2606 -1.8957  1.7675
   77MOL   H17923131   4.827   3.275   6.367  0.2582  1.7212 -1.2026
   77MOL   H18023132   5.227   3.450   5.943 -2.3584 -0.3373  1.4405
   77MOL   H18123133   5.252   3.334   5.820  1.2692 -3.1622  0.8760
   77MOL   C18223134   5.040   3.391   5.837  0.0606 -0.5642 -0.2044
   77MOL   O18323135   5.022   3.528   5.824 -0.1025  0.0182  0.4654
   77MOL   C18423136   4.901   3.583   5.794  0.1198 -0.0812  0.8155
   77MOL   O18523137   4.802   3.525   5.757 -0.3439 -0.3795  0.2426
   77MOL   C18623138   4.906   3.733   5.793 -0.2735  0.6584 -0.0451
   77MOL   C18723139   4.976   3.781   5.915  0.1608 -0.1217  0.4859
   77MOL   C18823140   5.022   3.317   5.698 -0.2570  0.0692 -0.0442
   77MOL   H18923141   4.957   3.355   5.898  0.6558 -0.4964  0.6349
   77MOL   H19023142   4.956   3.766   5.702 -0.3212  1.4308  0.2026
   77MOL   H19123143   4.806   3.775   5.800 -0.2005  0.5439  1.9574
   77MOL   H19223144   5.079   3.745   5.916 -0.1412 -1.0213 -0.0099
   77MOL   H19323145   4.979   3.890   5.915 -1.4074 -0.0488 -1.4002
   77MOL   H19423146   4.916   3.748   5.999 -0.6194 -0.9822 -0.4067
   77MOL   H19523147   4.925   3.343   5.655 -1.1479 -2.3155  0.4487
   77MOL   H19623148   5.100   3.355   5.632 -2.3282 -0.0408 -2.6605
   77MOL   C19723149   5.033   3.164   5.704  0.3710 -0.1984  0.3468
   77MOL   O19823150   4.920   3.126   5.784  0.1172  0.1886 -0.3892
   77MOL   C19923151   4.923   3.019   5.862  0.6233 -0.0625 -0.3787
   77MOL   O20023152   5.023   2.943   5.871 -0.2832  0.1652  0.3658
   77MOL   C20123153   4.796   2.993   5.933 -0.3030 -0.0092 -0.3257
   77MOL   C20223154   4.794   2.870   6.020 -0.1472  1.3798  0.0944
   77MOL   C20323155   5.009   3.100   5.569 -0.0582  0.2569 -0.5270
   77MOL   H20423156   5.122   3.124   5.753  1.0958  1.3261  0.3182
   77MOL   H20523157   4.779   3.078   5.999 -1.7728  0.6834 -1.5758
   77MOL   H20623158   4.710   2.993   5.866 -1.3093  2.5834  0.8874
   77MOL   H20723159   4.839   2.782   5.973 -1.4094  1.1383 -0.6691
   77MOL   H20823160   4.843   2.877   6.118  1.4801 -0.3437 -0.5531
   77MOL   H20923161   4.694   2.831   6.038  0.7774 -0.9663  0.3975
   77MOL   H21023162   4.937   3.019   5.570 -1.2992  1.3211  1.9055
   77MOL   H21123163   4.974   3.180   5.503 -3.1781 -1.4105 -0.9821
   77MOL   C21223164   5.138   3.030   5.509 -0.2664 -0.6891  0.4198
   77MOL   O21323165   5.164   2.897   5.559 -0.0182  0.3269 -0.2243
   77MOL   C21423166   5.260   2.878   5.650  0.0757 -0.2200  0.0582
   77MOL   O21523167   5.338   2.967   5.686  0.0849 -0.6288 -0.8453
   77MOL   C21623168   5.266   2.735   5.704  0.6193 -0.1904  0.0884
   77MOL   C21723169   5.369   2.649   5.633 -0.6700  0.4012  0.3963
   77MOL   C21823170   5.124   3.020   5.361 -0.7241  0.2322 -0.6385
   77MOL   H21923171   5.228   3.090   5.519  0.5642 -1.8671  0.1384
   77MOL   H22023172   5.285   2.743   5.811 -1.9720 -0.6048  0.6172
   77MOL   H22123173   5.168   2.686   5.707  0.7415 -0.4865 -0.7851
   77MOL   H22223174   5.348   2.648   5.526  2.8159 -0.0528 -0.3223
   77MOL   H22323175   5.460   2.706   5.649  0.1711 -0.2715 -1.8322
   77MOL   H22423176   5.373   2.548   5.673  3.1017 -0.1505 -1.1595
   77MOL   H22523177   5.048   2.950   5.326  1.2133 -2.2620 -0.0021
   77MOL   H22623178   5.091   3.111   5.311  0.1303  1.0435  0.2391
   77MOL   C22723179   5.251   2.972   5.285  0.3510  0.0647  0.4407
   77MOL   O22823180   5.219   2.917   5.160 -0.4484  0.2052  0.4893
   77MOL   C22923181   5.203   2.782   5.148 -0.1204 -0.5864 -0.3059
   77MOL   O23023182   5.229   2.700   5.233 -0.8638  0.0721  0.2182
   77MOL   C23123183   5.144   2.737   5.019 -0.6149 -0.6189  0.3987
   77MOL   C23223184   4.994   2.739   5.016 -0.3841 -0.1793  0.2818
   77MOL   C23323185   5.352   3.078   5.265  0.1884 -0.1400  0.2663
   77MOL   H23423186   5.293   2.886   5.337 -1.2296 -0.9188  0.1524
   77MOL   H23523187   5.187   2.793   4.936 -0.4061 -1.3785 -0.0123
   77MOL   H23623188   5.181   2.637   4.996  3.6500  0.8847  0.2298
   77MOL   H23723189   4.952   2.829   5.060  0.5128  0.0006  0.7728
   77MOL   H23823190   4.952   2.731   4.916  0.9591 -0.0165 -0.2979
   77MOL   H23923191   4.962   2.648   5.068 -0.3000  0.5170  1.5602
   77MOL   H24023192   5.324   3.126   5.172  0.0882 -0.1318  0.3004
   77MOL   H24123193   5.355   3.162   5.335  0.6302 -0.1125  0.2116
   77MOL   C24223194   5.492   3.017   5.258 -1.1980  0.2258 -0.6964
   77MOL   O24323195   5.590   3.109   5.209  0.3636 -0.2025 -0.1669
   77MOL   C24423196   5.596   3.144   5.080 -0.7326  0.7362 -0.0623
   77MOL   O24523197   5.521   3.106   4.984  0.0701 -0.0130 -0.0668
   77MOL   C24623198   5.716   3.225   5.057 -0.0571  0.7616 -0.6999
   77MOL   C24723199   5.704   3.374   5.111  0.4641  0.4858 -0.0295
   77MOL   C24823200   5.534   2.951   5.398 -0.3830  0.8366 -0.2277
   77MOL   H24923201   5.485   2.937   5.184  1.8379 -1.1700  0.4499
   77MOL   H25023202   5.804   3.167   5.085 -1.1697 -0.2775  0.7052
   77MOL   H25123203   5.727   3.236   4.949  0.2994 -2.1612 -1.0007
   77MOL   H25223204   5.613   3.414   5.067  0.1647  0.7364  0.8080
   77MOL   H25323205   5.671   3.363   5.214 -1.0309  0.9009 -0.4502
   77MOL   H25423206   5.784   3.446   5.097  0.9851 -0.0480  0.1878
   77MOL   H25523207   5.554   3.031   5.469  1.2745 -1.0793  1.5241
   77MOL   H25623208   5.459   2.891   5.450  0.8137  0.2113  0.8174
   77MOL   C25723209   5.652   2.860   5.393 -0.6284  0.1613  0.2652
   77MOL   O25823210   5.693   2.840   5.531  0.1372  0.2595 -0.1668
   77MOL   C25923211   5.819   2.806   5.559  0.3353  0.2147  0.5649
   77MOL   O26023212   5.900   2.780   5.476 -0.5415  0.4863 -0.4390
   77MOL   C26123213   5.835   2.804   5.708  0.0945 -0.5897 -0.3623
   77MOL   C26223214   5.974   2.847   5.756  0.1014  0.3308 -0.2604
   77MOL   C26323215   5.601   2.730   5.322  0.3814  0.4533  0.3052
   77MOL   H26423216   5.722   2.915   5.330  1.2592  0.3171  2.4258
   77MOL   H26523217   5.759   2.863   5.759  2.8558  1.9876  0.9488
   77MOL   H26623218   5.810   2.699   5.728 -2.6636  0.3538  1.4549
   77MOL   H26723219   5.978   2.949   5.795  0.7691  0.2662 -0.1441
   77MOL   H26823220   6.010   2.778   5.833 -1.1553 -1.6747 -1.4099
   77MOL   H26923221   6.045   2.843   5.674 -0.1313  0.2830 -0.4584
   77MOL   H27023222   5.567   2.653   5.391  0.3799  0.3231  0.1577
   77MOL   H27123223   5.517   2.744   5.254  1.3075 -0.3144 -1.0234
   77MOL   C27223224   5.701   2.668   5.229  0.2211  0.1485  0.1331
   77MOL   O27323225   5.643   2.550   5.185 -0.1519  0.0823 -0.0629
   77MOL   C27423226   5.692   2.425   5.206 -0.3249 -0.1908  0.0871
   77MOL   O27523227   5.784   2.401   5.278  0.0144 -0.1219  0.4485
   77MOL   C27623228   5.626   2.317   5.126  0.0766 -0.3787  0.2686
   77MOL   C27723229   5.581   2.338   4.976 -0.4856  0.1885 -0.3360
   77MOL   C27823230   5.758   2.757   5.111  0.2074 -0.0445  0.4764
   77MOL   H27923231   5.793   2.638   5.280 -0.0205  0.8139  0.9656
   77MOL   H28023232   5.691   2.230   5.129  0.5405 -0.0061  1.1800
   77MOL   H28123233   5.540   2.267   5.171  0.5914 -1.3949  0.1300
   77MOL   H28223234   5.655   2.387   4.913 -0.0537  1.6926  1.2863
   77MOL   H28323235   5.547   2.244   4.934  0.5489 -0.5023  0.3630
   77MOL   H28423236   5.491   2.399   4.973  1.1565  2.6507 -3.7842
   77MOL   H28523237   5.673   2.775   5.046  1.7300  0.2076 -1.4828
   77MOL   H28623238   5.812   2.843   5.152 -0.1678  0.6279 -0.4364
   77MOL   C28723239   5.865   2.687   5.030 -0.2823  0.1910 -0.0090
   77MOL   O28823240   5.915   2.762   4.921 -0.3948  0.0819  0.3477
   77MOL   C28923241   5.874   2.743   4.799  0.2777  0.7728  0.3738
   77MOL   O29023242   5.814   2.641   4.762  0.1377  0.0207  0.2170
   77MOL   C29123243   5.913   2.861   4.714  0.3349  0.3904  0.6255
   77MOL   C29223244   5.907   2.991   4.797 -0.0815  0.1116  0.4490
   77MOL   C29323245   5.992   2.665   5.116  0.8319  0.2073  1.0499
   77MOL   H29423246   5.823   2.592   4.999  1.6335 -0.6164 -0.1710
   77MOL   H29523247   6.010   2.851   4.665 -0.3949 -0.1772 -0.7158
   77MOL   H29623248   5.842   2.860   4.632 -0.3787 -1.8714  1.2416
   77MOL   H29723249   5.995   2.990   4.861 -0.1554  1.9444  0.5843
   77MOL   H29823250   5.906   3.077   4.731 -1.6698 -0.1956  0.0367
   77MOL   H29923251   5.817   2.994   4.859 -0.5505 -1.0106 -0.1456
   77MOL   H30023252   5.981   2.624   5.217 -0.6958 -0.0665  0.7787
   77MOL   H30123253   6.063   2.604   5.062  1.1653  1.7735 -0.3191
   77MOL   H30223254   6.043   2.760   5.132 -0.0540  0.7453  0.7280
   78MOL     C123255   2.426   5.364   0.548 -0.4155  0.3496 -0.1074
   78MOL     O223256   2.538   5.409   0.626 -1.1275  0.4888 -0.1301
   78MOL     C323257   2.625   5.503   0.584  0.2763  0.8876  0.4928
   78MOL     O423258   2.634   5.537   0.467 -0.4764 -0.1661 -0.4430
   78MOL     C523259   2.704   5.567   0.692 -0.3894 -0.4683  0.0299
   78MOL     C623260   2.790   5.680   0.649 -0.0741  0.2030 -0.3955
   78MOL     C723261   2.437   5.218   0.492 -0.1031 -0.4991  0.4993
   78MOL     H823262   2.417   5.433   0.464 -2.8350  0.3247  0.1157
   78MOL     H923263   2.634   5.598   0.769 -0.7869  3.5225 -1.8208
   78MOL    H1023264   2.762   5.487   0.738 -2.6142 -1.3079  1.4683
   78MOL    H1123265   2.854   5.638   0.570  1.1622 -1.8576  1.6151
   78MOL    H1223266   2.731   5.759   0.603 -0.2496 -0.1522 -0.7899
   78MOL    H1323267   2.847   5.720   0.733 -1.5214 -0.1523  0.7787
   78MOL    H1423268   2.498   5.210   0.402  0.7512  1.5675  0.8706
   78MOL    H1523269   2.502   5.165   0.562 -1.4776  0.8019  2.8353
   78MOL    H1623270   2.329   5.373   0.597 -0.6042 -0.1865 -0.3877
   78MOL    C1723271   2.301   5.155   0.492 -0.8274 -0.0985 -0.2068
   78MOL    O1823272   2.225   5.217   0.382  0.5107 -0.9147 -0.1343
   78MOL    C1923273   2.109   5.291   0.389  0.3794 -0.1007 -0.1832
   78MOL    O2023274   2.048   5.319   0.493  0.5784 -0.2820 -0.0552
   78MOL    C2123275   2.077   5.353   0.254  0.4068 -0.6643 -0.6858
   78MOL    C2223276   2.192   5.446   0.214  0.0374  0.0022  0.4607
   78MOL    C2323277   2.301   5.005   0.468 -0.1733 -0.3341 -0.3939
   78MOL    H2423278   2.246   5.162   0.586  0.8810 -1.0531  0.8904
   78MOL    H2523279   2.054   5.270   0.187  0.8478 -1.5467  0.2495
   78MOL    H2623280   1.978   5.398   0.262 -0.2988 -2.0484 -1.5405
   78MOL    H2723281   2.160   5.506   0.129  0.2298 -0.7883 -0.1688
   78MOL    H2823282   2.222   5.506   0.300  0.3545  0.8842 -0.2571
   78MOL    H2923283   2.273   5.384   0.176  0.0738 -0.5359  1.3957
   78MOL    H3023284   2.202   4.986   0.425 -1.2726  0.7282  1.6143
   78MOL    H3123285   2.371   4.969   0.392 -0.0908 -0.4219 -0.2759
   78MOL    C3223286   2.314   4.918   0.591  0.3945 -0.1736 -0.3802
   78MOL    O3323287   2.184   4.936   0.661 -0.2673 -0.1108 -0.1756
   78MOL    C3423288   2.182   4.942   0.794  0.1152  0.0377 -0.2908
   78MOL    O3523289   2.271   4.922   0.870 -0.2364  0.4288 -0.8403
   78MOL    C3623290   2.041   4.983   0.847 -0.4875  0.0133 -0.1844
   78MOL    C3723291   2.006   5.133   0.837  0.5650  0.6029 -0.1861
   78MOL    C3823292   2.313   4.763   0.565 -0.0028 -0.6692  0.7021
   78MOL    H3923293   2.396   4.954   0.652 -1.9463  2.6335  1.2771
   78MOL    H4023294   1.963   4.928   0.794  0.4381 -0.7407 -0.7676
   78MOL    H4123295   2.035   4.941   0.948 -2.0098 -2.0549 -1.0948
   78MOL    H4223296   1.923   5.164   0.901  0.2395 -1.4923  0.4506
   78MOL    H4323297   2.087   5.203   0.860  1.0161  0.0788 -0.1772
   78MOL    H4423298   1.973   5.150   0.735 -0.2299 -2.2782 -0.4596
   78MOL    H4523299   2.282   4.704   0.652 -3.8994  0.3176  0.0993
   78MOL    H4623300   2.238   4.755   0.486 -0.1312 -1.1044  0.8669
   78MOL    C4723301   2.443   4.708   0.497  0.4283 -0.3491 -0.1061
   78MOL    O4823302   2.533   4.698   0.603 -0.3657 -0.4121  0.4507
   78MOL    C4923303   2.649   4.773   0.596 -0.9141 -0.2048  0.0224
   78MOL    O5023304   2.684   4.860   0.520  0.6316 -0.0849  0.1187
   78MOL    C5123305   2.737   4.714   0.710  0.6706 -0.0227 -0.0481
   78MOL    C5223306   2.884   4.766   0.715  0.3148  0.3512  0.6368
   78MOL    C5323307   2.416   4.570   0.438 -0.1780  0.1470  0.0055
   78MOL    H5423308   2.473   4.777   0.418  1.1102 -1.0015 -0.4139
   78MOL    H5523309   2.688   4.752   0.799 -0.1455 -1.5855  0.1859
   78MOL    H5623310   2.729   4.605   0.703  0.3520 -0.0249  0.3584
   78MOL    H5723311   2.937   4.705   0.789 -0.8340 -0.3375  0.9094
   78MOL    H5823312   2.931   4.749   0.618 -1.2953 -1.0505  0.0726
   78MOL    H5923313   2.895   4.873   0.730 -2.1332  0.4234  2.2132
   78MOL    H6023314   2.429   4.492   0.514 -2.6931 -0.6890 -0.3567
   78MOL    H6123315   2.309   4.571   0.414 -0.6203 -1.9251  1.6904
   78MOL    C6223316   2.505   4.536   0.313  0.1114 -0.9434  0.2461
   78MOL    O6323317   2.643   4.532   0.344  0.6311 -0.4654 -0.3915
   78MOL    C6423318   2.730   4.604   0.280  0.0371 -0.3159  0.7192
   78MOL    O6523319   2.710   4.691   0.198 -0.0305  0.1470 -0.2727
   78MOL    C6623320   2.871   4.579   0.333  0.7119  0.1998  0.0321
   78MOL    C6723321   2.950   4.475   0.247  0.3423  0.0624 -0.7573
   78MOL    C6823322   2.468   4.406   0.243 -0.6655  0.0600 -0.5993
   78MOL    H6923323   2.492   4.619   0.243 -0.5596  0.8774  2.4950
   78MOL    H7023324   2.924   4.674   0.342 -0.2484  0.7244  0.1983
   78MOL    H7123325   2.863   4.548   0.437 -0.8991  1.9182  0.4395
   78MOL    H7223326   3.044   4.448   0.296  0.5837 -0.3989 -1.4680
   78MOL    H7323327   2.888   4.389   0.222  0.3214 -0.2727  0.4216
   78MOL    H7423328   2.985   4.511   0.151  0.2872  1.8935 -0.1111
   78MOL    H7523329   2.537   4.393   0.160  0.4811  2.1993 -0.0144
   78MOL    H7623330   2.481   4.322   0.311  0.7532 -0.3964 -1.4150
   78MOL    C7723331   2.319   4.396   0.190 -0.3854 -0.5037 -0.0623
   78MOL    O7823332   2.314   4.478   0.078  0.2416  0.1031  0.7355
   78MOL    C7923333   2.202   4.536   0.029 -0.4762  0.2564 -0.5642
   78MOL    O8023334   2.091   4.531   0.075  0.0017 -0.0660  0.0962
   78MOL    C8123335   2.231   4.630   7.853 -0.7144 -0.2142 -0.4492
   78MOL    C8223336   2.314   4.563   7.741 -0.0518  0.1374  0.0778
   78MOL    C8323337   2.260   4.257   0.162 -0.7985 -0.0387 -0.0242
   78MOL    H8423338   2.256   4.442   0.266 -0.1195  0.7092 -0.5679
   78MOL    H8523339   2.141   4.680   7.817 -0.5116  1.2461  1.0355
   78MOL    H8623340   2.288   4.715   7.891  0.8274 -1.0332 -0.8944
   78MOL    H8723341   2.320   4.624   7.651 -2.5450 -0.9186 -0.8429
   78MOL    H8823342   2.412   4.537   7.780  0.0595 -0.2195 -0.4314
   78MOL    H8923343   2.276   4.469   7.701 -3.3394  1.0079  0.9581
   78MOL    H9023344   2.283   4.184   0.240  1.4312 -2.1046 -2.4923
   78MOL    H9123345   2.152   4.264   0.161 -0.8010  0.3325  1.3402
   78MOL    C9223346   2.315   4.203   0.032 -0.0474 -0.1635  0.1538
   78MOL    O9323347   2.452   4.166   0.058 -0.0185 -0.4063  0.5785
   78MOL    C9423348   2.545   4.188   7.902 -0.7884  0.4419 -0.9705
   78MOL    O9523349   2.526   4.256   7.804 -0.6015 -0.1429 -0.2287
   78MOL    C9623350   2.676   4.113   7.934  0.6002 -0.2221 -0.0961
   78MOL    C9723351   2.786   4.188   0.063 -0.2418 -0.7248  0.2708
   78MOL    C9823352   2.236   4.075   7.933 -0.1665 -0.2431 -0.0472
   78MOL    H9923353   2.301   4.285   7.907  1.6075  1.2990  1.4975
   78MOL   H10023354   2.637   4.035   0.055 -0.4672  0.2615 -0.1409
   78MOL   H10123355   2.709   4.069   7.839 -0.5463 -2.5998  0.5557
   78MOL   H10223356   2.837   4.264   0.004 -4.3056 -1.3856 -4.5100
   78MOL   H10323357   2.745   4.229   0.155 -0.6053  2.0835 -1.0931
   78MOL   H10423358   2.862   4.112   0.080  0.5470 -0.1430 -0.5827
   78MOL   H10523359   2.135   4.111   7.913  0.4637  0.7044 -1.6640
   78MOL   H10623360   2.281   4.034   7.843 -0.4397 -0.2592 -0.1763
   78MOL   C10723361   2.208   3.955   0.087  0.1549 -0.4774  0.3074
   78MOL   O10823362   2.091   3.989   0.158  0.2988 -0.4404  0.3500
   78MOL   C10923363   2.084   3.982   0.296  0.2543  0.3086 -0.3763
   78MOL   O11023364   2.182   3.977   0.372  0.4249  0.1462  0.0980
   78MOL   C11123365   1.941   3.995   0.351  0.1281  0.3914 -0.1751
   78MOL   C11223366   1.927   3.934   0.497 -0.5112 -0.1332  0.1901
   78MOL   C11323367   2.194   3.830   0.005 -0.2658  0.2083 -0.2461
   78MOL   H11423368   2.290   3.943   0.157 -0.4862  4.0534  1.9908
   78MOL   H11523369   1.919   4.102   0.350  2.5523  0.8936 -1.4350
   78MOL   H11623370   1.869   3.947   0.284 -1.7108  1.1966  1.1633
   78MOL   H11723371   2.005   3.979   0.558  0.5330 -0.8388 -0.6075
   78MOL   H11823372   1.831   3.956   0.543 -0.7750  1.2849 -1.0021
   78MOL   H11923373   1.922   3.825   0.507 -0.6096 -0.2909 -1.3502
   78MOL   H12023374   2.145   3.753   0.064 -1.4281  1.7532  0.8094
   78MOL   H12123375   2.125   3.850   7.868 -0.8247 -3.0035 -0.6357
   78MOL   C12223376   2.325   3.779   7.894  0.4918  0.0406  0.2927
   78MOL   O12323377   2.394   3.715   0.056 -0.4655  0.0363  0.3146
   78MOL   C12423378   2.529   3.714   0.070  0.2532 -0.0198  1.1401
   78MOL   O12523379   2.606   3.770   7.937  0.0875 -0.0799  0.1649
   78MOL   C12623380   2.576   3.647   0.195  1.0641  0.2693  0.3854
   78MOL   C12723381   2.690   3.706   0.269 -0.4064 -0.0218  0.3758
   78MOL   C12823382   2.307   3.666   7.786 -0.6977  0.1513 -0.6432
   78MOL   H12923383   2.386   3.861   7.854  1.4360 -0.3096  0.9870
   78MOL   H13023384   2.496   3.646   0.268  0.8705  0.5837  0.1758
   78MOL   H13123385   2.596   3.542   0.169 -1.8846  0.3958 -2.7965
   78MOL   H13223386   2.784   3.705   0.213 -0.2243  1.5478  0.6163
   78MOL   H13323387   2.676   3.811   0.295 -2.0135  0.3992 -2.0312
   78MOL   H13423388   2.699   3.658   0.366 -0.8378  0.2678  0.5600
   78MOL   H13523389   2.281   3.721   7.696 -2.6419 -1.0342 -0.8348
   78MOL   H13623390   2.408   3.626   7.773 -0.2775  1.0212 -0.1342
   78MOL   C13723391   2.211   3.547   7.810  0.0416  0.8573  0.4844
   78MOL   O13823392   2.089   3.587   7.753  0.5707 -0.1139 -0.0020
   78MOL   C13923393   1.982   3.551   7.817 -0.0075 -0.1789 -0.2398
   78MOL   O14023394   1.979   3.446   7.880  0.4424 -0.3821 -0.1947
   78MOL   C14123395   1.860   3.638   7.780  0.2481 -0.3742 -0.6559
   78MOL   C14223396   1.800   3.588   7.643 -0.7842 -0.4578 -0.0185
   78MOL   C14323397   2.272   3.418   7.731  0.8001  0.1903  0.5290
   78MOL   H14423398   2.203   3.526   7.917 -3.3886  1.4953  0.3970
   78MOL   H14523399   1.790   3.656   7.862 -1.1087 -2.0394 -1.4011
   78MOL   H14623400   1.900   3.739   7.772 -0.8795  0.1183 -0.2318
   78MOL   H14723401   1.746   3.493   7.653  1.0233 -1.3640  1.5618
   78MOL   H14823402   1.731   3.655   7.591 -0.3728 -0.2259 -0.2680
   78MOL   H14923403   1.873   3.582   7.563  1.0778  0.9625  1.5393
   78MOL   H15023404   2.194   3.345   7.710 -0.7523  2.6355 -2.5798
   78MOL   H15123405   2.302   3.441   7.629 -0.6482  0.7394  0.2160
   78MOL   C15223406   2.380   3.342   7.822 -0.7543 -0.2492 -1.2266
   78MOL   O15323407   2.314   3.279   7.932 -0.2703 -0.8892  0.0889
   78MOL   C15423408   2.354   3.307   0.112 -0.3602 -0.6912 -0.0494
   78MOL   O15523409   2.447   3.370   0.156  0.2127 -0.4896 -0.5723
   78MOL   C15623410   2.263   3.243   0.206  0.4891  0.5230  0.0641
   78MOL   C15723411   2.304   3.100   0.241 -0.1502  0.6439  0.1499
   78MOL   C15823412   2.450   3.224   7.745 -0.6593 -0.2306 -0.0112
   78MOL   H15923413   2.450   3.419   7.854 -1.2937  0.2722 -1.2939
   78MOL   H16023414   2.273   3.302   0.297  1.5678  1.2150 -0.4908
   78MOL   H16123415   2.159   3.254   0.178  0.5773  1.5409  0.1117
   78MOL   H16223416   2.315   3.041   0.150  3.4899  1.9446 -0.3670
   78MOL   H16323417   2.403   3.108   0.286  0.0594  0.8524 -0.3402
   78MOL   H16423418   2.232   3.054   0.308 -0.2600  0.3024 -0.1975
   78MOL   H16523419   2.520   3.173   7.811 -1.4952 -1.6410 -0.2167
   78MOL   H16623420   2.381   3.150   7.707 -1.3145  1.3278 -1.9343
   78MOL   C16723421   2.531   3.259   7.622  0.8681  0.3420 -0.8876
   78MOL   O16823422   2.636   3.343   7.670  0.0791 -0.2689 -0.5375
   78MOL   C16923423   2.645   3.472   7.640 -0.0085 -0.8896 -0.7317
   78MOL   O17023424   2.564   3.531   7.569 -0.2205 -0.6795  0.0062
   78MOL   C17123425   2.757   3.543   7.714 -0.4394  0.0580  0.3355
   78MOL   C17223426   2.880   3.452   7.718 -0.5644 -0.0205 -0.2645
   78MOL   C17323427   2.595   3.132   7.550  0.2129  0.1450  0.7590
   78MOL   H17423428   2.466   3.313   7.554  1.1892 -1.8291 -3.0092
   78MOL   H17523429   2.766   3.643   7.671 -0.5458 -0.5348 -1.0987
   78MOL   H17623430   2.738   3.573   7.817  1.1475 -1.0269  0.9715
   78MOL   H17723431   2.919   3.439   7.617 -0.4191  0.2777 -0.2485
   78MOL   H17823432   2.957   3.489   7.786  1.1369  1.0237 -2.7033
   78MOL   H17923433   2.860   3.353   7.759 -1.6767 -0.0622 -0.9099
   78MOL   H18023434   2.697   3.148   7.513 -0.4748 -1.1856 -1.7885
   78MOL   H18123435   2.612   3.054   7.624 -1.7694  0.6800  1.7987
   78MOL   C18223436   2.505   3.077   7.438  0.9420 -0.3008 -0.1362
   78MOL   O18323437   2.481   3.170   7.334  0.2780 -0.4443 -0.1176
   78MOL   C18423438   2.372   3.237   7.334  0.1561  0.0996  0.7712
   78MOL   O18523439   2.283   3.233   7.420  0.2069 -0.0923  0.6611
   78MOL   C18623440   2.364   3.348   7.232 -0.3162 -0.0515 -0.1765
   78MOL   C18723441   2.405   3.487   7.292  0.6146  0.1589 -0.0836
   78MOL   C18823442   2.559   2.937   7.384 -0.3316  0.1177  0.6293
   78MOL   H18923443   2.409   3.053   7.482  1.5466 -3.0402 -0.2000
   78MOL   H19023444   2.425   3.324   7.145  0.3777  0.9410  0.0289
   78MOL   H19123445   2.259   3.352   7.202 -0.1681  0.0778 -0.6730
   78MOL   H19223446   2.377   3.567   7.223  0.7801  0.1621 -0.1477
   78MOL   H19323447   2.359   3.506   7.389  1.6738  1.7673  0.1293
   78MOL   H19423448   2.513   3.500   7.293  0.3989  2.3540 -2.0151
   78MOL   H19523449   2.509   2.925   7.288 -1.7612  1.7255  1.1677
   78MOL   H19623450   2.667   2.951   7.374 -0.5916  0.7960 -1.5272
   78MOL   C19723451   2.526   2.800   7.459 -0.5282  0.3458  0.0286
   78MOL   O19823452   2.389   2.785   7.476 -0.2889 -0.2636 -0.4389
   78MOL   C19923453   2.319   2.813   7.594  0.3119  0.1123 -0.1100
   78MOL   O20023454   2.374   2.855   7.696  0.5044  0.4881  0.1249
   78MOL   C20123455   2.168   2.796   7.571  0.1861 -0.2036  0.4218
   78MOL   C20223456   2.122   2.667   7.506 -0.8481  0.5563  0.8883
   78MOL   C20323457   2.586   2.676   7.393 -0.0759 -0.1770 -0.4673
   78MOL   H20423458   2.576   2.829   7.552  0.2449  0.9743 -0.5683
   78MOL   H20523459   2.124   2.805   7.671 -1.8976  0.4361 -0.5234
   78MOL   H20623460   2.145   2.885   7.513  1.5357 -0.3738 -0.4091
   78MOL   H20723461   2.108   2.591   7.584  2.9131  0.7631  1.8510
   78MOL   H20823462   2.030   2.683   7.450 -1.2212 -0.9265  1.0611
   78MOL   H20923463   2.192   2.624   7.435 -1.3582  0.1097  0.6502
   78MOL   H21023464   2.510   2.628   7.331  0.9236 -2.2785 -0.1400
   78MOL   H21123465   2.665   2.715   7.328  1.0601 -0.2304  0.8538
   78MOL   C21223466   2.638   2.557   7.480  0.3584 -0.4677  0.2680
   78MOL   O21323467   2.529   2.506   7.548 -0.1478 -0.9078 -0.3868
   78MOL   C21423468   2.541   2.472   7.681 -0.1824 -0.1782 -0.3627
   78MOL   O21523469   2.650   2.476   7.748  0.7329  0.1364  0.1774
   78MOL   C21623470   2.410   2.438   7.759  0.1435 -0.0269  0.4970
   78MOL   C21723471   2.441   2.309   7.848 -0.2238  0.2266 -0.5838
   78MOL   C21823472   2.708   2.456   7.395 -0.2994  0.4640  0.1960
   78MOL   H21923473   2.711   2.607   7.543  1.7197 -3.2003  0.8952
   78MOL   H22023474   2.371   2.523   7.814 -1.3644 -0.6249  0.3854
   78MOL   H22123475   2.330   2.415   7.688 -0.1761  0.6094  0.6439
   78MOL   H22223476   2.359   2.278   7.913  1.0432  0.6675  1.2597
   78MOL   H22323477   2.468   2.221   7.790 -0.0750  0.3777 -0.7425
   78MOL   H22423478   2.513   2.328   7.927 -0.1155  2.9849 -1.3072
   78MOL   H22523479   2.692   2.361   7.446  0.7234  0.5570  0.7000
   78MOL   H22623480   2.656   2.449   7.299 -0.6057  2.1952  0.2041
   78MOL   C22723481   2.855   2.474   7.365  0.6053 -0.5660  0.2931
   78MOL   O22823482   2.932   2.459   7.484 -0.5167 -0.1221  0.6755
   78MOL   C22923483   2.989   2.564   7.549  0.0068  0.3623 -0.1024
   78MOL   O23023484   2.986   2.677   7.500 -0.1846  0.7197 -0.1294
   78MOL   C23123485   3.067   2.529   7.679  0.1923 -0.2014  0.6622
   78MOL   C23223486   3.193   2.454   7.642  0.0749  0.0749  0.1224
   78MOL   C23323487   2.910   2.372   7.268 -0.4992 -0.0063 -0.0803
   78MOL   H23423488   2.871   2.573   7.324 -0.0138 -0.2984  0.6928
   78MOL   H23523489   3.086   2.629   7.720 -2.0415  0.7830 -0.5763
   78MOL   H23623490   3.011   2.462   7.744  1.7968 -2.5982 -0.3502
   78MOL   H23723491   3.232   2.499   7.551  0.1860 -0.8472 -0.2864
   78MOL   H23823492   3.268   2.485   7.715  1.8482  1.0352 -2.0506
   78MOL   H23923493   3.184   2.347   7.625 -0.7863  0.7160 -3.8033
   78MOL   H24023494   2.883   2.278   7.316  0.2863  1.0512  2.4866
   78MOL   H24123495   2.851   2.386   7.177  0.5567 -0.1110 -0.7868
   78MOL   C24223496   3.061   2.383   7.233  0.0166 -0.0142  0.4997
   78MOL   O24323497   3.107   2.261   7.178  0.0634  0.2122  0.1650
   78MOL   C24423498   3.144   2.154   7.252  0.1144  0.9956  0.3183
   78MOL   O24523499   3.125   2.142   7.373  0.3789 -0.2270 -0.9778
   78MOL   C24623500   3.219   2.044   7.173  0.0303  0.3312  0.2077
   78MOL   C24723501   3.132   1.922   7.169  0.7712  0.6906  0.9479
   78MOL   C24823502   3.103   2.498   7.134  0.3262  0.4212 -0.2514
   78MOL   H24923503   3.108   2.395   7.331  0.9537 -0.3576  0.1059
   78MOL   H25023504   3.253   2.077   7.075  0.3984 -1.1244 -0.1605
   78MOL   H25123505   3.312   2.026   7.226  1.1658  1.6299 -1.3043
   78MOL   H25223506   3.181   1.836   7.123 -0.4634 -0.3113  1.4641
   78MOL   H25323507   3.100   1.892   7.269 -3.6462 -2.7823 -1.3494
   78MOL   H25423508   3.040   1.932   7.112  0.3598 -0.0100  1.4768
   78MOL   H25523509   3.093   2.471   7.029 -2.6706 -0.1556  0.1357
   78MOL   H25623510   3.044   2.588   7.150 -1.3046 -1.0806  2.7192
   78MOL   C25723511   3.243   2.547   7.153  0.3053  0.5767 -0.0890
   78MOL   O25823512   3.256   2.617   7.274 -0.7199 -0.4107  0.0222
   78MOL   C25923513   3.252   2.754   7.286 -0.9239  0.0858  0.0027
   78MOL   O26023514   3.239   2.830   7.187  0.1898 -0.1419 -0.6757
   78MOL   C26123515   3.258   2.800   7.429 -0.2369 -0.4606  0.3866
   78MOL   C26223516   3.390   2.863   7.473  0.1215 -0.1262  0.0551
   78MOL   C26323517   3.360   2.444   7.137 -0.1837  0.0475  0.1484
   78MOL   H26423518   3.253   2.622   7.074 -0.6207 -0.0994 -0.8671
   78MOL   H26523519   3.162   2.847   7.448 -0.6186 -0.3364 -1.7754
   78MOL   H26623520   3.260   2.718   7.501  1.1750 -0.5779  0.2354
   78MOL   H26723521   3.484   2.815   7.443  1.3263  0.9027  2.0604
   78MOL   H26823522   3.405   2.965   7.437 -2.7289  0.6273  0.9125
   78MOL   H26923523   3.400   2.880   7.580  0.4780 -0.5545  0.0929
   78MOL   H27023524   3.335   2.362   7.204 -0.4980  0.5632  0.6691
   78MOL   H27123525   3.374   2.390   7.043  1.6277 -3.2204  2.1892
   78MOL   C27223526   3.499   2.511   7.172 -0.3332 -0.2828 -0.3611
   78MOL   O27323527   3.596   2.409   7.177 -0.8551 -0.6594 -0.3866
   78MOL   C27423528   3.604   2.320   7.279  1.6853  0.0482  0.3542
   78MOL   O27523529   3.544   2.321   7.381  0.2391  0.2690 -0.2936
   78MOL   C27623530   3.705   2.210   7.244  0.0595 -0.6499 -0.1784
   78MOL   C27723531   3.783   2.170   7.369 -0.5096  0.3461 -0.6309
   78MOL   C27823532   3.546   2.618   7.070  1.1425 -0.4297 -0.1357
   78MOL   H27923533   3.492   2.557   7.271  0.7386  2.9783 -1.7261
   78MOL   H28023534   3.658   2.128   7.189 -3.1363  0.5345  0.6767
   78MOL   H28123535   3.771   2.253   7.169  0.1348 -0.1113  0.1921
   78MOL   H28223536   3.722   2.108   7.434  0.7856 -0.7684 -0.4489
   78MOL   H28323537   3.868   2.108   7.339 -0.5899  0.0052 -0.1516
   78MOL   H28423538   3.820   2.250   7.433  1.7046 -2.0875  1.2389
   78MOL   H28523539   3.564   2.568   6.975  0.7412 -2.3283  0.7524
   78MOL   H28623540   3.466   2.690   7.052  1.6396  0.2559  0.3991
   78MOL   C28723541   3.666   2.701   7.113  0.3856  0.2401 -0.1765
   78MOL   O28823542   3.779   2.621   7.083  0.1105 -0.1226  0.0089
   78MOL   C28923543   3.876   2.603   7.166  0.1732 -0.5638 -0.1182
   78MOL   O29023544   3.914   2.690   7.242  0.5052 -0.6887 -0.4342
   78MOL   C29123545   3.964   2.476   7.157 -0.0198  0.3039  0.8826
   78MOL   C29223546   4.034   2.441   7.288 -0.2680  0.0678  0.4429
   78MOL   C29323547   3.656   2.839   7.046 -0.4118 -0.0797  0.5909
   78MOL   H29423548   3.664   2.732   7.217  0.0325  1.1110 -0.4340
   78MOL   H29523549   3.898   2.395   7.125 -1.4082  1.6580  0.2177
   78MOL   H29623550   4.045   2.476   7.085 -0.2289 -1.9993  0.6276
   78MOL   H29723551   3.968   2.419   7.372 -1.1349 -0.0369 -0.2598
   78MOL   H29823552   4.083   2.345   7.272 -1.2472 -0.0775 -1.7935
   78MOL   H29923553   4.111   2.513   7.317 -1.7775  1.7160  0.4655
   78MOL   H30023554   3.661   2.844   6.937  1.2759 -2.2192  0.5402
   78MOL   H30123555   3.566   2.898   7.065 -0.6726 -0.9039  1.9449
   78MOL   H30223556   3.728   2.910   7.087  1.0621 -1.1904 -0.0183
   79MOL     C123557   4.766   7.374   1.865 -0.0822  0.9889  0.3173
   79MOL     O223558   4.655   7.438   1.814  0.0268  0.0065  0.0746
   79MOL     C323559   4.549   7.368   1.768  0.1846  0.4874 -0.3442
   79MOL     O423560   4.538   7.246   1.763 -0.3428 -0.2051 -0.4960
   79MOL     C523561   4.425   7.448   1.731 -0.0021 -0.1155  0.2062
   79MOL     C623562   4.401   7.570   1.827  0.1854 -0.5069 -0.1066
   79MOL     C723563   4.753   7.374   2.020 -0.1301 -0.2323 -0.5155
   79MOL     H823564   4.857   7.416   1.822  0.0294  1.5643  1.0989
   79MOL     H923565   4.435   7.486   1.630  0.1436  1.8811  0.9373
   79MOL    H1023566   4.345   7.378   1.754 -0.6681  0.0296 -1.6442
   79MOL    H1123567   4.315   7.633   1.805  0.6107  0.5139  1.1189
   79MOL    H1223568   4.385   7.550   1.933  0.2533  1.3977  0.2843
   79MOL    H1323569   4.478   7.647   1.825 -1.0981  0.7981 -3.1115
   79MOL    H1423570   4.754   7.481   2.042 -1.0388 -0.1576 -0.8357
   79MOL    H1523571   4.653   7.343   2.048 -0.0430 -0.9051 -0.9412
   79MOL    H1623572   4.767   7.272   1.827  4.2687  0.9599  0.2489
   79MOL    C1723573   4.862   7.305   2.103  0.1546 -0.0629 -0.4652
   79MOL    O1823574   4.851   7.352   2.240 -0.4314 -0.1800  0.2934
   79MOL    C1923575   4.959   7.422   2.296  0.0175  0.5540  0.2559
   79MOL    O2023576   5.070   7.445   2.253  0.4449 -0.4066  0.2335
   79MOL    C2123577   4.940   7.448   2.446 -0.0659 -0.0133  0.7297
   79MOL    C2223578   5.047   7.531   2.511 -0.2096  0.3930  0.0996
   79MOL    C2323579   4.846   7.153   2.096  0.0608 -0.3314  0.3482
   79MOL    H2423580   4.961   7.335   2.068  0.0325  2.3463  1.0588
   79MOL    H2523581   4.844   7.497   2.463  0.2467  1.0837 -0.5833
   79MOL    H2623582   4.944   7.345   2.482 -0.4537 -0.8647 -1.5930
   79MOL    H2723583   4.989   7.581   2.589 -0.4393 -0.2885  0.3625
   79MOL    H2823584   5.124   7.468   2.556  1.6022  1.1687 -1.8363
   79MOL    H2923585   5.099   7.602   2.446 -1.6053  1.3790  0.0417
   79MOL    H3023586   4.740   7.137   2.115 -0.1612 -2.0769 -2.1186
   79MOL    H3123587   4.867   7.128   1.992  0.6823  0.4963  0.2738
   79MOL    C3223588   4.937   7.077   2.194 -0.5818 -0.3650  0.1382
   79MOL    O3323589   4.891   6.945   2.208 -0.1743  0.2318  0.3458
   79MOL    C3423590   4.797   6.920   2.300  1.1478  0.8141  0.3035
   79MOL    O3523591   4.739   7.007   2.366 -0.1833 -0.0867 -0.6915
   79MOL    C3623592   4.767   6.779   2.326  0.0110 -0.4433  0.5275
   79MOL    C3723593   4.709   6.710   2.202  0.4819 -1.2473 -0.1143
   79MOL    C3823594   5.085   7.076   2.155 -0.3987 -0.0409  0.1400
   79MOL    H3923595   4.930   7.128   2.290 -2.9384 -0.1359 -0.1310
   79MOL    H4023596   4.864   6.739   2.355  0.9260  2.2635  1.2473
   79MOL    H4123597   4.690   6.781   2.404 -1.9330  1.0514 -1.3899
   79MOL    H4223598   4.706   6.603   2.222 -3.7741 -1.2443 -0.2809
   79MOL    H4323599   4.605   6.734   2.179  0.9761  0.3182 -0.7483
   79MOL    H4423600   4.779   6.715   2.118  0.1892  0.4776 -0.2762
   79MOL    H4523601   5.097   7.020   2.062  1.5596 -1.3395  1.1471
   79MOL    H4623602   5.107   7.178   2.124  0.7565 -0.2237  0.3351
   79MOL    C4723603   5.182   7.040   2.269  0.5889  0.6064  0.8520
   79MOL    O4823604   5.308   7.012   2.203 -0.2011  0.0344  0.1520
   79MOL    C4923605   5.371   6.906   2.236 -0.0535  0.3689 -0.8196
   79MOL    O5023606   5.334   6.816   2.312 -0.4918  0.3865  0.1894
   79MOL    C5123607   5.512   6.896   2.178 -0.1452 -0.3290  0.5227
   79MOL    C5223608   5.515   6.891   2.026 -0.1714  0.7946 -0.1323
   79MOL    C5323609   5.194   7.153   2.370  0.2154 -0.3220 -0.1606
   79MOL    H5423610   5.140   6.951   2.317  0.4395 -0.4803 -1.2543
   79MOL    H5523611   5.560   6.987   2.216  1.0404 -0.7901  0.1425
   79MOL    H5623612   5.564   6.812   2.224 -1.8975 -1.4029  0.5607
   79MOL    H5723613   5.428   6.936   1.976  0.0236  0.8197 -0.4537
   79MOL    H5823614   5.604   6.939   1.985  1.2576 -2.3329 -0.8216
   79MOL    H5923615   5.520   6.786   1.997  0.4770  0.8197 -0.1177
   79MOL    H6023616   5.232   7.246   2.328  1.4312 -0.7275  0.0104
   79MOL    H6123617   5.097   7.188   2.405  1.1369  1.5931  0.5058
   79MOL    C6223618   5.293   7.120   2.489  0.8926 -0.0828 -0.0501
   79MOL    O6323619   5.347   7.238   2.546 -0.0716 -0.1327  0.0422
   79MOL    C6423620   5.451   7.292   2.483  0.1009 -0.1645 -0.2147
   79MOL    O6523621   5.515   7.235   2.388 -0.3667  0.3379 -0.2514
   79MOL    C6623622   5.481   7.435   2.532 -0.2696 -0.2726  0.1815
   79MOL    C6723623   5.622   7.479   2.489 -0.3852  0.2498 -0.2806
   79MOL    C6823624   5.219   7.036   2.592  0.3047 -0.3539 -0.1369
   79MOL    H6923625   5.384   7.067   2.461  1.9720  1.6963  0.0120
   79MOL    H7023626   5.409   7.503   2.485  0.6504  2.3687  2.4629
   79MOL    H7123627   5.465   7.440   2.639  0.6706  1.8873  0.2471
   79MOL    H7223628   5.616   7.586   2.473  0.8384  0.4857  0.7707
   79MOL    H7323629   5.690   7.446   2.568 -1.9527 -3.1990 -0.2877
   79MOL    H7423630   5.653   7.436   2.394 -1.4255 -0.3928 -0.3358
   79MOL    H7523631   5.133   7.099   2.615 -0.3702 -1.2415 -0.2046
   79MOL    H7623632   5.166   6.955   2.542  1.9749 -1.2172 -0.5664
   79MOL    C7723633   5.298   6.991   2.722 -0.4479 -0.6431  0.7613
   79MOL    O7823634   5.201   6.937   2.813 -0.0647  0.3710  0.3935
   79MOL    C7923635   5.229   6.951   2.946  0.2436  0.1402  0.1334
   79MOL    O8023636   5.332   7.004   3.001  0.1123  0.2179 -0.8396
   79MOL    C8123637   5.119   6.873   3.028  0.0774 -0.0752  1.0583
   79MOL    C8223638   4.990   6.955   3.021 -0.5353 -0.5572  0.3503
   79MOL    C8323639   5.408   6.890   2.697  0.1549  0.6462  0.0323
   79MOL    H8423640   5.336   7.082   2.768 -4.4756  0.3434  2.3246
   79MOL    H8523641   5.094   6.776   2.984  0.0441  1.2734 -2.0577
   79MOL    H8623642   5.163   6.847   3.124  0.2060 -3.2405  0.2147
   79MOL    H8723643   4.917   6.901   3.082  0.8286 -1.2273  1.4111
   79MOL    H8823644   5.011   7.055   3.060  0.5532  0.2822 -2.2697
   79MOL    H8923645   4.953   6.971   2.920 -1.6845 -2.7078  0.4132
   79MOL    H9023646   5.415   6.817   2.778  0.6122 -0.1017 -0.6582
   79MOL    H9123647   5.379   6.833   2.608 -0.4120 -0.1899  0.7449
   79MOL    C9223648   5.549   6.959   2.673  0.2535 -0.4631  0.6688
   79MOL    O9323649   5.599   6.990   2.804  0.3764 -0.0624 -0.1650
   79MOL    C9423650   5.629   7.120   2.830  0.5750  0.4318 -0.0183
   79MOL    O9523651   5.607   7.218   2.759  0.1031 -0.4934  0.3898
   79MOL    C9623652   5.676   7.141   2.968  0.3261 -0.4031 -0.6038
   79MOL    C9723653   5.818   7.068   2.997  0.3717  0.3581  0.0007
   79MOL    C9823654   5.649   6.856   2.611 -0.0915  0.4187  0.7812
   79MOL    H9923655   5.540   7.040   2.600  0.4541  0.6771  1.8929
   79MOL   H10023656   5.679   7.247   2.991  0.8493 -0.6234  0.3631
   79MOL   H10123657   5.607   7.097   3.040  2.6531  0.9192  2.4912
   79MOL   H10223658   5.865   7.049   2.900 -2.0581 -0.8462 -0.9957
   79MOL   H10323659   5.883   7.130   3.057  1.5478 -0.8003 -0.0537
   79MOL   H10423660   5.820   6.976   3.054  1.3797  1.0284  1.0465
   79MOL   H10523661   5.673   6.768   2.671  0.2053  2.0214  3.1018
   79MOL   H10623662   5.609   6.812   2.520 -0.3951 -0.1522  1.1906
   79MOL   C10723663   5.783   6.920   2.578 -0.0443 -0.1926 -0.3306
   79MOL   O10823664   5.859   6.813   2.522  0.0162  0.0602 -0.3358
   79MOL   C10923665   5.967   6.770   2.583 -0.0737 -0.0103  0.2282
   79MOL   O11023666   6.005   6.803   2.694  0.2769  0.1140 -0.4321
   79MOL   C11123667   6.043   6.666   2.505 -0.1705 -0.1274 -0.0110
   79MOL   C11223668   6.100   6.717   2.374  0.0926 -0.2077  0.0460
   79MOL   C11323669   5.780   7.037   2.474  0.0433 -0.6116  0.3729
   79MOL   H11423670   5.828   6.958   2.670  0.1715  0.1462 -0.5755
   79MOL   H11523671   6.137   6.638   2.552 -1.6247 -0.2516  2.8860
   79MOL   H11623672   5.975   6.584   2.484  1.0657 -1.0475 -0.5018
   79MOL   H11723673   6.022   6.752   2.306  0.4909 -2.2593 -1.5377
   79MOL   H11823674   6.162   6.804   2.394 -1.1291  0.6600  0.0952
   79MOL   H11923675   6.161   6.653   2.310 -1.2795  0.2171 -1.7262
   79MOL   H12023676   5.741   6.982   2.388 -0.0345 -0.2751  0.1954
   79MOL   H12123677   5.701   7.106   2.502  0.6118 -0.4552  1.6408
   79MOL   C12223678   5.923   7.108   2.442  0.1686  0.0277 -0.1385
   79MOL   O12323679   5.899   7.184   2.326  0.1391  0.3111  0.5230
   79MOL   C12423680   5.912   7.142   2.199 -0.2942 -0.1191  0.8325
   79MOL   O12523681   5.958   7.034   2.172  0.3358  0.3136  0.3163
   79MOL   C12623682   5.869   7.244   2.099 -0.5730 -0.1612 -0.1096
   79MOL   C12723683   5.729   7.215   2.045 -0.1515  0.5161 -0.1770
   79MOL   C12823684   5.971   7.180   2.564 -0.6156  0.2918 -0.1321
   79MOL   H12923685   5.995   7.029   2.419 -3.1992 -3.1379 -0.3436
   79MOL   H13023686   5.870   7.341   2.148 -3.2410 -0.2580  0.2098
   79MOL   H13123687   5.950   7.247   2.025 -0.6406 -2.0536 -0.2743
   79MOL   H13223688   5.684   7.286   1.975 -0.1558  0.1095 -0.5839
   79MOL   H13323689   5.718   7.126   1.983 -1.7834  1.3248 -1.0999
   79MOL   H13423690   5.651   7.210   2.122 -0.9485  1.9137 -0.8753
   79MOL   H13523691   5.998   7.282   2.535  0.3719 -0.2891 -1.2937
   79MOL   H13623692   5.890   7.200   2.634  0.3910  1.6566  0.6849
   79MOL   C13723693   6.103   7.115   2.619  0.5685  0.2562  0.4646
   79MOL   O13823694   6.205   7.156   2.533 -0.0136 -0.4711  0.0118
   79MOL   C13923695   6.306   7.073   2.498 -0.2607  0.2933 -0.0931
   79MOL   O14023696   6.324   6.958   2.535  0.1467  0.3385  0.0445
   79MOL   C14123697   6.406   7.138   2.399  0.1586 -0.8039  0.2018
   79MOL   C14223698   6.354   7.166   2.259 -0.0427  0.3294  0.4925
   79MOL   C14323699   6.125   7.179   2.758 -0.4961 -0.0152  0.5027
   79MOL   H14423700   6.093   7.007   2.626  0.4614  0.3628  2.3893
   79MOL   H14523701   6.420   7.233   2.451  1.3940 -1.0546  0.3487
   79MOL   H14623702   6.501   7.086   2.387  0.6340  0.2084 -0.5383
   79MOL   H14723703   6.370   7.268   2.223  1.0961 -1.0199 -3.1029
   79MOL   H14823704   6.390   7.087   2.192  1.9098 -0.5536  2.5269
   79MOL   H14923705   6.246   7.168   2.249 -0.1731 -1.2738  1.4005
   79MOL   H15023706   6.128   7.288   2.759  3.2751 -0.0320  1.7962
   79MOL   H15123707   6.035   7.172   2.818  0.1801 -0.5963  1.4606
   79MOL   C15223708   6.248   7.136   2.842 -0.1985  0.6516 -0.7726
   79MOL   O15323709   6.234   7.185   2.976  0.3906 -0.1760 -0.9419
   79MOL   C15423710   6.260   7.312   3.019  0.2057  0.7155 -0.4399
   79MOL   O15523711   6.308   7.402   2.951 -0.2091 -0.2351 -0.1284
   79MOL   C15623712   6.247   7.325   3.170 -0.5579  0.2655 -0.2484
   79MOL   C15723713   6.351   7.242   3.241  0.1399  0.0769 -0.2202
   79MOL   C15823714   6.242   6.982   2.868  0.3628  0.7760  0.4937
   79MOL   H15923715   6.351   7.163   2.817  1.1044  0.2401  3.8143
   79MOL   H16023716   6.278   7.425   3.198  1.4589 -0.8456  1.6734
   79MOL   H16123717   6.143   7.317   3.201 -0.6389  0.2657 -0.5187
   79MOL   H16223718   6.367   7.253   3.349  1.4654  1.1833 -0.5106
   79MOL   H16323719   6.337   7.134   3.241  1.2409 -0.0894 -2.1538
   79MOL   H16423720   6.446   7.258   3.190  1.7146  0.4225  2.6704
   79MOL   H16523721   6.153   6.962   2.927 -1.3289 -0.8652 -2.4812
   79MOL   H16623722   6.240   6.926   2.774 -2.9974  1.7611 -0.0911
   79MOL   C16723723   6.370   6.938   2.941  0.1641 -0.9419 -0.3307
   79MOL   O16823724   6.344   6.810   2.999 -0.7161  0.2454 -0.1626
   79MOL   C16923725   6.294   6.805   3.125 -0.0264 -0.1494  0.0037
   79MOL   O17023726   6.268   6.897   3.203 -0.1599  0.0482  0.3888
   79MOL   C17123727   6.259   6.663   3.176  0.2640  0.3102  0.2538
   79MOL   C17223728   6.362   6.641   3.290  0.5847  0.5333 -0.0204
   79MOL   C17323729   6.499   6.937   2.849  0.1526 -0.6386  0.1692
   79MOL   H17423730   6.389   7.007   3.023 -1.2425  0.4360 -1.1306
   79MOL   H17523731   6.154   6.662   3.207 -0.6470  3.4140 -2.5023
   79MOL   H17623732   6.268   6.589   3.097 -2.3265  0.3048 -0.0998
   79MOL   H17723733   6.353   6.706   3.377 -0.4791  1.6644 -0.9588
   79MOL   H17823734   6.359   6.536   3.319  0.5829  0.6590  0.4349
   79MOL   H17923735   6.462   6.663   3.251  0.3915  1.4540 -0.0116
   79MOL   H18023736   6.494   6.842   2.796 -0.7300 -1.2664  1.3537
   79MOL   H18123737   6.478   7.011   2.771  0.7618  0.8509  1.3886
   79MOL   C18223738   6.639   6.961   2.920  0.4500 -0.0840  0.3041
   79MOL   O18323739   6.642   6.904   3.049  1.0914  0.1590  0.4410
   79MOL   C18423740   6.659   6.975   3.161  0.6780 -0.2581 -0.0833
   79MOL   O18523741   6.676   7.095   3.169  0.4604  0.1243 -0.2329
   79MOL   C18623742   6.651   6.893   3.289 -0.7142 -0.4435 -0.2268
   79MOL   C18723743   6.780   6.897   3.370 -0.2300  0.3709  0.0030
   79MOL   C18823744   6.757   6.914   2.841 -0.7108 -0.0723  0.0448
   79MOL   H18923745   6.664   7.064   2.945 -1.4277  0.4707 -0.0205
   79MOL   H19023746   6.564   6.928   3.344 -0.2839  0.7581 -0.2767
   79MOL   H19123747   6.636   6.789   3.263  0.7674 -0.9143  0.7335
   79MOL   H19223748   6.863   6.866   3.307 -0.9087 -0.8154 -0.3200
   79MOL   H19323749   6.802   6.998   3.405 -0.5084  0.8573 -1.2102
   79MOL   H19423750   6.774   6.840   3.463  1.4126  1.3007  0.7070
   79MOL   H19523751   6.850   6.923   2.897  1.8105  0.6664 -4.0038
   79MOL   H19623752   6.745   6.807   2.826 -1.4236 -0.1810  1.3455
   79MOL   C19723753   6.780   6.990   2.705 -0.4009 -0.1810 -0.8978
   79MOL   O19823754   6.811   7.131   2.734  0.2954  0.0884  0.1305
   79MOL   C19923755   6.730   7.226   2.699 -0.2741 -0.3585 -0.0004
   79MOL   O20023756   6.616   7.203   2.666  0.3191 -0.4003  0.0297
   79MOL   C20123757   6.792   7.362   2.685 -0.1672  0.0409 -0.0759
   79MOL   C20223758   6.908   7.379   2.574  0.2331 -0.1083 -0.6797
   79MOL   C20323759   6.885   6.926   2.620 -0.4792  0.2670  0.4287
   79MOL   H20423760   6.686   6.977   2.651 -0.7725 -1.6605  0.0598
   79MOL   H20523761   6.706   7.428   2.672  1.4072  2.3055  0.7095
   79MOL   H20623762   6.833   7.381   2.784 -1.1921  1.0587  0.1673
   79MOL   H20723763   7.002   7.346   2.618 -0.0410  2.5479  2.1029
   79MOL   H20823764   6.904   7.327   2.479  2.5746 -2.4084  0.4130
   79MOL   H20923765   6.929   7.485   2.558  0.6168 -0.0778 -0.0160
   79MOL   H21023766   6.983   6.937   2.667 -0.8686  2.9340  0.6568
   79MOL   H21123767   6.876   6.817   2.614  0.0520  0.2719 -0.6032
   79MOL   C21223768   6.908   6.991   2.481 -0.2461  1.0672  0.0876
   79MOL   O21323769   7.014   6.922   2.424 -0.3619 -0.0597  0.1172
   79MOL   C21423770   7.111   6.986   2.359  0.3426 -0.2879  0.3009
   79MOL   O21523771   7.120   7.105   2.350 -0.3608  0.0303 -0.0832
   79MOL   C21623772   7.218   6.898   2.297  0.2770  0.3033  0.3149
   79MOL   C21723773   7.207   6.918   2.144  0.6214  0.4599  0.4307
   79MOL   C21823774   6.791   6.966   2.391 -0.0347 -0.2516 -0.0530
   79MOL   H21923775   6.929   7.097   2.494 -0.8017  1.3908 -1.4803
   79MOL   H22023776   7.319   6.920   2.333  0.6425 -2.3824  1.0636
   79MOL   H22123777   7.207   6.796   2.332 -0.4722  0.8544  1.7419
   79MOL   H22223778   7.286   6.856   2.099 -1.9031 -1.4340 -1.5679
   79MOL   H22323779   7.109   6.887   2.107  1.0088  0.5864 -0.7298
   79MOL   H22423780   7.216   7.023   2.117 -0.0832  0.7732  1.3789
   79MOL   H22523781   6.772   6.859   2.388  0.0733 -0.3299  1.8067
   79MOL   H22623782   6.698   7.005   2.433  0.2037 -0.5008  0.6992
   79MOL   C22723783   6.798   7.010   2.242  0.3050 -0.2353 -0.6949
   79MOL   O22823784   6.668   6.977   2.186  0.2129  0.3151 -0.4662
   79MOL   C22923785   6.650   6.886   2.091 -0.5264 -0.1656 -0.3252
   79MOL   O23023786   6.745   6.828   2.027  0.1820 -0.1972  0.2138
   79MOL   C23123787   6.507   6.880   2.045 -0.0945  0.1222  0.1074
   79MOL   C23223788   6.424   6.788   2.129  0.4739  1.1147 -0.4560
   79MOL   C23323789   6.823   7.162   2.213 -0.1925 -0.1836 -0.0321
   79MOL   H23423790   6.875   6.951   2.192  0.5484  0.2097 -0.8455
   79MOL   H23523791   6.467   6.981   2.049 -0.3982 -0.0748  2.5579
   79MOL   H23623792   6.506   6.833   1.946  1.2261  2.3699 -1.0110
   79MOL   H23723793   6.442   6.684   2.103 -0.1589  1.2563 -1.4710
   79MOL   H23823794   6.453   6.797   2.234 -1.4793 -1.1594  0.3096
   79MOL   H23923795   6.316   6.803   2.134  0.2889 -0.7778  3.4431
   79MOL   H24023796   6.748   7.219   2.267 -0.7970 -1.4293  0.4651
   79MOL   H24123797   6.906   7.202   2.271 -1.1824  2.5962 -0.4802
   79MOL   C24223798   6.805   7.202   2.061 -0.0856  0.2741  0.5677
   79MOL   O24323799   6.771   7.342   2.054  0.1034  0.1057 -0.2015
   79MOL   C24423800   6.660   7.379   1.994  0.3727  0.4357  0.1266
   79MOL   O24523801   6.587   7.308   1.926 -0.3261 -0.2754  0.7490
   79MOL   C24623802   6.626   7.530   2.011  1.0809  0.2868  0.5014
   79MOL   C24723803   6.615   7.589   2.152  0.6646  0.1068  0.1920
   79MOL   C24823804   6.931   7.173   1.975 -0.4149 -0.0578 -0.9439
   79MOL   H24923805   6.719   7.149   2.020 -0.3990  1.5886 -0.4718
   79MOL   H25023806   6.703   7.586   1.957  1.4412 -1.1472 -0.5008
   79MOL   H25123807   6.536   7.548   1.952  0.5980 -1.8480  0.5465
   79MOL   H25223808   6.689   7.548   2.222 -0.4682 -1.3806  0.5401
   79MOL   H25323809   6.631   7.696   2.144 -0.7269  0.2153 -1.4031
   79MOL   H25423810   6.515   7.576   2.192  0.6890 -0.3171  0.1245
   79MOL   H25523811   6.994   7.261   1.988 -1.7138  0.8216 -0.5101
   79MOL   H25623812   6.997   7.100   2.021  0.9580  1.5287 -0.3429
   79MOL   C25723813   6.895   7.148   1.829 -0.1455 -0.3214 -0.1732
   79MOL   O25823814   6.998   7.216   1.758 -0.2683 -0.0084 -0.3719
   79MOL   C25923815   6.957   7.312   1.670  0.7014  0.1978  0.0887
   79MOL   O26023816   6.846   7.366   1.665  1.1910 -0.0584 -0.0535
   79MOL   C26123817   7.069   7.376   1.590 -0.2436 -1.1968 -0.2997
   79MOL   C26223818   7.186   7.283   1.555 -1.0797  0.2949 -0.2440
   79MOL   C26323819   6.893   7.003   1.781 -0.0226 -0.2877  1.3181
   79MOL   H26423820   6.796   7.191   1.813  0.5461  1.5686  0.4452
   79MOL   H26523821   7.037   7.424   1.498 -0.5836  0.9869  0.9435
   79MOL   H26623822   7.115   7.453   1.651 -2.5708 -1.0110  1.2843
   79MOL   H26723823   7.162   7.178   1.541 -2.5517  0.9727 -3.2282
   79MOL   H26823824   7.236   7.313   1.463 -0.5078 -0.6426 -0.2429
   79MOL   H26923825   7.256   7.288   1.639 -1.1117  0.7687 -0.2384
   79MOL   H27023826   6.989   6.959   1.806  0.7337 -0.7291 -2.0996
   79MOL   H27123827   6.823   6.944   1.841  1.0900 -1.3332  1.6022
   79MOL   C27223828   6.860   6.985   1.627  0.0893 -0.6851 -0.1875
   79MOL   O27323829   6.881   6.854   1.579  0.5724 -0.5999 -0.1675
   79MOL   C27423830   7.004   6.824   1.548 -0.6110  0.1915 -0.9059
   79MOL   O27523831   7.103   6.899   1.555  0.6027  0.1727 -0.2153
   79MOL   C27623832   7.013   6.681   1.489  0.8993 -0.3745 -0.3055
   79MOL   C27723833   7.158   6.634   1.479 -0.2635 -0.3904  0.5651
   79MOL   C27823834   6.707   7.012   1.599  0.7515 -0.0771 -0.0600
   79MOL   H27923835   6.922   7.055   1.570  0.1212 -0.6178 -0.0700
   79MOL   H28023836   6.961   6.616   1.560  1.0128  2.2420  2.2524
   79MOL   H28123837   6.959   6.666   1.395 -0.5347  0.9778  0.2729
   79MOL   H28223838   7.221   6.685   1.406  0.3817 -0.5848  0.9900
   79MOL   H28323839   7.217   6.655   1.568 -0.8669 -0.4711  0.9880
   79MOL   H28423840   7.161   6.530   1.448  1.1143 -0.1706 -0.0862
   79MOL   H28523841   6.652   6.921   1.621  0.4021  0.1572  0.0492
   79MOL   H28623842   6.670   7.096   1.657 -2.0474 -0.4152 -1.2620
   79MOL   C28723843   6.677   7.047   1.450  0.1969  0.7556  0.0674
   79MOL   O28823844   6.541   7.029   1.437  0.2880 -0.4048  0.0461
   79MOL   C28923845   6.481   7.019   1.313 -0.2592  0.1872 -0.4233
   79MOL   O29023846   6.544   7.023   1.204  0.0318 -0.0667  0.2409
   79MOL   C29123847   6.332   6.989   1.317 -0.2594  0.6530 -0.2458
   79MOL   C29223848   6.277   6.917   1.195 -0.1655 -0.6762 -0.3718
   79MOL   C29323849   6.737   7.183   1.401 -0.0046 -0.5809 -0.0430
   79MOL   H29423850   6.726   6.973   1.387  0.3000  0.4693  0.4836
   79MOL   H29523851   6.332   6.923   1.404 -1.2626  0.1006 -0.6597
   79MOL   H29623852   6.272   7.075   1.344  0.7313  0.2906  3.3935
   79MOL   H29723853   6.291   6.989   1.115 -2.0163  0.5485  0.3792
   79MOL   H29823854   6.325   6.820   1.183  2.2151  0.3237  0.7070
   79MOL   H29923855   6.170   6.897   1.199 -0.3483  0.1214 -1.0272
   79MOL   H30023856   6.688   7.210   1.307  0.1875 -3.1690 -0.9154
   79MOL   H30123857   6.715   7.264   1.471  1.3401  1.2829 -1.7089
   79MOL   H30223858   6.842   7.164   1.382  0.3365 -0.2201  1.4512
   80MOL     C123859   2.876   1.238   6.038 -0.0419  0.5659  0.0952
   80MOL     O223860   2.861   1.353   5.963 -0.0032  0.1158  0.2944
   80MOL     C323861   2.954   1.456   5.978  0.1386  0.3310 -0.3112
   80MOL     O423862   3.059   1.451   6.047  0.8117 -0.0370  0.4057
   80MOL     C523863   2.908   1.578   5.903  0.1849 -0.0056  0.3415
   80MOL     C623864   2.964   1.710   5.928  0.6137 -0.0437  0.0214
   80MOL     C723865   2.787   1.126   5.975  0.7750  0.4182  0.0266
   80MOL     H823866   2.844   1.250   6.141 -0.4024 -0.8350  0.1440
   80MOL     H923867   2.915   1.551   5.798  0.1208  1.0146  0.0710
   80MOL    H1023868   2.801   1.590   5.920 -0.1165  0.1186 -1.5356
   80MOL    H1123869   3.073   1.703   5.919  0.5324  0.7162 -1.6774
   80MOL    H1223870   2.949   1.782   5.847 -1.7551 -0.5279  0.0212
   80MOL    H1323871   2.938   1.756   6.024 -1.6942 -0.0256 -0.5933
   80MOL    H1423872   2.689   1.172   5.987  0.7138 -0.0602  1.3472
   80MOL    H1523873   2.807   1.118   5.868 -1.2972  1.0182 -0.4416
   80MOL    H1623874   2.979   1.210   6.017 -0.2184  1.7332 -2.5056
   80MOL    C1723875   2.782   0.995   6.043 -0.8712  1.6335 -0.0746
   80MOL    O1823876   2.701   0.901   5.971  0.4670 -0.4155 -0.3515
   80MOL    C1923877   2.619   0.805   6.029 -0.2412 -0.2428  0.0571
   80MOL    O2023878   2.612   0.784   6.150 -0.8426 -0.1201 -0.1327
   80MOL    C2123879   2.546   0.716   5.936  0.0044  0.2239  0.0419
   80MOL    C2223880   2.653   0.623   5.867  0.1036  0.7360 -0.5040
   80MOL    C2323881   2.925   0.925   6.048  0.6323 -0.0842 -0.0475
   80MOL    H2423882   2.750   1.004   6.147  0.9168  1.0134  0.5518
   80MOL    H2523883   2.468   0.656   5.985  1.8651 -2.0688  0.3011
   80MOL    H2623884   2.486   0.769   5.862  1.9535  0.7501 -1.1956
   80MOL    H2723885   2.607   0.536   5.820  0.3679  0.0649  0.4509
   80MOL    H2823886   2.720   0.670   5.796  0.7442  0.5052 -0.0594
   80MOL    H2923887   2.722   0.579   5.939  0.4923  2.8922  0.4875
   80MOL    H3023888   2.911   0.818   6.062  0.2088 -0.0838 -0.4697
   80MOL    H3123889   2.961   0.923   5.945 -2.5961 -0.3238 -1.2360
   80MOL    C3223890   3.022   0.962   6.156 -0.6196  0.0262  0.2278
   80MOL    O3323891   2.990   0.903   6.278  0.2562  1.0691  0.0379
   80MOL    C3423892   3.006   0.967   6.393  0.3345 -0.0773 -0.2927
   80MOL    O3523893   3.068   1.071   6.417 -0.0871 -0.2667  0.1589
   80MOL    C3623894   2.949   0.885   6.511  0.0990  0.5103 -0.0413
   80MOL    C3723895   2.795   0.854   6.519 -0.4230  0.1574  0.3829
   80MOL    C3823896   3.168   0.922   6.115 -0.4249  0.2345  0.0156
   80MOL    H3923897   3.023   1.068   6.182 -0.7911 -0.0495  0.5343
   80MOL    H4023898   3.012   0.796   6.516 -1.8334 -1.0059 -1.6970
   80MOL    H4123899   2.975   0.929   6.607  1.0455  1.4691 -0.7285
   80MOL    H4223900   2.740   0.935   6.567 -0.9445 -0.0122  0.0722
   80MOL    H4323901   2.745   0.836   6.424 -0.1500 -1.0805  0.4681
   80MOL    H4423902   2.780   0.767   6.582 -0.4005  0.7961  1.2757
   80MOL    H4523903   3.219   0.898   6.209  0.2785 -0.0480 -0.4334
   80MOL    H4623904   3.175   0.829   6.058 -0.3770  0.7755 -0.8625
   80MOL    C4723905   3.249   1.014   6.024 -0.3038 -0.5542  0.3456
   80MOL    O4823906   3.174   1.023   5.896 -0.9466  0.3559 -0.1072
   80MOL    C4923907   3.236   1.012   5.789 -0.2458  0.2746  0.1209
   80MOL    O5023908   3.360   0.990   5.782 -0.3120 -0.5977  0.9337
   80MOL    C5123909   3.149   1.038   5.659  1.0087 -0.0136 -0.2769
   80MOL    C5223910   3.094   1.185   5.647  0.5476 -0.0815  0.2796
   80MOL    C5323911   3.280   1.154   6.086 -0.1386 -0.8629 -0.4259
   80MOL    H5423912   3.345   0.965   6.010  0.0254 -0.0411  0.7954
   80MOL    H5523913   3.218   1.019   5.577 -0.7965 -2.1058 -1.3523
   80MOL    H5623914   3.064   0.970   5.657  1.2915 -0.4291  1.2610
   80MOL    H5723915   3.024   1.209   5.567 -1.4194 -2.8967  1.1182
   80MOL    H5823916   3.040   1.217   5.736 -1.3294  1.4912 -1.3731
   80MOL    H5923917   3.169   1.264   5.632  0.8845  0.1069  2.7752
   80MOL    H6023918   3.204   1.229   6.064 -0.7408 -0.4708  2.6400
   80MOL    H6123919   3.288   1.145   6.195 -0.7232  3.1031  0.0242
   80MOL    C6223920   3.416   1.208   6.020  0.2317  0.6576  0.2211
   80MOL    O6323921   3.436   1.339   6.050 -0.1439 -0.4310  0.1626
   80MOL    C6423922   3.386   1.445   5.977  0.0182  0.0633  0.2233
   80MOL    O6523923   3.324   1.437   5.871 -0.6632  0.1103 -0.6274
   80MOL    C6623924   3.424   1.586   6.030  0.0819 -0.1719 -0.5532
   80MOL    C6723925   3.566   1.593   6.091  0.2243 -0.1215  0.0567
   80MOL    C6823926   3.540   1.150   6.087  0.2271 -0.0931  0.7901
   80MOL    H6923927   3.413   1.185   5.913 -0.5057  4.2091 -0.5780
   80MOL    H7023928   3.416   1.653   5.945  0.7029  0.1930 -0.3276
   80MOL    H7123929   3.353   1.615   6.109  0.8513  0.8499 -0.2310
   80MOL    H7223930   3.633   1.515   6.057  1.0784  0.4838  0.3460
   80MOL    H7323931   3.613   1.689   6.071  0.1817 -0.1987 -0.4230
   80MOL    H7423932   3.563   1.591   6.200 -1.4467 -0.2212  0.0210
   80MOL    H7523933   3.539   1.192   6.187 -0.3168  2.4289 -0.2315
   80MOL    H7623934   3.543   1.041   6.096  2.4074  0.0263  1.7176
   80MOL    C7723935   3.676   1.182   6.008 -0.5469  0.0010 -0.2594
   80MOL    O7823936   3.785   1.161   6.095 -0.1638 -0.2448 -0.0842
   80MOL    C7923937   3.863   1.263   6.135 -0.4176  0.4059  0.5720
   80MOL    O8023938   3.856   1.379   6.099  0.9026 -0.7281 -0.3073
   80MOL    C8123939   3.970   1.219   6.224  0.1751  0.3317  0.2449
   80MOL    C8223940   4.073   1.125   6.160 -0.0485 -0.1162  0.4818
   80MOL    C8323941   3.707   1.098   5.880  0.1224  0.4620 -0.3607
   80MOL    H8423942   3.663   1.284   5.971  0.6217  0.2974  0.1243
   80MOL    H8523943   4.018   1.309   6.262 -1.5502  0.6069  1.8910
   80MOL    H8623944   3.920   1.170   6.308  0.1526 -0.6406 -0.3271
   80MOL    H8723945   4.018   1.039   6.122  0.2240  0.4761 -1.2847
   80MOL    H8823946   4.134   1.165   6.079 -1.2241  1.4645  0.3657
   80MOL    H8923947   4.141   1.092   6.239  0.8384 -0.7580 -0.5293
   80MOL    H9023948   3.714   0.995   5.915  0.2046  0.7951  0.6162
   80MOL    H9123949   3.622   1.100   5.812 -1.2140 -0.6794  1.2366
   80MOL    C9223950   3.831   1.140   5.808  0.5576  0.0392 -0.1879
   80MOL    O9323951   3.843   1.051   5.697 -0.3044 -0.3216  0.0280
   80MOL    C9423952   3.943   0.963   5.679  0.1210  0.2418 -0.0452
   80MOL    O9523953   4.036   0.953   5.757 -0.4316  0.0080 -0.2987
   80MOL    C9623954   3.925   0.887   5.545  0.0247 -0.5216 -1.0482
   80MOL    C9723955   3.885   0.967   5.418  0.2529 -0.1265  0.4831
   80MOL    C9823956   3.822   1.282   5.757  1.1365  0.2575  0.5187
   80MOL    H9923957   3.924   1.133   5.863 -0.4236  2.3005  1.8232
   80MOL   H10023958   4.022   0.841   5.526  1.0010  1.8600 -2.1070
   80MOL   H10123959   3.849   0.810   5.558 -1.5882  1.3709  1.0999
   80MOL   H10223960   3.785   1.003   5.443 -0.2382 -1.2026  0.1230
   80MOL   H10323961   3.952   1.049   5.394  3.8332 -2.2888  2.6667
   80MOL   H10423962   3.879   0.905   5.329 -0.4585  0.6914 -0.0435
   80MOL   H10523963   3.732   1.280   5.694  0.6047 -2.0277  1.3176
   80MOL   H10623964   3.805   1.349   5.841 -0.1823  1.0572 -0.3524
   80MOL   C10723965   3.948   1.335   5.682 -0.6908  0.1292 -0.3446
   80MOL   O10823966   3.911   1.459   5.619  0.0099 -0.3477  0.0240
   80MOL   C10923967   3.847   1.458   5.498  0.0429  0.5783  0.1288
   80MOL   O11023968   3.825   1.351   5.439 -0.2150 -0.1752  0.2836
   80MOL   C11123969   3.800   1.597   5.449 -0.0275 -0.3060  0.0552
   80MOL   C11223970   3.717   1.586   5.324 -0.6461  0.0463 -0.2554
   80MOL   C11323971   4.086   1.347   5.754 -0.0921 -0.8222  1.5305
   80MOL   H11423972   3.971   1.262   5.603  0.8027  1.5575 -1.2783
   80MOL   H11523973   3.751   1.652   5.529 -0.0456  0.4987 -0.5050
   80MOL   H11623974   3.891   1.649   5.418  1.3760 -3.5297 -1.4830
   80MOL   H11723975   3.774   1.561   5.235 -3.4957 -0.7483 -1.9266
   80MOL   H11823976   3.634   1.517   5.337 -0.5028 -0.1502 -0.3886
   80MOL   H11923977   3.675   1.686   5.310  1.1455  0.6569 -1.4426
   80MOL   H12023978   4.062   1.376   5.857 -0.5017 -1.5710  1.6503
   80MOL   H12123979   4.131   1.250   5.778  0.3882 -1.8662 -3.1193
   80MOL   C12223980   4.186   1.454   5.689 -0.1085  0.1751 -0.3285
   80MOL   O12323981   4.294   1.479   5.775 -0.5742 -0.1240 -0.4717
   80MOL   C12423982   4.289   1.579   5.864  0.1701 -0.8855  0.0207
   80MOL   O12523983   4.188   1.641   5.903 -0.4334  0.5831 -0.3440
   80MOL   C12623984   4.426   1.608   5.917 -0.0488  0.0108 -0.0293
   80MOL   C12723985   4.533   1.643   5.812  0.4010  0.2474  0.2614
   80MOL   C12823986   4.249   1.403   5.561  0.0349 -0.1202 -0.0099
   80MOL   H12923987   4.128   1.546   5.680 -1.3287 -0.8083 -3.3656
   80MOL   H13023988   4.425   1.695   5.983 -0.3397  1.8044 -2.3644
   80MOL   H13123989   4.455   1.530   5.988 -1.6104 -0.9488 -0.4049
   80MOL   H13223990   4.580   1.557   5.764  1.0347  1.3877 -1.2008
   80MOL   H13323991   4.498   1.711   5.735 -1.5628  1.0213  1.8004
   80MOL   H13423992   4.617   1.695   5.857  0.8033 -0.8933  0.8473
   80MOL   H13523993   4.326   1.330   5.584 -0.6422 -1.9010 -3.0524
   80MOL   H13623994   4.175   1.346   5.503 -0.2222  0.2080 -0.0064
   80MOL   C13723995   4.307   1.521   5.478  0.0377  0.8881 -0.7256
   80MOL   O13823996   4.376   1.455   5.375 -0.1335 -0.0343  0.0416
   80MOL   C13923997   4.514   1.454   5.373  0.0842 -0.8324 -0.9094
   80MOL   O14023998   4.586   1.510   5.455 -0.6244 -0.1430  0.2554
   80MOL   C14123999   4.565   1.370   5.258  0.4119 -0.0767  0.5679
   80MOL   C14224000   4.715   1.384   5.240 -0.4695  0.2352  0.0750
   80MOL   C14324001   4.196   1.607   5.418 -0.4158  0.0392 -0.0289
   80MOL   H14424002   4.368   1.584   5.543 -0.5928 -1.4260  2.2275
   80MOL   H14524003   4.540   1.266   5.276  0.2830 -0.0400  0.6016
   80MOL   H14624004   4.507   1.392   5.168  0.9401 -1.6909 -0.1773
   80MOL   H14724005   4.749   1.485   5.219  0.5727  0.4431  2.6070
   80MOL   H14824006   4.781   1.340   5.315  1.2586  0.7283 -1.1264
   80MOL   H14924007   4.733   1.321   5.153  0.7100 -0.1277  0.5688
   80MOL   H15024008   4.118   1.546   5.372  2.1968 -1.4609 -2.6646
   80MOL   H15124009   4.151   1.664   5.499 -3.3056 -0.9832 -0.8509
   80MOL   C15224010   4.243   1.724   5.329 -0.1501  0.0271 -0.0180
   80MOL   O15324011   4.131   1.789   5.288  0.0319 -0.8610  0.2402
   80MOL   C15424012   4.090   1.772   5.164 -0.6778 -0.5197 -0.6545
   80MOL   O15524013   4.146   1.708   5.076 -0.2645  0.2113 -0.4433
   80MOL   C15624014   3.949   1.825   5.138 -0.1996 -0.0684  0.3242
   80MOL   C15724015   3.937   1.976   5.193  0.0626 -0.0983  0.2426
   80MOL   C15824016   4.336   1.811   5.410 -0.4304 -0.0920  0.7869
   80MOL   H15924017   4.297   1.679   5.246  1.5962  0.3750  0.8987
   80MOL   H16024018   3.920   1.807   5.035  2.8404 -0.2259 -0.5553
   80MOL   H16124019   3.897   1.750   5.198  0.5708 -0.2511  0.7626
   80MOL   H16224020   3.836   2.012   5.171  0.6672  0.6600 -1.4129
   80MOL   H16324021   3.958   1.979   5.299  1.4439  0.7174 -0.0494
   80MOL   H16424022   4.010   2.040   5.144 -1.0738  0.3319 -0.9280
   80MOL   H16524023   4.281   1.840   5.499 -0.5562 -1.2243  1.0917
   80MOL   H16624024   4.426   1.753   5.428 -0.4494  0.2503  1.9931
   80MOL   C16724025   4.384   1.935   5.340 -0.0953  0.6988  0.4922
   80MOL   O16824026   4.475   2.007   5.425 -0.1517  0.5807 -0.4318
   80MOL   C16924027   4.441   2.090   5.521 -1.1525  0.0460 -0.4247
   80MOL   O17024028   4.325   2.119   5.543  0.4293  0.3341  0.1350
   80MOL   C17124029   4.555   2.169   5.592 -0.1669  0.2551 -0.7051
   80MOL   C17224030   4.689   2.091   5.602 -0.3717  0.3236  0.2150
   80MOL   C17324031   4.442   1.915   5.202  0.2098 -0.3699  0.1699
   80MOL   H17424032   4.298   1.997   5.317  0.8013  1.2952 -1.3703
   80MOL   H17524033   4.567   2.270   5.555 -0.6889  0.6685  0.2443
   80MOL   H17624034   4.509   2.179   5.690 -1.7256  0.2569 -1.4300
   80MOL   H17724035   4.674   1.989   5.637 -0.4785 -0.0865 -1.0000
   80MOL   H17824036   4.749   2.090   5.511 -2.4926  2.7488 -1.2922
   80MOL   H17924037   4.753   2.134   5.680 -0.5508  2.0549 -0.5582
   80MOL   H18024038   4.538   1.863   5.202  0.5937  0.3281 -1.1410
   80MOL   H18124039   4.380   1.850   5.140 -1.1784  2.2783 -1.2644
   80MOL   C18224040   4.444   2.044   5.113 -0.4826 -0.3539 -0.0101
   80MOL   O18324041   4.577   2.109   5.127 -0.4792  0.6438 -0.1177
   80MOL   C18424042   4.595   2.229   5.171  1.1461 -0.1948  0.2786
   80MOL   O18524043   4.498   2.294   5.217  0.0220  0.5953 -0.4208
   80MOL   C18624044   4.732   2.293   5.154 -0.6091 -0.0925 -0.0727
   80MOL   C18724045   4.733   2.443   5.182  0.8281 -0.0895  0.5880
   80MOL   C18824046   4.422   2.027   4.962  0.3492 -0.4528  0.5619
   80MOL   H18924047   4.370   2.113   5.154 -2.0219 -1.2703 -1.1795
   80MOL   H19024048   4.811   2.241   5.208 -0.9682 -0.7856 -0.2184
   80MOL   H19124049   4.760   2.270   5.051  0.0825  0.0434  0.0786
   80MOL   H19224050   4.701   2.477   5.280  1.3984 -1.1582  1.1538
   80MOL   H19324051   4.837   2.474   5.166  1.0611 -0.5305  1.2131
   80MOL   H19424052   4.665   2.500   5.118  1.0363  1.2767  1.5547
   80MOL   H19524053   4.322   1.985   4.956  0.8406 -1.7659  1.2396
   80MOL   H19624054   4.427   2.125   4.916 -0.8562 -1.2614 -1.3672
   80MOL   C19724055   4.534   1.947   4.888  0.5185  0.9427  0.6828
   80MOL   O19824056   4.515   1.805   4.880  0.5529  0.4783  0.5737
   80MOL   C19924057   4.603   1.724   4.944  0.0014 -0.1186 -0.7149
   80MOL   O20024058   4.699   1.760   5.014 -0.7017 -0.3782  0.1529
   80MOL   C20124059   4.578   1.573   4.916  0.6130  0.5470 -0.1015
   80MOL   C20224060   4.427   1.530   4.906 -0.2259  0.3901 -0.4171
   80MOL   C20324061   4.571   2.003   4.750  0.0836  0.3173  0.0541
   80MOL   H20424062   4.623   1.973   4.946  1.5895 -0.3871 -0.3499
   80MOL   H20524063   4.611   1.549   4.815 -1.1779  1.7692 -1.0210
   80MOL   H20624064   4.629   1.510   4.988 -0.5386 -0.3727 -0.0761
   80MOL   H20724065   4.386   1.571   4.814  0.2993  0.3500 -0.6723
   80MOL   H20824066   4.419   1.423   4.920  0.9049  0.2210 -1.0286
   80MOL   H20924067   4.377   1.579   4.990  1.7687  0.5283  0.7355
   80MOL   H21024068   4.626   1.928   4.692 -0.1996  0.8387 -0.8991
   80MOL   H21124069   4.481   2.005   4.688 -1.8392 -0.1271  2.7537
   80MOL   C21224070   4.654   2.133   4.736 -0.1545  0.2315 -0.2704
   80MOL   O21324071   4.603   2.248   4.808 -0.2685 -0.2863 -0.3618
   80MOL   C21424072   4.579   2.370   4.750  0.1783 -0.1401  0.0998
   80MOL   O21524073   4.590   2.390   4.632 -0.2142 -0.1332 -0.0816
   80MOL   C21624074   4.512   2.465   4.850  0.0850  0.3125 -0.0218
   80MOL   C21724075   4.383   2.409   4.900 -0.0828 -0.2686 -0.1886
   80MOL   C21824076   4.808   2.120   4.791  0.1465 -0.1938  0.1227
   80MOL   H21924077   4.652   2.157   4.630 -2.2222 -0.3372 -0.3790
   80MOL   H22024078   4.573   2.475   4.940  1.1154 -0.7574 -0.5804
   80MOL   H22124079   4.505   2.555   4.789 -2.5489  0.4014  0.3725
   80MOL   H22224080   4.318   2.493   4.923 -0.4018 -0.0717 -1.7449
   80MOL   H22324081   4.333   2.368   4.812  0.5996 -1.5675  0.0148
   80MOL   H22424082   4.388   2.333   4.977  1.3938  1.5739  1.5798
   80MOL   H22524083   4.803   2.100   4.898 -0.7397 -0.7413 -0.0129
   80MOL   H22624084   4.848   2.034   4.736  0.2958 -0.5987  0.8620
   80MOL   C22724085   4.899   2.236   4.756 -0.6698  0.6308  0.1157
   80MOL   O22824086   5.018   2.217   4.835  0.3365 -0.1203 -0.5730
   80MOL   C22924087   5.070   2.308   4.912  0.1070  0.0669  0.8510
   80MOL   O23024088   5.027   2.428   4.916 -0.1607 -0.4489 -0.1207
   80MOL   C23124089   5.187   2.260   4.993  0.1633  0.0633 -0.8417
   80MOL   C23224090   5.229   2.354   5.102 -0.3662 -0.6693  0.2111
   80MOL   C23324091   4.928   2.262   4.609  0.3308  0.9494 -0.3045
   80MOL   H23424092   4.853   2.331   4.783 -1.5034  0.6505 -1.3641
   80MOL   H23524093   5.163   2.164   5.037  0.8099  0.1981 -0.1892
   80MOL   H23624094   5.274   2.236   4.932 -0.1686 -0.3664 -1.1527
   80MOL   H23724095   5.307   2.303   5.159  1.3464 -1.6811 -2.8757
   80MOL   H23824096   5.267   2.439   5.045 -1.5486 -0.8064 -0.7955
   80MOL   H23924097   5.150   2.387   5.169 -1.3381 -0.6251 -0.9332
   80MOL   H24024098   4.987   2.176   4.576 -1.9076 -0.0247 -1.9309
   80MOL   H24124099   4.832   2.262   4.558  0.6886  1.8255 -0.9891
   80MOL   C24224100   5.014   2.389   4.579 -0.3690  0.1606 -0.3356
   80MOL   O24324101   5.056   2.360   4.440 -0.4927  0.0582  0.3080
   80MOL   C24424102   5.187   2.366   4.397  0.4606  0.6326  0.5121
   80MOL   O24524103   5.285   2.395   4.464  0.3693  0.1256 -0.5771
   80MOL   C24624104   5.205   2.329   4.250 -0.1979  0.5675 -0.6113
   80MOL   C24724105   5.157   2.191   4.208  0.0059 -0.1979  0.0144
   80MOL   C24824106   4.928   2.512   4.581  0.0368 -0.0585  0.4061
   80MOL   H24924107   5.101   2.391   4.644 -0.5201 -0.2543 -0.1190
   80MOL   H25024108   5.163   2.413   4.193 -1.3983  1.4639  1.5441
   80MOL   H25124109   5.312   2.344   4.244 -0.2045  0.5523 -0.7798
   80MOL   H25224110   5.193   2.118   4.281  1.2089 -0.9456 -1.3079
   80MOL   H25324111   5.048   2.191   4.210  0.0057 -1.4717  1.5484
   80MOL   H25424112   5.187   2.167   4.106 -0.6153  0.3944 -0.3121
   80MOL   H25524113   4.839   2.496   4.520  0.1083  1.0804 -0.0194
   80MOL   H25624114   4.882   2.538   4.676 -1.1211  0.6006 -0.3189
   80MOL   C25724115   4.994   2.644   4.533 -0.1836  0.0747 -0.5254
   80MOL   O25824116   4.885   2.737   4.523  0.3192 -0.6000 -0.4364
   80MOL   C25924117   4.870   2.819   4.418  1.0004 -0.1074  0.1125
   80MOL   O26024118   4.946   2.829   4.324  0.4514 -0.8094  0.1530
   80MOL   C26124119   4.742   2.905   4.434 -0.4304  0.0524 -0.3251
   80MOL   C26224120   4.628   2.831   4.500 -0.5391  0.6418  0.3815
   80MOL   C26324121   5.084   2.705   4.642 -0.7097 -0.9888  0.0497
   80MOL   H26424122   5.042   2.643   4.436 -0.0304 -0.5509 -0.4428
   80MOL   H26524123   4.757   2.996   4.492 -0.3045  1.9238 -3.1978
   80MOL   H26624124   4.713   2.944   4.336 -3.1875  0.9770  0.8057
   80MOL   H26724125   4.531   2.880   4.501 -0.7988  0.1366  2.1760
   80MOL   H26824126   4.619   2.732   4.454  1.1927  1.0780 -0.9314
   80MOL   H26924127   4.653   2.800   4.602  0.4213  0.7554  0.1832
   80MOL   H27024128   5.029   2.733   4.731  2.5610  0.1423  1.8200
   80MOL   H27124129   5.151   2.630   4.683 -1.6470 -1.4055  0.8230
   80MOL   C27224130   5.172   2.818   4.597  0.0480 -0.0463 -0.5790
   80MOL   O27324131   5.188   2.906   4.706  0.6156 -0.1269  0.0668
   80MOL   C27424132   5.087   3.005   4.736 -0.1439  0.3031 -0.2749
   80MOL   O27524133   4.986   3.027   4.671 -0.1133 -0.2907  0.2222
   80MOL   C27624134   5.110   3.097   4.854  0.6588  0.2734 -0.0430
   80MOL   C27724135   5.179   3.233   4.811 -0.2516 -0.6481  0.7001
   80MOL   C27824136   5.312   2.767   4.545 -0.0203 -0.4096 -0.1909
   80MOL   H27924137   5.129   2.868   4.510  0.3658  2.5171  0.7132
   80MOL   H28024138   5.020   3.102   4.915  1.3497  0.1711  0.9979
   80MOL   H28124139   5.185   3.044   4.913  1.2536 -0.0544 -1.0855
   80MOL   H28224140   5.143   3.291   4.726  0.6119  0.0841  0.8277
   80MOL   H28324141   5.167   3.296   4.899  0.3461 -1.8076  1.6238
   80MOL   H28424142   5.285   3.210   4.797 -1.0374 -2.7232 -2.4467
   80MOL   H28524143   5.303   2.683   4.476 -0.2444 -0.8453  0.3686
   80MOL   H28624144   5.362   2.844   4.486 -1.7747 -0.6063 -1.9991
   80MOL   C28724145   5.414   2.718   4.646 -0.1550  0.6482  0.7218
   80MOL   O28824146   5.524   2.664   4.571 -0.0938  0.6350  0.1080
   80MOL   C28924147   5.579   2.532   4.595 -0.5081  0.0367 -0.1320
   80MOL   O29024148   5.549   2.449   4.678  0.1982 -0.0480 -0.5138
   80MOL   C29124149   5.695   2.511   4.498 -0.6076  0.8041 -0.4288
   80MOL   C29224150   5.643   2.487   4.349  0.8609 -0.8351 -0.1601
   80MOL   C29324151   5.483   2.829   4.730  0.3216 -0.9467  0.1812
   80MOL   H29424152   5.370   2.638   4.705 -0.5734  0.1278 -0.2904
   80MOL   H29524153   5.754   2.602   4.500 -2.1782  1.8390 -0.3910
   80MOL   H29624154   5.764   2.430   4.524 -1.0789  0.3828 -0.4845
   80MOL   H29724155   5.728   2.500   4.283 -0.4874  1.4959 -1.5057
   80MOL   H29824156   5.616   2.384   4.327  0.0555 -0.7701  0.4906
   80MOL   H29924157   5.567   2.564   4.334 -0.2917 -1.6390  1.3837
   80MOL   H30024158   5.570   2.796   4.787  2.1096 -1.5794 -2.8221
   80MOL   H30124159   5.515   2.913   4.669  0.0812  1.2479  2.9261
   80MOL   H30224160   5.403   2.875   4.788  2.2557  4.5641 -1.1702
   81MOL     C124161   7.708   3.119   7.702  0.2027 -0.3227  0.0000
   81MOL     O224162   7.627   3.010   7.650 -0.1314  0.4623  0.6741
   81MOL     C324163   7.677   2.913   7.579  0.6929 -0.4271  0.0491
   81MOL     O424164   7.788   2.914   7.533 -0.2939  0.6133  0.7395
   81MOL     C524165   7.586   2.793   7.572  0.1560  0.1152 -0.3192
   81MOL     C624166   7.579   2.722   7.704  0.2938  0.6558 -0.5075
   81MOL     C724167   7.672   3.240   7.619  0.5730  0.0939 -0.1962
   81MOL     H824168   7.814   3.098   7.711  0.5807  1.1012 -1.0735
   81MOL     H924169   7.485   2.822   7.542 -0.0731 -0.8824 -0.5093
   81MOL    H1024170   7.613   2.726   7.490  0.2645 -0.7459  0.4229
   81MOL    H1124171   7.510   2.638   7.713  0.5076  0.5298  0.0144
   81MOL    H1224172   7.675   2.679   7.733 -0.0795  0.8985  1.1195
   81MOL    H1324173   7.556   2.786   7.789 -1.7528  2.2724 -2.2280
   81MOL    H1424174   7.706   3.237   7.516 -0.4344  0.1959 -0.5392
   81MOL    H1524175   7.565   3.258   7.630  0.5775  0.4438 -0.7632
   81MOL    H1624176   7.689   3.143   7.806 -1.8108  0.4930 -0.5111
   81MOL    C1724177   7.738   3.361   7.687 -0.6863  0.4369  0.0165
   81MOL    O1824178   7.875   3.339   7.695 -0.0693  0.1925  0.4563
   81MOL    C1924179   0.001   3.356   7.807 -0.5135 -0.4773 -0.3797
   81MOL    O2024180   7.891   3.384   7.917  0.0368 -0.2327  0.6539
   81MOL    C2124181   0.150   3.333   7.802  0.6219 -0.0379 -0.6399
   81MOL    C2224182   0.211   3.403   7.681  0.0354 -0.6060 -0.1865
   81MOL    C2324183   7.724   3.497   7.609 -0.3649  0.5258  0.2440
   81MOL    H2424184   7.687   3.369   7.783 -1.8407  1.0264 -0.6407
   81MOL    H2524185   0.185   3.359   7.902 -1.9976 -1.3283  0.6581
   81MOL    H2624186   0.180   3.231   7.779 -0.0746 -0.5246  0.5734
   81MOL    H2724187   0.317   3.428   7.689  0.5644 -2.5784 -0.7963
   81MOL    H2824188   0.198   3.345   7.590 -0.0177 -1.0429  0.0996
   81MOL    H2924189   0.156   3.494   7.656  1.3895 -0.5365 -3.0193
   81MOL    H3024190   7.788   3.478   7.523  1.0331 -3.1746  2.0003
   81MOL    H3124191   7.621   3.510   7.576  0.0971 -0.0706 -1.4722
   81MOL    C3224192   7.779   3.623   7.680 -0.0440  0.6593  0.0003
   81MOL    O3324193   7.758   3.738   7.586  0.9872  0.7233 -0.6510
   81MOL    C3424194   7.841   3.745   7.477  0.5735 -0.0224 -0.0347
   81MOL    O3524195   7.938   3.672   7.455  0.3912  0.1791 -0.7318
   81MOL    C3624196   7.799   3.854   7.375  0.1867  0.0653 -0.2466
   81MOL    C3724197   7.760   3.778   7.245  0.7519  0.6947  0.2505
   81MOL    C3824198   7.719   3.656   7.814 -0.1747 -0.0455  0.3886
   81MOL    H3924199   7.886   3.609   7.696 -0.1705 -2.5926 -1.5680
   81MOL    H4024200   7.715   3.901   7.426 -0.2087  0.5085 -1.3022
   81MOL    H4124201   7.867   3.937   7.354 -2.7634  2.6744  0.1855
   81MOL    H4224202   7.697   3.841   7.182  1.7134  1.5688  0.1447
   81MOL    H4324203   7.856   3.744   7.205  1.2180  1.6536  0.5291
   81MOL    H4424204   7.697   3.691   7.263 -1.7723  2.5269  0.5969
   81MOL    H4524205   7.759   3.590   7.892  2.9423  1.9756  0.6042
   81MOL    H4624206   7.758   3.756   7.831 -0.8333  0.7882 -2.6971
   81MOL    C4724207   7.558   3.664   7.818 -0.0039 -0.1908  0.0193
   81MOL    O4824208   7.523   3.621   7.944 -0.5699  0.3475  0.3391
   81MOL    C4924209   7.477   3.499   0.022 -0.1342  0.1997  0.5284
   81MOL    O5024210   7.469   3.412   7.876 -0.0117 -0.2112  0.0488
   81MOL    C5124211   7.465   3.468   0.175 -0.3117 -0.3932  0.1520
   81MOL    C5224212   7.360   3.360   0.201 -0.9080  0.0145 -0.3404
   81MOL    C5324213   7.504   3.810   7.791  0.6129 -0.1567  0.4373
   81MOL    H5424214   7.510   3.624   7.730  0.6837  1.0481 -0.9426
   81MOL    H5524215   7.562   3.435   0.214  0.0186  0.6328  0.2182
   81MOL    H5624216   7.441   3.558   0.231 -0.7351 -0.1802 -0.3655
   81MOL    H5724217   7.350   3.331   0.306  2.6415 -0.1407  0.0221
   81MOL    H5824218   7.267   3.398   0.158 -0.1047  1.7057 -0.6058
   81MOL    H5924219   7.373   3.272   0.138 -0.8146  0.6704 -1.2430
   81MOL    H6024220   7.508   3.870   7.882 -0.6436  0.8227 -0.1337
   81MOL    H6124221   7.566   3.866   7.722  1.3130 -3.3588 -1.6417
   81MOL    C6224222   7.356   3.811   7.740  1.1908 -0.2931 -0.9218
   81MOL    O6324223   7.263   3.796   7.849  0.7333 -0.2614  0.2270
   81MOL    C6424224   7.183   3.688   7.862  0.0936 -0.3505 -0.4736
   81MOL    O6524225   7.175   3.586   7.790  0.3151  0.2586 -0.6061
   81MOL    C6624226   7.093   3.687   0.044 -0.3870  0.0740  0.1318
   81MOL    C6724227   7.149   3.784   0.148  0.2952 -0.4697  0.4495
   81MOL    C6824228   7.309   3.928   7.661  0.4261 -0.0442  0.3100
   81MOL    H6924229   7.343   3.720   7.682 -2.1395  0.1431 -0.9692
   81MOL    H7024230   6.995   3.710   0.000 -0.9130 -0.9455  0.7447
   81MOL    H7124231   7.108   3.585   0.081 -0.5346 -0.2208 -0.6063
   81MOL    H7224232   7.126   3.890   0.134 -0.3543 -0.5460  0.8813
   81MOL    H7324233   7.117   3.769   0.251  0.3864  0.5249  0.6262
   81MOL    H7424234   7.258   3.784   0.154  0.3045  0.2958  0.2977
   81MOL    H7524235   7.207   3.910   7.625 -0.3283  2.2972  1.1593
   81MOL    H7624236   7.284   4.011   7.728  0.1247  0.7029 -0.7128
   81MOL    C7724237   7.378   3.974   7.529 -0.4874 -0.3030 -0.0348
   81MOL    O7824238   7.497   4.042   7.560  0.7315 -0.9974 -0.0887
   81MOL    C7924239   7.502   4.181   7.556  0.4321  0.3529  0.6431
   81MOL    O8024240   7.404   4.256   7.538 -0.0088  0.5649  0.0099
   81MOL    C8124241   7.640   4.234   7.580 -0.6096  0.3808  0.1912
   81MOL    C8224242   7.649   4.386   7.612 -0.0354  0.5330  0.1533
   81MOL    C8324243   7.413   3.880   7.418  0.7365 -0.3547 -0.0444
   81MOL    H8424244   7.306   4.037   7.475 -0.0481 -0.5663 -0.9449
   81MOL    H8524245   7.673   4.173   7.664  0.0712  0.7771  0.2146
   81MOL    H8624246   7.708   4.213   7.497 -1.1221 -1.2082  0.1558
   81MOL    H8724247   7.594   4.449   7.542  0.8670  1.4910  0.2975
   81MOL    H8824248   7.620   4.416   7.712 -4.3836 -0.6273 -0.6668
   81MOL    H8924249   7.755   4.413   7.605  0.3570 -0.4043  2.1718
   81MOL    H9024250   7.496   3.816   7.448 -0.1735 -2.1046 -1.1554
   81MOL    H9124251   7.336   3.803   7.429 -0.9036  1.4444  1.4665
   81MOL    C9224252   7.427   3.941   7.278  0.3719 -0.0996 -0.5452
   81MOL    O9324253   7.542   4.028   7.280  0.5198 -0.2782 -0.2401
   81MOL    C9424254   7.580   4.094   7.177  0.0570  0.6234  0.3179
   81MOL    O9524255   7.540   4.074   7.061 -0.3800 -0.1712  0.4341
   81MOL    C9624256   7.684   4.192   7.203  0.2502 -0.0906 -0.0147
   81MOL    C9724257   7.624   4.342   7.222  0.2846 -0.0254  0.3585
   81MOL    C9824258   7.420   3.828   7.175 -0.1025 -0.0125  0.7323
   81MOL    H9924259   7.349   4.016   7.264 -0.2572 -0.2517  1.9100
   81MOL   H10024260   7.741   4.162   7.291 -3.2337 -2.6239  1.4515
   81MOL   H10124261   7.744   4.186   7.112  0.3308  1.5353 -0.0862
   81MOL   H10224262   7.703   4.412   7.248 -0.3411  0.8797 -0.1650
   81MOL   H10324263   7.577   4.382   7.132 -1.9511  0.8177  1.8619
   81MOL   H10424264   7.545   4.346   7.297  0.6236  0.7490  0.6768
   81MOL   H10524265   7.441   3.865   7.075 -0.9945  0.0787  0.5776
   81MOL   H10624266   7.499   3.756   7.200  0.2533  0.0210 -0.2685
   81MOL   C10724267   7.281   3.764   7.163  0.1147 -0.3785 -0.7274
   81MOL   O10824268   7.196   3.871   7.117 -0.3488  0.7467 -0.2572
   81MOL   C10924269   7.107   3.922   7.205 -0.2743 -0.5914 -0.8966
   81MOL   O11024270   7.083   3.873   7.313  0.4177 -0.2647 -0.0232
   81MOL   C11124271   7.049   4.054   7.161  0.8712  0.3788 -0.2619
   81MOL   C11224272   6.908   4.078   7.212 -0.1225 -0.1704  0.3269
   81MOL   C11324273   7.267   3.658   7.054  0.2216 -0.2541  0.6424
   81MOL   H11424274   7.263   3.715   7.258  0.1715 -0.4943 -0.7747
   81MOL   H11524275   7.114   4.124   7.212  1.0624  0.3051 -0.4037
   81MOL   H11624276   7.063   4.071   7.055 -1.2652 -2.4121 -1.0616
   81MOL   H11724277   6.835   4.001   7.185 -1.1238 -0.1351  2.8666
   81MOL   H11824278   6.912   4.079   7.320 -1.6790  0.2181  0.3916
   81MOL   H11924279   6.865   4.168   7.168 -0.1809  0.1063  0.9527
   81MOL   H12024280   7.159   3.648   7.046  0.2311 -0.2264  0.4990
   81MOL   H12124281   7.300   3.702   6.960 -2.1805 -0.1029 -0.1645
   81MOL   C12224282   7.316   3.522   7.087 -0.1904 -0.8281 -0.6129
   81MOL   O12324283   7.241   3.469   7.194 -0.1665 -0.0597  0.0324
   81MOL   C12424284   7.273   3.473   7.324 -0.2709  0.2576 -0.3646
   81MOL   O12524285   7.378   3.520   7.378 -0.3473 -0.3813 -0.4750
   81MOL   C12624286   7.161   3.422   7.411  0.3999 -0.1293  0.9848
   81MOL   C12724287   7.023   3.483   7.379  0.3776 -0.0320  0.2958
   81MOL   C12824288   7.308   3.421   6.973  0.3004  0.0377 -0.1394
   81MOL   H12924289   7.423   3.526   7.112  0.2321  0.5496 -2.5781
   81MOL   H13024290   7.167   3.313   7.415  1.5008 -0.1327 -0.6516
   81MOL   H13124291   7.197   3.446   7.511  1.2342 -0.5309  0.7853
   81MOL   H13224292   7.000   3.443   7.280  1.0209  0.4071 -0.0372
   81MOL   H13324293   6.946   3.444   7.445  0.3554  0.4251  0.5379
   81MOL   H13424294   7.017   3.590   7.360  0.6392  0.4115  2.5611
   81MOL   H13524295   7.339   3.471   6.881 -1.0348 -1.2230 -1.3074
   81MOL   H13624296   7.387   3.348   6.991 -0.3141  0.1641  3.3505
   81MOL   C13724297   7.176   3.351   6.949  0.0989  0.1872  0.8107
   81MOL   O13824298   7.074   3.451   6.927 -0.4166 -0.1636 -0.3055
   81MOL   C13924299   6.947   3.430   6.980  0.2344 -0.3828  0.3447
   81MOL   O14024300   6.913   3.340   7.060  0.4599 -0.4293  0.2109
   81MOL   C14124301   6.850   3.536   6.934  0.0041 -0.4597  0.8373
   81MOL   C14224302   6.791   3.606   7.061  0.0528 -1.0508 -0.1483
   81MOL   C14324303   7.172   3.258   6.823 -0.3954  0.2933  0.0661
   81MOL   H14424304   7.143   3.290   7.033 -1.0054  0.0989  0.3286
   81MOL   H14524305   6.898   3.615   6.876 -0.3357 -0.3214  0.7448
   81MOL   H14624306   6.782   3.484   6.866  0.0535 -0.0923  0.5049
   81MOL   H14724307   6.747   3.531   7.127 -0.8190 -0.8282 -0.4776
   81MOL   H14824308   6.877   3.653   7.109  0.2576  2.5631 -3.8483
   81MOL   H14924309   6.716   3.683   7.044  0.4649 -0.6704 -0.2537
   81MOL   H15024310   7.069   3.237   6.792 -0.2113 -0.4604 -0.0520
   81MOL   H15124311   7.203   3.316   6.737 -0.2447  3.3533  2.1108
   81MOL   C15224312   7.220   3.115   6.831 -0.9471 -0.8956 -0.0257
   81MOL   O15324313   7.363   3.124   6.835 -0.1027  0.3354 -0.2162
   81MOL   C15424314   7.438   3.027   6.800 -1.0111 -0.6416 -0.5170
   81MOL   O15524315   7.406   2.917   6.765  0.2137  0.4868  0.3965
   81MOL   C15624316   7.587   3.062   6.791 -0.0179 -0.2149 -0.4177
   81MOL   C15724317   7.623   3.145   6.665  0.4169  0.4503  0.1466
   81MOL   C15824318   7.164   3.026   6.953  0.6249 -0.0980 -0.1360
   81MOL   H15924319   7.202   3.064   6.736 -2.6050  2.8906 -1.8169
   81MOL   H16024320   7.607   3.139   6.866 -0.7779 -0.9117  0.5177
   81MOL   H16124321   7.649   2.975   6.811 -0.9898 -1.3831 -2.3941
   81MOL   H16224322   7.643   3.070   6.588  1.2868  0.5505  0.2687
   81MOL   H16324323   7.542   3.213   6.641  2.0345  2.3875  0.0792
   81MOL   H16424324   7.714   3.204   6.679  0.8651 -0.1984  0.0478
   81MOL   H16524325   7.207   2.926   6.946  0.4357 -0.1468 -0.6649
   81MOL   H16624326   7.188   3.064   7.052 -2.0290  0.6517  0.2753
   81MOL   C16724327   7.010   3.007   6.954  0.5966 -0.5719 -0.3701
   81MOL   O16824328   6.971   2.944   6.837  0.1842  0.1068 -0.6265
   81MOL   C16924329   6.876   2.994   6.757 -0.0866  0.7061  0.0378
   81MOL   O17024330   6.802   3.086   6.787  0.1002  0.0364 -0.4311
   81MOL   C17124331   6.862   2.927   6.615 -0.3703 -0.0484  0.0898
   81MOL   C17224332   6.782   3.018   6.515 -0.0426  0.4194 -0.2151
   81MOL   C17324333   6.955   2.943   7.077 -0.1460 -0.2095  0.4007
   81MOL   H17424334   6.970   3.108   6.951  0.6067 -0.5400  0.5197
   81MOL   H17524335   6.959   2.900   6.575 -0.4584  0.9369 -0.8099
   81MOL   H17624336   6.807   2.834   6.624  0.2688 -0.3487  0.9998
   81MOL   H17724337   6.688   3.045   6.563  1.3075  2.2513  1.4926
   81MOL   H17824338   6.837   3.112   6.513 -0.2915  0.5445 -1.4755
   81MOL   H17924339   6.778   2.964   6.421  3.3772 -0.0006 -0.1869
   81MOL   H18024340   6.962   3.012   7.160  1.3041 -0.1284  0.2230
   81MOL   H18124341   6.847   2.928   7.074 -0.1570  0.0641 -0.7085
   81MOL   C18224342   7.021   2.810   7.129 -0.2480  0.1244  0.1635
   81MOL   O18324343   7.011   2.807   7.269 -0.1639 -0.1334  0.4820
   81MOL   C18424344   7.105   2.848   7.345  0.4554  0.4511 -0.7543
   81MOL   O18524345   7.220   2.882   7.319  0.2599 -0.1144 -0.3226
   81MOL   C18624346   7.056   2.846   7.491  0.1127 -0.0593  0.3009
   81MOL   C18724347   7.052   2.706   7.564 -0.5758 -0.0448 -0.3455
   81MOL   C18824348   6.957   2.688   7.064  0.1220  0.0570  0.3718
   81MOL   H18924349   7.122   2.816   7.089  0.3868 -0.0047  1.6905
   81MOL   H19024350   7.128   2.916   7.534 -0.3278 -0.2931  1.4373
   81MOL   H19124351   6.960   2.897   7.489 -0.0742 -0.4420 -0.6308
   81MOL   H19224352   7.053   2.616   7.502  0.6631  0.3595 -0.9390
   81MOL   H19324353   7.148   2.690   7.612 -0.4859  0.9869 -0.1804
   81MOL   H19424354   6.971   2.710   7.637 -0.9134  2.6010 -0.8031
   81MOL   H19524355   6.872   2.652   7.122 -0.1527 -0.1455 -0.1500
   81MOL   H19624356   6.918   2.709   6.965 -3.1468 -4.0221  0.6533
   81MOL   C19724357   7.050   2.560   7.034 -0.2247 -0.9098  0.1315
   81MOL   O19824358   7.113   2.541   7.157  0.3801 -0.0523 -0.7124
   81MOL   C19924359   7.233   2.475   7.166 -0.3588 -0.3428 -0.1816
   81MOL   O20024360   7.308   2.436   7.072 -0.5039  0.0908 -0.4317
   81MOL   C20124361   7.291   2.463   7.308  0.1964 -0.2288 -0.0692
   81MOL   C20224362   7.202   2.379   7.402 -0.2154  0.3331 -0.5558
   81MOL   C20324363   6.996   2.422   6.974  0.4430 -0.5858 -0.3540
   81MOL   H20424364   7.119   2.603   6.962 -1.8028  0.6611 -0.4694
   81MOL   H20524365   7.379   2.402   7.289  1.6320  1.1852  1.8229
   81MOL   H20624366   7.306   2.561   7.352 -0.0030 -0.8130  1.3300
   81MOL   H20724367   7.221   2.274   7.385 -1.2789  0.4439 -2.6297
   81MOL   H20824368   7.240   2.391   7.503  1.4701 -1.7070 -0.9259
   81MOL   H20924369   7.097   2.412   7.402 -0.9256 -1.8101  1.9447
   81MOL   H21024370   7.067   2.339   6.975  0.0375 -0.9268  0.4256
   81MOL   H21124371   6.915   2.402   7.044  0.6230  0.1384  0.0613
   81MOL   C21224372   6.942   2.425   6.832  0.7662 -0.0598  0.0300
   81MOL   O21324373   7.038   2.437   6.733 -0.2543 -0.1243 -0.0401
   81MOL   C21424374   7.053   2.547   6.654  0.1443 -0.4370  0.2348
   81MOL   O21524375   7.000   2.655   6.679 -0.2339  0.1491 -0.0675
   81MOL   C21624376   7.161   2.528   6.551 -0.6412  0.7959  0.3528
   81MOL   C21724377   7.200   2.662   6.485  0.1039  0.8664  0.1150
   81MOL   C21824378   6.857   2.299   6.788 -0.9083 -0.2783  0.4891
   81MOL   H21924379   6.883   2.517   6.831 -1.0866 -1.2115 -0.5958
   81MOL   H22024380   7.235   2.462   6.596 -1.2076 -0.7411 -0.9235
   81MOL   H22124381   7.127   2.461   6.472 -0.2164  0.2060  0.6680
   81MOL   H22224382   7.119   2.725   6.449 -1.5490 -0.2646  1.7943
   81MOL   H22324383   7.263   2.717   6.555  0.8101 -2.2866  2.0489
   81MOL   H22424384   7.265   2.644   6.399 -1.2904 -0.3950 -0.7074
   81MOL   H22524385   6.853   2.312   6.680  2.8668  1.8100  0.4889
   81MOL   H22624386   6.919   2.212   6.809 -0.8690 -0.0942  1.1506
   81MOL   C22724387   6.719   2.297   6.857 -0.6258 -0.3230 -0.0015
   81MOL   O22824388   6.643   2.415   6.826  0.1325  0.6850 -0.1899
   81MOL   C22924389   6.593   2.489   6.931 -0.4138  0.1252 -0.0893
   81MOL   O23024390   6.601   2.468   7.048  0.2378 -0.4063  0.4590
   81MOL   C23124391   6.516   2.613   6.884  0.5310 -0.1555 -0.6009
   81MOL   C23224392   6.613   2.698   6.797  0.1007  0.0887 -0.7409
   81MOL   C23324393   6.641   2.176   6.806 -0.3398  0.0286 -0.3097
   81MOL   H23424394   6.737   2.309   6.964 -0.6675  1.0787 -0.1432
   81MOL   H23524395   6.432   2.569   6.830  0.5581 -0.5008 -0.3627
   81MOL   H23624396   6.472   2.675   6.962  0.4962 -1.3180  0.3098
   81MOL   H23724397   6.639   2.788   6.851 -1.3832  1.0244 -1.5573
   81MOL   H23824398   6.704   2.651   6.758  0.2476 -0.0736 -0.2067
   81MOL   H23924399   6.568   2.731   6.704  2.1192  0.8273 -1.4755
   81MOL   H24024400   6.581   2.205   6.720  0.1403  0.0410 -0.6426
   81MOL   H24124401   6.715   2.106   6.767  0.7491  0.4755  0.8782
   81MOL   C24224402   6.555   2.095   6.910  0.4477 -0.3280 -0.2695
   81MOL   O24324403   6.447   2.177   6.963 -0.1942  0.9617  0.0201
   81MOL   C24424404   6.430   2.184   7.091  0.8724 -0.6453 -0.5082
   81MOL   O24524405   6.471   2.108   7.176  1.2600  0.1356  0.3184
   81MOL   C24624406   6.325   2.287   7.128  0.1112  0.0991 -0.0546
   81MOL   C24724407   6.351   2.369   7.256  0.0270  0.0656 -0.0636
   81MOL   C24824408   6.490   1.970   6.853  0.4630  0.1760 -0.0532
   81MOL   H24924409   6.614   2.069   6.997  0.0004  1.6231  0.6597
   81MOL   H25024410   6.304   2.352   7.044  2.9409 -0.0717 -0.9388
   81MOL   H25124411   6.228   2.237   7.137  0.1529 -0.3130 -1.8090
   81MOL   H25224412   6.312   2.471   7.250 -0.7232 -0.2722 -1.3155
   81MOL   H25324413   6.309   2.327   7.347  2.5647 -0.7874  0.7561
   81MOL   H25424414   6.456   2.389   7.278  0.5281 -3.6638  1.1222
   81MOL   H25524415   6.423   1.929   6.927 -2.6279  2.8405 -1.2682
   81MOL   H25624416   6.420   1.984   6.771 -2.6507 -0.9640  2.3130
   81MOL   C25724417   6.588   1.851   6.822  0.3577 -0.0216 -0.3077
   81MOL   O25824418   6.616   1.793   6.951 -0.2983 -0.4946 -0.2906
   81MOL   C25924419   6.755   1.764   6.989  0.2184 -0.0068 -0.7716
   81MOL   O26024420   6.852   1.801   6.918 -0.1996 -0.4935 -0.3220
   81MOL   C26124421   6.775   1.691   7.119 -0.1118  0.0879 -0.9542
   81MOL   C26224422   6.786   1.792   7.234 -0.3707  0.6061 -0.0680
   81MOL   C26324423   6.529   1.743   6.732  0.5678  0.6243 -0.2086
   81MOL   H26424424   6.677   1.894   6.774 -0.0466  0.0522 -0.9966
   81MOL   H26524425   6.697   1.619   7.143 -0.0513  0.2454 -0.2882
   81MOL   H26624426   6.870   1.637   7.111 -0.4365 -0.7486  0.7819
   81MOL   H26724427   6.880   1.845   7.220 -0.2103  1.1235  2.7588
   81MOL   H26824428   6.700   1.859   7.240 -1.8997 -1.4227  1.5299
   81MOL   H26924429   6.789   1.745   7.332  1.0735 -0.1813 -0.4807
   81MOL   H27024430   6.589   1.652   6.741  1.4338  0.9402 -2.6381
   81MOL   H27124431   6.438   1.714   6.786  1.0509  1.1832  0.9307
   81MOL   C27224432   6.501   1.787   6.589 -1.0683 -0.1246 -0.3111
   81MOL   O27324433   6.625   1.835   6.523 -0.0116  0.1963 -0.1460
   81MOL   C27424434   6.632   1.963   6.490  0.6150  1.0464 -1.0250
   81MOL   O27524435   6.551   2.049   6.525 -0.1501 -0.0799 -0.0606
   81MOL   C27624436   6.756   1.994   6.405  0.5189  0.2304 -0.0200
   81MOL   C27724437   6.804   2.137   6.414  0.2201 -0.0890 -0.7622
   81MOL   C27824438   6.423   1.692   6.504  0.8191 -0.9435 -0.4692
   81MOL   H27924439   6.434   1.872   6.606 -1.7048 -1.1532  2.5371
   81MOL   H28024440   6.829   1.913   6.404  0.1613 -0.0843 -0.9452
   81MOL   H28124441   6.722   1.987   6.302  1.1175 -2.3519 -0.0835
   81MOL   H28224442   6.835   2.179   6.318  0.0788 -0.0826 -0.8046
   81MOL   H28324443   6.729   2.199   6.462 -0.2321  0.3924 -2.0566
   81MOL   H28424444   6.893   2.133   6.476  0.0968  0.6411 -0.5306
   81MOL   H28524445   6.471   1.595   6.511 -0.9433 -1.6681  2.4956
   81MOL   H28624446   6.323   1.686   6.546  0.7534  1.1531 -0.2575
   81MOL   C28724447   6.397   1.723   6.356 -0.2523  0.5756  0.4649
   81MOL   O28824448   6.312   1.620   6.304 -0.8035  0.1449  0.3679
   81MOL   C28924449   6.361   1.505   6.253  0.1734  0.0075  0.1202
   81MOL   O29024450   6.480   1.464   6.259 -0.3593 -0.4124 -0.5252
   81MOL   C29124451   6.249   1.420   6.196  0.0702 -0.4075 -0.2065
   81MOL   C29224452   6.305   1.298   6.117 -0.1256 -0.0644 -0.2254
   81MOL   C29324453   6.322   1.848   6.329 -0.1203 -0.3848 -0.0826
   81MOL   H29424454   6.484   1.738   6.292 -0.5570  0.5906  0.0575
   81MOL   H29524455   6.181   1.382   6.272  2.3172 -0.7562  1.6740
   81MOL   H29624456   6.188   1.481   6.128  1.4898  0.6256 -0.5688
   81MOL   H29724457   6.342   1.328   6.019  1.2910 -0.1401  0.2705
   81MOL   H29824458   6.388   1.243   6.160  0.1569 -0.1966 -0.9470
   81MOL   H29924459   6.230   1.227   6.084  0.0428 -0.6836  0.7067
   81MOL   H30024460   6.233   1.854   6.392 -1.5147 -2.5231 -1.7786
   81MOL   H30124461   6.370   1.944   6.347  1.1166 -0.9971 -0.0883
   81MOL   H30224462   6.278   1.856   6.229 -1.4468 -0.2431  0.5078
   82MOL     C124463   3.089   7.812   0.443  0.3881 -0.2201  0.0240
   82MOL     O224464   3.115   7.759   0.577 -0.3159  0.1326  0.0671
   82MOL     C324465   3.239   7.752   0.623 -0.2654 -0.1390 -0.2926
   82MOL     O424466   3.345   7.790   0.570 -0.2798 -0.0992 -0.4016
   82MOL     C524467   3.246   7.675   0.754  0.0737  0.1228  0.4258
   82MOL     C624468   3.293   7.762   0.867 -0.4730 -0.1557  0.3345
   82MOL     C724469   3.054   7.704   0.339 -0.0429  0.4945 -0.5859
   82MOL     H824470   3.171   7.872   0.403  0.5032 -1.0886 -1.0874
   82MOL     H924471   3.150   7.630   0.779 -0.1752  1.3884  1.7929
   82MOL    H1024472   3.314   7.592   0.736  2.1021  1.6410  0.9433
   82MOL    H1124473   3.395   7.796   0.852 -0.4678  0.0383  0.8014
   82MOL    H1224474   3.229   7.846   0.895 -0.8568  0.2657 -1.7282
   82MOL    H1324475   3.313   7.704   0.957 -1.1596  0.6683  1.0280
   82MOL    H1424476   3.038   7.742   0.239  0.3725  0.5860 -0.6168
   82MOL    H1524477   3.138   7.635   0.333 -1.6829 -1.5318 -1.2463
   82MOL    H1624478   3.004   7.879   0.444  1.8489  1.6631  0.7314
   82MOL    C1724479   2.915   7.629   0.364 -1.1033 -0.5176  0.1995
   82MOL    O1824480   2.804   7.719   0.347 -0.2775  0.0074 -0.9851
   82MOL    C1924481   2.712   7.733   0.439 -0.3855 -0.1000 -0.2114
   82MOL    O2024482   2.697   7.660   0.535 -0.5050 -0.2916 -0.2437
   82MOL    C2124483   2.606   7.841   0.411  0.6210 -0.0527 -0.2181
   82MOL    C2224484   2.563   7.844   0.272  0.3781  0.3953 -0.6557
   82MOL    C2324485   2.892   7.517   0.262 -0.8225  1.2143  0.4723
   82MOL    H2424486   2.924   7.584   0.464  0.2117 -1.5039 -0.3473
   82MOL    H2524487   2.523   7.834   0.481  0.3090  0.5291 -0.5318
   82MOL    H2624488   2.643   7.942   0.431 -0.1271  0.4213 -1.2084
   82MOL    H2724489   2.643   7.879   0.207 -2.4410  2.6218 -3.0916
   82MOL    H2824490   2.539   7.742   0.241 -1.9429  0.6403  0.2158
   82MOL    H2924491   2.471   7.903   0.279  0.5423  0.4247  1.5229
   82MOL    H3024492   2.790   7.479   0.264  0.1438 -1.4962  1.0910
   82MOL    H3124493   2.903   7.564   0.164 -1.5293 -1.4397 -0.9431
   82MOL    C3224494   2.992   7.405   0.287  0.4229 -0.8952 -0.3210
   82MOL    O3324495   2.927   7.337   0.393  0.0867  0.1376  0.6219
   82MOL    C3424496   2.983   7.345   0.520  0.3728  0.2296 -0.5364
   82MOL    O3524497   3.066   7.426   0.563  0.1688 -0.2498 -0.3828
   82MOL    C3624498   2.921   7.242   0.618  0.0384  0.4548  1.5372
   82MOL    C3724499   2.863   7.312   0.745  0.2674  0.1071 -0.2647
   82MOL    C3824500   2.991   7.300   0.168  0.1002  0.6427  0.4612
   82MOL    H3924501   3.092   7.440   0.309 -1.1482  1.5983  3.1812
   82MOL    H4024502   2.848   7.177   0.569  0.2124  3.4955 -3.0433
   82MOL    H4124503   3.001   7.174   0.647  0.0676 -1.6196 -3.0159
   82MOL    H4224504   2.923   7.402   0.758 -1.1764  1.0605 -0.0354
   82MOL    H4324505   2.755   7.328   0.739 -0.1385 -2.8657 -1.8301
   82MOL    H4424506   2.881   7.248   0.831  0.1171 -0.0729 -0.3698
   82MOL    H4524507   3.047   7.212   0.201  1.7093  1.4677 -0.0160
   82MOL    H4624508   2.890   7.259   0.163  0.4686 -0.0492 -3.4978
   82MOL    C4724509   3.056   7.338   0.032  0.0233  0.3476 -0.6306
   82MOL    O4824510   3.192   7.294   0.041  0.1112 -0.4458 -0.6546
   82MOL    C4924511   3.287   7.369   0.088  0.1650  0.2932 -0.2852
   82MOL    O5024512   3.263   7.472   0.142  0.2696  0.4951  0.1179
   82MOL    C5124513   3.425   7.298   0.091  0.6643 -0.1314 -0.6220
   82MOL    C5224514   3.426   7.191   0.199 -0.3678  0.3723 -0.4372
   82MOL    C5324515   2.993   7.282   7.856  0.2888  0.5229 -0.6465
   82MOL    H5424516   3.061   7.447   0.031 -0.4292  0.4009  1.0820
   82MOL    H5524517   3.425   7.258   7.934 -3.0696 -0.5766 -0.4937
   82MOL    H5624518   3.504   7.372   0.103  1.0382 -0.8502  1.5864
   82MOL    H5724519   3.408   7.237   0.296 -0.5011  0.1051 -0.3345
   82MOL    H5824520   3.340   7.125   0.198 -1.4609  1.7607 -1.9226
   82MOL    H5924521   3.519   7.135   0.205  0.6098  2.0234  0.0963
   82MOL    H6024522   3.052   7.294   7.766  0.8967 -0.9423 -0.4489
   82MOL    H6124523   2.987   7.174   7.861  0.7304  0.5392  0.4319
   82MOL    C6224524   2.852   7.344   7.818 -0.2727  0.3769 -0.5505
   82MOL    O6324525   2.869   7.482   7.774  0.2220 -0.4270 -0.2390
   82MOL    C6424526   2.812   7.583   7.834 -0.9005  0.3565 -0.6839
   82MOL    O6524527   2.741   7.570   7.934 -0.3188 -0.1866  0.0059
   82MOL    C6624528   2.853   7.720   7.790 -0.2979  0.4861  0.7074
   82MOL    C6724529   2.859   7.830   7.892  0.3309 -0.2820  0.0686
   82MOL    C6824530   2.785   7.268   7.706  0.3644 -0.0725 -0.0505
   82MOL    H6924531   2.784   7.335   7.902 -1.6303 -0.4804 -1.7336
   82MOL    H7024532   2.947   7.704   7.736 -1.0086 -0.2677 -0.3372
   82MOL    H7124533   2.774   7.735   7.717  0.4740  1.5867  0.0717
   82MOL    H7224534   2.768   7.825   0.008  0.4006 -0.8766  0.1262
   82MOL    H7324535   2.936   7.813   0.022  1.2987  1.4888 -0.4912
   82MOL    H7424536   2.877   7.929   7.849  2.8038 -0.9483 -0.4803
   82MOL    H7524537   2.845   7.272   7.615  1.5048 -0.9334  0.6454
   82MOL    H7624538   2.773   7.162   7.728 -1.6859  0.5511  2.0515
   82MOL    C7724539   2.649   7.327   7.666  0.6200 -0.1749  0.3909
   82MOL    O7824540   2.615   7.248   7.548  0.1712  0.2753 -0.1712
   82MOL    C7924541   2.586   7.313   7.437 -0.5392 -0.2846  0.4067
   82MOL    O8024542   2.598   7.434   7.420  0.3968 -0.0418  0.4107
   82MOL    C8124543   2.532   7.218   7.333  0.5138 -0.2278  0.8587
   82MOL    C8224544   2.386   7.191   7.345  0.1075  0.0779  0.0486
   82MOL    C8324545   2.536   7.308   7.770 -0.4417 -0.5817  0.0560
   82MOL    H8424546   2.663   7.433   7.646 -1.4332  0.0921  0.2690
   82MOL    H8524547   2.545   7.266   7.236  0.9147 -1.3326  0.3558
   82MOL    H8624548   2.596   7.130   7.328 -0.2021 -0.6541 -1.2042
   82MOL    H8724549   2.347   7.135   7.260 -0.6540  0.6827 -0.0074
   82MOL    H8824550   2.365   7.128   7.431  0.0878 -0.8574 -0.6323
   82MOL    H8924551   2.324   7.281   7.351  1.6019  0.9790  2.6786
   82MOL    H9024552   2.509   7.204   7.756 -1.3570 -0.4970  1.1288
   82MOL    H9124553   2.574   7.314   7.872 -1.0231  0.0802  0.2435
   82MOL    C9224554   2.413   7.406   7.740 -0.0123 -0.6167  0.0245
   82MOL    O9324555   2.298   7.354   7.809 -0.4226  0.2135  0.7198
   82MOL    C9424556   2.213   7.264   7.740  0.2796  0.1413  0.4953
   82MOL    O9524557   2.232   7.198   7.640 -0.1354 -0.1021  0.3049
   82MOL    C9624558   2.092   7.232   7.817  0.1566 -0.0833 -0.1352
   82MOL    C9724559   2.023   7.356   7.877 -0.6158 -0.0225 -0.4263
   82MOL    C9824560   2.426   7.547   7.794 -0.2074 -0.3451  0.1495
   82MOL    H9924561   2.401   7.406   7.632  4.5904 -2.1766 -0.6239
   82MOL   H10024562   2.034   7.158   7.761 -1.1189  0.3963  0.5366
   82MOL   H10124563   2.115   7.170   7.904 -0.5888 -0.1900 -0.0059
   82MOL   H10224564   1.921   7.322   7.898 -1.2079  0.3266 -2.5825
   82MOL   H10324565   2.081   7.386   0.020 -0.5644 -1.3377 -0.0019
   82MOL   H10424566   2.000   7.443   7.815 -2.4036  0.5782  1.0347
   82MOL   H10524567   2.430   7.549   7.903 -0.8369 -1.8171  0.2022
   82MOL   H10624568   2.515   7.600   7.758 -1.6003  1.4514 -0.7430
   82MOL   C10724569   2.300   7.637   7.755 -0.0045  0.1617 -0.4574
   82MOL   O10824570   2.294   7.747   7.852 -0.3638 -0.0205  0.4140
   82MOL   C10924571   2.216   7.745   0.012 -0.1982  0.3412 -0.1213
   82MOL   O11024572   2.151   7.644   0.042 -0.2466 -0.1684 -0.2034
   82MOL   C11124573   2.211   7.872   0.084 -0.0301 -0.0029 -0.2674
   82MOL   C11224574   2.174   0.052   7.943  1.0428 -0.0810  0.6868
   82MOL   C11324575   2.293   7.685   7.608  0.2556  0.2965  0.3237
   82MOL   H11424576   2.207   7.583   7.774 -0.9785  1.5083 -1.3064
   82MOL   H11524577   2.132   7.851   0.156  2.4104 -1.1121  2.2018
   82MOL   H11624578   2.301   7.888   0.144  0.1450 -0.1430 -0.4943
   82MOL   H11724579   2.105   0.021   7.865  1.6071  0.9554 -0.2344
   82MOL   H11824580   2.121   0.120   0.064 -1.1146 -0.3160 -0.7430
   82MOL   H11924581   2.266   0.098   7.906 -1.2194  2.6506 -1.7788
   82MOL   H12024582   2.315   7.594   7.553  3.2276  1.9752 -1.3834
   82MOL   H12124583   2.194   7.703   7.567  0.4475 -0.9019 -0.6981
   82MOL   C12224584   2.388   7.805   7.568  0.4716  0.3548  0.5741
   82MOL   O12324585   2.430   7.790   7.433 -0.3099 -0.6072  0.2483
   82MOL   C12424586   2.550   7.745   7.398 -0.0736 -0.0908  0.4883
   82MOL   O12524587   2.641   7.726   7.481  0.2508  0.3437  0.2314
   82MOL   C12624588   2.556   7.728   7.245 -0.4469 -0.4065  0.2796
   82MOL   C12724589   2.694   7.682   7.206  0.2533 -0.2396  0.2370
   82MOL   C12824590   2.305   7.935   7.582 -0.2055 -0.0628  0.1017
   82MOL   H12924591   2.477   7.799   7.630  0.7941  2.3287  0.3207
   82MOL   H13024592   2.472   7.666   7.215  0.0925 -1.2898  0.5650
   82MOL   H13124593   2.545   7.826   7.200  0.3927 -0.3857  0.1115
   82MOL   H13224594   2.768   7.754   7.241 -0.6998  1.8072 -1.7543
   82MOL   H13324595   2.727   7.591   7.255  2.1479  0.3571  0.0986
   82MOL   H13424596   2.703   7.679   7.097  1.8337  0.9532  0.3186
   82MOL   H13524597   2.231   7.939   7.502 -0.6285 -2.3954  0.3358
   82MOL   H13624598   2.257   7.940   7.679  0.9301 -0.2960  0.6908
   82MOL   C13724599   2.400   0.117   7.582 -0.1070  0.6145  0.2717
   82MOL   O13824600   2.321   0.239   7.589  0.3412 -0.6235  0.0068
   82MOL   C13924601   2.335   0.347   7.514 -0.0958  0.6185  0.3151
   82MOL   O14024602   2.419   0.352   7.424  0.3550 -0.2830 -0.2407
   82MOL   C14124603   2.246   0.468   7.539  0.0832 -0.3810  0.2829
   82MOL   C14224604   2.191   0.469   7.687  0.1422 -0.0255  0.2493
   82MOL   C14324605   2.519   0.118   7.685  0.0263 -0.1215 -0.0910
   82MOL   H14424606   2.432   0.125   7.478  0.5977  1.0788  0.5181
   82MOL   H14524607   2.303   0.561   7.546  0.5380 -0.6203 -0.2184
   82MOL   H14624608   2.168   0.479   7.463  1.0488  0.8467 -0.5595
   82MOL   H14724609   2.101   0.409   7.694 -0.1882  0.4822  0.3492
   82MOL   H14824610   2.269   0.433   7.754 -1.4639 -0.4914  1.8930
   82MOL   H14924611   2.162   0.569   7.719 -3.0962 -1.4234  1.8906
   82MOL   H15024612   2.482   0.162   7.778 -1.7708 -0.1531 -0.7667
   82MOL   H15124613   2.554   0.021   7.721 -0.0714 -0.7858 -1.7407
   82MOL   C15224614   2.642   0.201   7.637 -0.3885 -0.4467  0.2050
   82MOL   O15324615   2.719   0.228   7.748  0.1623  0.4486  0.1093
   82MOL   C15424616   2.706   0.340   7.822  0.1483  0.3719  0.0706
   82MOL   O15524617   2.617   0.420   7.812 -0.7340 -0.3237 -0.2692
   82MOL   C15624618   2.822   0.359   7.915  0.0980 -0.5328  0.0521
   82MOL   C15724619   2.770   0.360   0.119 -0.3434  0.0175  1.4561
   82MOL   C15824620   2.714   0.117   7.528  0.0459  0.5791 -0.0072
   82MOL   H15924621   2.609   0.300   7.607  1.3867  0.1709  0.2087
   82MOL   H16024622   2.891   0.274   7.912  0.5521 -0.2279  1.5531
   82MOL   H16124623   2.876   0.448   7.883 -0.0126 -0.4046  0.2229
   82MOL   H16224624   2.851   0.385   0.188  0.6537 -1.2402  0.7553
   82MOL   H16324625   2.697   0.440   0.127  0.0027  0.7387 -1.8582
   82MOL   H16424626   2.720   0.265   0.139  0.6839 -0.2766  2.7226
   82MOL   H16524627   2.777   0.035   7.563 -0.6965 -0.2293 -0.5377
   82MOL   H16624628   2.640   0.074   7.461  0.0657  3.3772 -1.9249
   82MOL   C16724629   2.795   0.194   7.426 -0.2095 -0.0103 -0.5271
   82MOL   O16824630   2.708   0.271   7.348  0.8161  0.6256  0.1603
   82MOL   C16924631   2.684   0.253   7.215  0.1014 -0.1051 -0.2660
   82MOL   O17024632   2.739   0.176   7.132 -0.5526  0.7467  0.1414
   82MOL   C17124633   2.581   0.348   7.175  0.1999  0.4800  0.0159
   82MOL   C17224634   2.558   0.388   7.023 -0.1426 -0.4917 -0.1294
   82MOL   C17324635   2.914   0.284   7.478 -0.6782  0.2697 -0.0764
   82MOL   H17424636   2.844   0.118   7.364  2.6137 -0.3471  1.9831
   82MOL   H17524637   2.483   0.320   7.212  0.6695 -2.0429 -0.6016
   82MOL   H17624638   2.607   0.447   7.214 -2.6861  1.4148 -0.3403
   82MOL   H17724639   2.650   0.393   6.966 -0.2182 -0.5040 -0.2537
   82MOL   H17824640   2.489   0.318   6.975 -0.6756 -1.4292  1.9526
   82MOL   H17924641   2.517   0.488   7.017 -1.7093 -1.1670 -0.9311
   82MOL   H18024642   2.962   0.347   7.402 -1.7998  0.3623 -0.7192
   82MOL   H18124643   2.873   0.370   7.531  0.6199  0.1019  1.2276
   82MOL   C18224644   3.014   0.208   7.566 -0.5865 -0.7735  0.2258
   82MOL   O18324645   3.082   0.125   7.471 -0.5275 -0.3934 -0.6888
   82MOL   C18424646   3.091   7.936   7.484  0.3060 -0.8924  0.4618
   82MOL   O18524647   3.038   7.873   7.571 -0.1348  0.2008  0.2945
   82MOL   C18624648   3.175   7.871   7.377  0.0543 -0.5231 -0.7054
   82MOL   C18724649   3.124   7.903   7.234  0.1591 -0.3514 -0.3192
   82MOL   C18824650   3.126   0.302   7.618  0.0345  0.3278 -0.2213
   82MOL   H18924651   2.974   0.148   7.648 -0.2885  0.8723  1.6054
   82MOL   H19024652   3.275   7.913   7.383  0.7608 -2.0841 -1.1484
   82MOL   H19124653   3.173   7.764   7.397  0.9856  0.0661  2.7502
   82MOL   H19224654   3.016   7.910   7.219 -0.1912  2.9961  3.1194
   82MOL   H19324655   3.167   0.051   7.197  2.0491 -0.8165  0.6466
   82MOL   H19424656   3.158   7.821   7.170 -1.4096  0.9332 -2.8958
   82MOL   H19524657   3.208   0.281   7.549  0.3139 -1.0899  0.5250
   82MOL   H19624658   3.092   0.405   7.604 -0.3740  0.2956  0.4938
   82MOL   C19724659   3.170   0.285   7.768  0.1661  0.1350 -0.3722
   82MOL   O19824660   3.199   0.142   7.779 -0.2805 -0.4267  0.3988
   82MOL   C19924661   3.153   0.069   7.877 -0.3963 -0.0477 -0.1328
   82MOL   O20024662   3.077   0.112   0.015  0.6420 -0.3057  0.6807
   82MOL   C20124663   3.187   7.869   7.863  0.1239  0.3437 -0.5453
   82MOL   C20224664   3.285   7.812   0.014 -0.0665  0.3418 -0.7673
   82MOL   C20324665   3.296   0.370   7.791 -0.2972  0.0937  0.5691
   82MOL   H20424666   3.092   0.313   7.839  0.4523 -1.7554  0.7031
   82MOL   H20524667   3.099   7.805   7.873  1.1818 -1.1130 -0.3724
   82MOL   H20624668   3.222   7.854   7.761  0.8561 -2.7495  0.0876
   82MOL   H20724669   3.302   7.706   7.940  0.5872  0.3021  0.0345
   82MOL   H20824670   3.381   7.863   0.003 -1.1459  2.6087  0.0083
   82MOL   H20924671   3.250   7.836   0.115 -0.5940  1.9396 -1.3039
   82MOL   H21024672   3.349   0.327   7.876 -1.2262 -0.1740  1.0097
   82MOL   H21124673   3.360   0.370   7.702 -0.4204 -2.9926  0.4309
   82MOL   C21224674   3.265   0.517   7.811 -0.0699 -0.0851  0.0993
   82MOL   O21324675   3.215   0.524   7.944  0.3096 -0.2693 -0.1284
   82MOL   C21424676   3.161   0.631   0.043  0.0334 -0.4100  0.3573
   82MOL   O21524677   3.135   0.730   7.919  0.1869  0.0781  0.3800
   82MOL   C21624678   3.136   0.619   0.193 -0.3954 -0.2725 -0.9073
   82MOL   C21724679   3.036   0.720   0.260  0.1200  0.0176 -0.7337
   82MOL   C21824680   3.398   0.600   7.805  0.2399 -0.3137 -0.1864
   82MOL   H21924681   3.194   0.565   7.743 -0.2020  1.9144  1.5843
   82MOL   H22024682   3.108   0.515   0.214 -0.1157  0.0951  1.4647
   82MOL   H22124683   3.231   0.640   0.242 -0.2001  0.9709 -1.8065
   82MOL   H22224684   2.999   0.796   0.192 -1.6781  2.3611  2.7646
   82MOL   H22324685   2.941   0.669   0.271 -0.7924  2.4142  3.5590
   82MOL   H22424686   3.084   0.768   0.345  0.1049 -0.5465 -0.3997
   82MOL   H22524687   3.374   0.701   7.837  0.8585 -0.7942  1.9272
   82MOL   H22624688   3.464   0.562   7.884  2.2608  0.1813 -1.6048
   82MOL   C22724689   3.456   0.612   7.662 -0.3022 -0.1596  0.1208
   82MOL   O22824690   3.359   0.642   7.562 -0.6295 -0.0021  0.3008
   82MOL   C22924691   3.345   0.563   7.451 -0.2746  0.5176 -0.2543
   82MOL   O23024692   3.410   0.468   7.422 -0.3551 -0.8059  0.5173
   82MOL   C23124693   3.218   0.610   7.373 -0.1352 -0.4357 -0.3629
   82MOL   C23224694   3.191   0.530   7.250 -0.5134  0.3671 -0.3310
   82MOL   C23324695   3.564   0.718   7.659 -0.8016 -0.0542 -0.1940
   82MOL   H23424696   3.504   0.518   7.636  0.5666  0.7722 -1.7625
   82MOL   H23524697   3.131   0.605   7.439  0.0287  2.1140  0.1249
   82MOL   H23624698   3.224   0.715   7.345 -0.2441 -0.2895  0.1402
   82MOL   H23724699   3.265   0.561   7.176 -0.8040  0.0389 -0.7624
   82MOL   H23824700   3.196   0.423   7.269 -1.4606  0.1914 -1.0567
   82MOL   H23924701   3.093   0.554   7.208 -0.3136  1.5545 -0.1566
   82MOL   H24024702   3.580   0.739   7.554 -0.6967  1.0428  0.0284
   82MOL   H24124703   3.526   0.808   7.708  2.1640  0.5771  1.0901
   82MOL   C24224704   3.696   0.675   7.734  0.0820  0.5496 -0.0882
   82MOL   O24324705   3.756   0.556   7.678  0.3222 -0.2249 -0.2295
   82MOL   C24424706   3.746   0.432   7.731 -0.5577 -0.4825  0.0160
   82MOL   O24524707   3.689   0.395   7.832  0.1543 -0.1118 -0.6019
   82MOL   C24624708   3.827   0.328   7.650 -0.6201  0.0094  0.3152
   82MOL   C24724709   3.776   0.326   7.504  0.7599 -0.2014 -0.6949
   82MOL   C24824710   3.811   0.784   7.729  0.5828  0.3659  0.1849
   82MOL   H24924711   3.669   0.658   7.838  0.0667  0.1657 -0.1561
   82MOL   H25024712   3.934   0.347   7.647 -0.3840 -1.4273 -1.1065
   82MOL   H25124713   3.825   0.232   7.701  0.7322 -0.9630 -1.3919
   82MOL   H25224714   3.832   0.404   7.452  2.3882  0.0903  1.4248
   82MOL   H25324715   3.798   0.229   7.459  0.6005 -1.3743  1.7133
   82MOL   H25424716   3.673   0.353   7.482  0.3835  0.0512  1.3383
   82MOL   H25524717   3.847   0.792   7.626 -1.9002 -2.7059 -1.0131
   82MOL   H25624718   3.766   0.881   7.744  0.7849  0.7988 -1.8593
   82MOL   C25724719   3.937   0.754   7.817 -0.1693 -0.2802  0.4404
   82MOL   O25824720   4.031   0.687   7.734 -0.0819 -0.0611 -0.5069
   82MOL   C25924721   4.072   0.566   7.766  0.3963 -0.4790  0.0582
   82MOL   O26024722   4.036   0.497   7.858  0.3074 -0.4089 -0.4675
   82MOL   C26124723   4.171   0.500   7.661 -0.5211  0.0529 -0.0279
   82MOL   C26224724   4.119   0.505   7.515  0.0817  0.4101  0.6397
   82MOL   C26324725   3.996   0.868   7.886  0.1490  0.9091 -0.3862
   82MOL   H26424726   3.902   0.688   7.896 -0.6809 -0.1665  0.3126
   82MOL   H26524727   4.260   0.561   7.674  0.3283 -1.4835  1.4750
   82MOL   H26624728   4.196   0.398   7.688  1.9158  0.3306 -1.0844
   82MOL   H26724729   4.208   0.486   7.455  0.0750 -1.3691  1.1643
   82MOL   H26824730   4.046   0.427   7.495  0.5793  0.4203 -1.3312
   82MOL   H26924731   4.084   0.605   7.486 -0.9115  0.0083  0.4251
   82MOL   H27024732   4.043   0.915   7.800 -1.9805 -0.2547 -2.2401
   82MOL   H27124733   3.915   0.929   7.926 -1.3503 -0.7313 -0.8579
   82MOL   C27224734   4.095   0.822   0.046  1.3301  0.4787  0.8219
   82MOL   O27324735   4.195   0.924   0.062 -0.1204 -0.6328  0.5341
   82MOL   C27424736   4.325   0.904   0.079 -0.0752 -0.3799 -0.2407
   82MOL   O27524737   4.368   0.794   0.093  0.4787  0.1759  0.3120
   82MOL   C27624738   4.412   1.028   0.089  0.7912  0.1622 -0.4023
   82MOL   C27724739   4.365   1.116   0.200  0.0368 -0.5329 -0.0319
   82MOL   C27824740   4.032   0.784   0.183  0.0477 -0.0470 -0.3304
   82MOL   H27924741   4.144   0.736   0.001 -0.9585 -0.0926 -0.6893
   82MOL   H28024742   4.514   0.991   0.106  0.1747 -1.9391 -1.1341
   82MOL   H28124743   4.423   1.082   7.940  2.8411  0.9581  0.2597
   82MOL   H28224744   4.293   1.190   0.168 -0.2886 -0.2073  1.4143
   82MOL   H28324745   4.330   1.063   0.289  0.6380 -0.3148  0.3398
   82MOL   H28424746   4.448   1.169   0.247 -0.4270  0.3892 -0.2486
   82MOL   H28524747   3.965   0.704   0.153 -0.0669  0.2928 -1.0002
   82MOL   H28624748   4.111   0.736   0.240 -2.1113 -0.4754  2.3743
   82MOL   C28724749   3.963   0.900   0.264  0.1322 -0.5028 -0.5997
   82MOL   O28824750   3.834   0.866   0.317 -0.1338  0.5960 -0.1473
   82MOL   C28924751   3.731   0.893   0.237  0.3533 -0.3821  0.2252
   82MOL   O29024752   3.734   0.970   0.142 -0.5488  0.2386  0.0505
   82MOL   C29124753   3.601   0.829   0.282  0.2569 -0.0822  0.6017
   82MOL   C29224754   3.579   0.698   0.205  0.4689 -0.3422 -0.3857
   82MOL   C29324755   4.050   0.929   0.389  0.2001  0.2293  0.0852
   82MOL   H29424756   3.958   0.986   0.198 -1.0691 -1.7122 -2.1488
   82MOL   H29524757   3.598   0.799   0.387 -0.2556 -0.2779  0.5362
   82MOL   H29624758   3.521   0.898   0.255 -0.3308 -1.1020 -0.3097
   82MOL   H29724759   3.490   0.641   0.234 -0.9213  1.1608 -1.5802
   82MOL   H29824760   3.549   0.722   0.103  0.9711  1.3147 -0.1597
   82MOL   H29924761   3.663   0.632   0.187 -0.0828 -0.6524 -1.8307
   82MOL   H30024762   4.137   0.988   0.359 -0.5662  0.2183 -2.1679
   82MOL   H30124763   3.997   0.993   0.460  0.4534 -0.6649  1.1111
   82MOL   H30224764   4.083   0.843   0.448  1.3443 -0.0138 -0.8796
   83MOL     C124765   7.533   2.625   3.590 -0.5257  0.4540  0.1565
   83MOL     O224766   7.661   2.614   3.643 -0.7362  0.5599  0.0906
   83MOL     C324767   7.703   2.497   3.687  0.2253  0.3144 -0.4548
   83MOL     O424768   7.635   2.389   3.693 -0.1836 -0.3246 -0.1053
   83MOL     C524769   7.847   2.510   3.753 -0.2736  0.6413 -0.2058
   83MOL     C624770   7.925   2.378   3.771  0.0299 -0.2945 -0.6623
   83MOL     C724771   7.529   2.612   3.438  0.7274 -0.9419 -0.3291
   83MOL     H824772   7.496   2.724   3.619 -2.6559  0.0315 -0.9938
   83MOL     H924773   7.908   2.584   3.700  2.0807 -1.0458  0.0647
   83MOL    H1024774   7.824   2.559   3.848  0.7087  1.3129 -0.3014
   83MOL    H1124775   0.028   2.340   3.682  0.2783  1.1580 -1.1511
   83MOL    H1224776   0.058   2.392   3.846 -0.7770 -4.6207  1.1735
   83MOL    H1324777   7.857   2.297   3.802  0.5703 -0.6969 -0.5216
   83MOL    H1424778   7.567   2.701   3.388  2.7889 -1.6910 -0.1761
   83MOL    H1524779   7.597   2.528   3.421 -0.9485 -2.8483  1.9970
   83MOL    H1624780   7.465   2.559   3.643  0.8844 -1.4905 -0.4330
   83MOL    C1724781   7.397   2.555   3.396 -0.0342  0.2950 -0.4700
   83MOL    O1824782   7.375   2.551   3.254  0.3080  0.4294  0.4677
   83MOL    C1924783   7.332   2.666   3.201 -0.2829 -0.1249  0.1548
   83MOL    O2024784   7.322   2.778   3.255  0.4579 -0.3626  0.2246
   83MOL    C2124785   7.289   2.641   3.055  0.3764 -0.1211  0.1728
   83MOL    C2224786   7.186   2.749   3.003  0.6710 -0.2021 -0.0598
   83MOL    C2324787   7.377   2.406   3.445  0.5084  0.7710  0.0634
   83MOL    H2424788   7.323   2.611   3.453  2.3364  2.3952  0.5742
   83MOL    H2524789   7.377   2.649   2.991 -0.4038 -0.0455 -0.8818
   83MOL    H2624790   7.259   2.537   3.046  2.2421 -0.5177 -1.9031
   83MOL    H2724791   7.172   2.726   2.898  2.4253 -0.1195 -0.3314
   83MOL    H2824792   7.087   2.742   3.047  0.0681  3.6685 -0.5934
   83MOL    H2924793   7.224   2.851   3.002 -0.6525  0.3659  2.5344
   83MOL    H3024794   7.359   2.336   3.363  1.8901  0.6748 -0.1668
   83MOL    H3124795   7.469   2.365   3.487  0.2948  0.6129  0.3826
   83MOL    C3224796   7.272   2.376   3.555 -0.6487  0.3235  0.2684
   83MOL    O3324797   7.164   2.427   3.492 -0.0461  0.4374 -0.2238
   83MOL    C3424798   7.075   2.506   3.558  0.6803  0.3201  0.7340
   83MOL    O3524799   7.086   2.545   3.673  0.4221  0.1769  0.1740
   83MOL    C3624800   6.956   2.549   3.469 -0.2282 -0.1644  0.1347
   83MOL    C3724801   6.874   2.667   3.523  0.0764  0.1588 -0.3764
   83MOL    C3824802   7.249   2.228   3.595  0.2753 -0.5440  0.4230
   83MOL    H3924803   7.295   2.436   3.643 -0.3694  0.7609 -0.1063
   83MOL    H4024804   6.978   2.565   3.363  1.3030  0.0337  0.4651
   83MOL    H4124805   6.887   2.464   3.462 -1.3842  0.7485  0.4110
   83MOL    H4224806   6.922   2.761   3.498  1.4621 -0.2850  0.5593
   83MOL    H4324807   6.774   2.670   3.481  0.0483  1.1433 -0.2276
   83MOL    H4424808   6.870   2.661   3.632 -1.9289  1.1142 -0.3796
   83MOL    H4524809   7.225   2.172   3.504  1.8467 -0.3897 -0.0996
   83MOL    H4624810   7.342   2.183   3.628  0.6867  0.0946  0.1486
   83MOL    C4724811   7.151   2.221   3.707 -0.1792  0.4883 -0.8097
   83MOL    O4824812   7.117   2.082   3.723 -0.5442 -0.1089 -0.0461
   83MOL    C4924813   6.992   2.054   3.757  0.0166 -0.3069  0.6778
   83MOL    O5024814   6.893   2.131   3.772  0.1229 -0.4061 -0.0213
   83MOL    C5124815   6.972   1.906   3.768 -0.3834  0.3151 -0.5348
   83MOL    C5224816   7.105   1.828   3.762  0.5874  0.1486 -0.5886
   83MOL    C5324817   7.181   2.277   3.849 -0.1971  0.0406  0.3968
   83MOL    H5424818   7.061   2.272   3.674 -0.6289 -0.5008 -1.1204
   83MOL    H5524819   6.916   1.892   3.861 -0.8052  0.7897 -0.7167
   83MOL    H5624820   6.905   1.880   3.686 -2.8382 -0.6023  1.6734
   83MOL    H5724821   7.081   1.723   3.782 -0.3784  0.4583 -0.0743
   83MOL    H5824822   7.145   1.839   3.662 -0.5499  0.5268 -1.0051
   83MOL    H5924823   7.171   1.872   3.837 -1.6538  2.5622  0.0394
   83MOL    H6024824   7.212   2.381   3.838 -0.1355 -0.2489 -2.4680
   83MOL    H6124825   7.085   2.287   3.901 -1.8571 -0.0031 -2.5244
   83MOL    C6224826   7.275   2.188   3.934  0.3464 -0.2862  0.6914
   83MOL    O6324827   7.407   2.203   3.883 -0.0800 -0.2524 -0.1558
   83MOL    C6424828   7.493   2.102   3.900 -0.2639  0.2951  0.4430
   83MOL    O6524829   7.474   1.989   3.943 -0.1213  0.3532 -0.2403
   83MOL    C6624830   7.631   2.141   3.851  0.1847 -0.2168 -0.3101
   83MOL    C6724831   7.748   2.054   3.900 -0.1898 -0.5390 -0.2423
   83MOL    C6824832   7.277   2.230   4.083 -0.2200  0.4429  0.4651
   83MOL    H6924833   7.246   2.083   3.931 -0.4992 -0.0336 -0.3405
   83MOL    H7024834   7.619   2.132   3.743  2.2328 -0.4349 -0.5331
   83MOL    H7124835   7.656   2.245   3.874 -1.4599  0.3675 -1.0881
   83MOL    H7224836   7.742   2.033   4.007 -0.3441  0.1395 -0.1140
   83MOL    H7324837   7.743   1.955   3.854 -1.4583 -0.9597  0.7411
   83MOL    H7424838   7.848   2.098   3.898 -1.9731  3.6864 -0.0848
   83MOL    H7524839   7.373   2.201   4.126  0.0268 -0.8514 -0.9229
   83MOL    H7624840   7.282   2.339   4.083 -1.4263  0.4980  0.3384
   83MOL    C7724841   7.157   2.185   4.161  0.5764  0.4252  0.2508
   83MOL    O7824842   7.210   2.076   4.239  0.2086  0.1358  0.1938
   83MOL    C7924843   7.178   1.952   4.209  0.0325  0.4042  0.2025
   83MOL    O8024844   7.114   1.916   4.111 -0.2008 -0.2047 -0.1808
   83MOL    C8124845   7.211   1.848   4.316  0.0107  0.4868 -0.2222
   83MOL    C8224846   7.363   1.822   4.331  0.1768  0.1980  0.1674
   83MOL    C8324847   7.105   2.288   4.260 -0.0410  0.2510 -0.3814
   83MOL    H8424848   7.084   2.157   4.085  1.0874 -1.6875  0.4996
   83MOL    H8524849   7.160   1.888   4.404 -0.2463  0.7165 -0.4753
   83MOL    H8624850   7.141   1.768   4.288 -0.0651  0.5271 -0.1501
   83MOL    H8724851   7.416   1.794   4.241 -0.7767  2.0751 -0.9994
   83MOL    H8824852   7.412   1.912   4.369  1.8882 -1.0242  0.9128
   83MOL    H8924853   7.387   1.746   4.405 -2.4331 -1.1438 -0.2994
   83MOL    H9024854   7.034   2.246   4.331 -0.2860  0.1343 -0.6950
   83MOL    H9124855   7.191   2.323   4.318  2.1303 -2.9087 -1.5365
   83MOL    C9224856   7.032   2.401   4.195 -0.3031 -0.4548 -0.7925
   83MOL    O9324857   6.890   2.364   4.167  0.2348 -0.5694 -0.0209
   83MOL    C9424858   6.836   2.384   4.053 -0.3577 -0.9067  0.5441
   83MOL    O9524859   6.891   2.439   3.954  0.2040 -0.2960 -0.4217
   83MOL    C9624860   6.701   2.323   4.044 -0.5471  0.2467  0.3172
   83MOL    C9724861   6.624   2.356   3.918  0.0471  0.8498  0.0726
   83MOL    C9824862   7.020   2.526   4.277 -0.0615  0.1657 -0.2349
   83MOL    H9924863   7.081   2.435   4.104 -0.3590 -0.3304 -0.7756
   83MOL   H10024864   6.703   2.215   4.060  0.8367  0.1228 -0.5801
   83MOL   H10124865   6.643   2.353   4.131  0.3697 -2.7745  2.0773
   83MOL   H10224866   6.519   2.328   3.928  0.4127 -0.7381 -0.4596
   83MOL   H10324867   6.614   2.462   3.896 -2.8480  0.9500  1.5934
   83MOL   H10424868   6.663   2.311   3.826 -0.2164  1.2239 -0.2231
   83MOL   H10524869   6.962   2.508   4.367  1.1069  0.9524  0.6762
   83MOL   H10624870   7.120   2.551   4.311  0.8126  2.2059 -4.0080
   83MOL   C10724871   6.959   2.651   4.207  1.2146 -0.7563 -0.2248
   83MOL   O10824872   6.947   2.757   4.297 -0.0204 -0.1363  0.0689
   83MOL   C10924873   6.835   2.833   4.311  0.4952 -0.7768 -0.1093
   83MOL   O11024874   6.733   2.835   4.236  0.0515  0.4883 -0.2436
   83MOL   C11124875   6.845   2.927   4.434 -0.7315  0.7273 -0.1515
   83MOL   C11224876   6.717   2.993   4.462 -0.1503  0.1629  0.0197
   83MOL   C11324877   7.047   2.709   4.089  0.1421  0.4750 -0.3951
   83MOL   H11424878   6.867   2.624   4.155  0.8475  1.4722 -0.7651
   83MOL   H11524879   6.877   2.879   4.526  1.4308  4.1995  0.9941
   83MOL   H11624880   6.924   3.001   4.423 -0.3867  0.6803  1.8492
   83MOL   H11724881   6.680   3.054   4.380 -0.7224 -3.2194 -2.3113
   83MOL   H11824882   6.631   2.930   4.482 -0.2748  0.4881  0.5241
   83MOL   H11924883   6.726   3.067   4.542 -0.3738  0.3535 -0.1329
   83MOL   H12024884   7.146   2.728   4.130  0.3812  0.3004 -0.8904
   83MOL   H12124885   7.052   2.627   4.017 -0.5898  1.2142 -1.3041
   83MOL   C12224886   7.005   2.838   4.011  0.2908  0.3262 -0.4761
   83MOL   O12324887   7.109   2.856   3.910  0.3301 -0.5010  0.0321
   83MOL   C12424888   7.157   2.975   3.873  0.2674 -1.0436  0.3206
   83MOL   O12524889   7.126   3.087   3.918  0.3822 -0.2154  0.3141
   83MOL   C12624890   7.263   2.968   3.757  0.4429  0.8260  0.0854
   83MOL   C12724891   7.221   2.889   3.629 -0.3839  1.1490 -0.1931
   83MOL   C12824892   6.868   2.835   3.946  0.2868  1.1909 -0.0193
   83MOL   H12924893   7.017   2.926   4.075 -0.8233  0.3661 -0.3055
   83MOL   H13024894   7.287   3.071   3.730  0.0159  0.5189 -1.5573
   83MOL   H13124895   7.360   2.936   3.796  1.1320  1.2887 -1.1866
   83MOL   H13224896   7.288   2.814   3.590  0.6179  0.6599  2.3907
   83MOL   H13324897   7.136   2.823   3.646  0.6597 -0.2030 -0.1892
   83MOL   H13424898   7.196   2.946   3.539 -1.7187  1.1111  0.1351
   83MOL   H13524899   6.872   2.780   3.852 -0.8268  1.1276 -0.0398
   83MOL   H13624900   6.800   2.784   4.014  3.1429 -0.0488  2.0000
   83MOL   C13724901   6.814   2.977   3.902  0.7429  0.6689  0.8383
   83MOL   O13824902   6.701   2.946   3.817 -0.5844  0.7701 -0.3845
   83MOL   C13924903   6.672   3.008   3.699 -0.4280  0.2976  0.2457
   83MOL   O14024904   6.745   3.084   3.635 -0.1006  0.5203  0.0089
   83MOL   C14124905   6.534   2.965   3.647 -0.3386  0.4190  0.0435
   83MOL   C14224906   6.524   2.961   3.494 -0.0911  0.2505 -0.6210
   83MOL   C14324907   6.772   3.070   4.015  0.5869  0.6137  0.3403
   83MOL   H14424908   6.891   3.023   3.840 -0.3206  1.2214 -0.0703
   83MOL   H14524909   6.504   2.868   3.687 -2.2296  0.6384 -0.7758
   83MOL   H14624910   6.466   3.040   3.688 -0.9386  0.2810 -0.6731
   83MOL   H14724911   6.422   2.928   3.474 -0.9488  1.0136  2.3074
   83MOL   H14824912   6.526   3.054   3.437 -0.9880  1.2441  0.9606
   83MOL   H14924913   6.591   2.893   3.440  2.7544  0.4781  2.4675
   83MOL   H15024914   6.697   3.011   4.068  1.8222 -2.4920 -1.2049
   83MOL   H15124915   6.852   3.099   4.082  0.0051 -1.5084  1.9878
   83MOL   C15224916   6.719   3.209   3.979 -0.3434  0.3542 -0.6180
   83MOL   O15324917   6.670   3.276   4.095 -0.3097  0.1936 -0.7607
   83MOL   C15424918   6.541   3.285   4.120 -0.4246  0.3929  0.1457
   83MOL   O15524919   6.450   3.248   4.039  0.4123  0.5017  0.3181
   83MOL   C15624920   6.522   3.340   4.259 -0.1686  0.4545  0.0242
   83MOL   C15724921   6.385   3.303   4.316  0.0549  0.2763  0.4572
   83MOL   C15824922   6.827   3.293   3.915 -0.1755  0.5859 -0.3457
   83MOL   H15924923   6.638   3.192   3.909 -0.1022 -0.4480 -0.7041
   83MOL   H16024924   6.586   3.288   4.330  0.6937  0.0824 -1.0127
   83MOL   H16124925   6.547   3.447   4.259 -0.4803  0.5344  1.0250
   83MOL   H16224926   6.303   3.314   4.245 -0.2649  0.6145  0.8768
   83MOL   H16324927   6.385   3.199   4.350  1.0341  0.0689 -0.1548
   83MOL   H16424928   6.355   3.370   4.396 -1.3231  1.6541 -1.1880
   83MOL   H16524929   6.897   3.316   3.994 -0.2371 -1.4855  0.3363
   83MOL   H16624930   6.885   3.220   3.858 -0.4914 -0.7026  0.9572
   83MOL   C16724931   6.781   3.412   3.822 -0.3482  0.5372  0.0713
   83MOL   O16824932   6.718   3.507   3.903 -0.0485 -0.2712 -0.0497
   83MOL   C16924933   6.589   3.542   3.888  0.0110 -0.4340  0.7252
   83MOL   O17024934   6.512   3.505   3.797 -0.0212 -0.0947  0.4491
   83MOL   C17124935   6.549   3.632   4.004 -0.1114 -0.2189 -1.1937
   83MOL   C17224936   6.471   3.765   3.970  0.0532 -0.2533  0.1982
   83MOL   C17324937   6.893   3.487   3.751  0.5588 -0.1269  0.2554
   83MOL   H17424938   6.720   3.357   3.751  0.1673 -1.8025  1.4057
   83MOL   H17524939   6.505   3.558   4.071  3.1073 -0.1865  1.0708
   83MOL   H17624940   6.645   3.658   4.049 -0.8675  0.4881  0.0279
   83MOL   H17724941   6.543   3.825   3.915  1.5853 -1.6788  0.6052
   83MOL   H17824942   6.386   3.757   3.903 -1.1196  1.1923  1.4791
   83MOL   H17924943   6.441   3.825   4.056 -2.2904  1.0088 -1.4522
   83MOL   H18024944   6.860   3.590   3.740  3.2986  0.9446  1.5588
   83MOL   H18124945   6.982   3.498   3.815  0.0853 -1.1744  1.1083
   83MOL   C18224946   6.927   3.428   3.616 -0.4101 -0.4040 -0.4036
   83MOL   O18324947   6.951   3.550   3.538 -0.7730 -0.1335 -0.1092
   83MOL   C18424948   6.877   3.573   3.424 -0.5368 -0.1992 -0.5512
   83MOL   O18524949   6.789   3.490   3.383  0.0056  0.0971  0.7336
   83MOL   C18624950   6.918   3.707   3.358 -0.0782 -0.9112  0.0250
   83MOL   C18724951   6.887   3.819   3.457  0.8981  0.1172  0.6579
   83MOL   C18824952   7.044   3.327   3.622  0.1829 -0.0354 -0.2904
   83MOL   H18924953   6.834   3.389   3.573  0.6582 -0.3714 -2.8575
   83MOL   H19024954   7.025   3.701   3.336  0.0305  1.9781 -0.4029
   83MOL   H19124955   6.867   3.731   3.265 -0.4316  0.9364  0.6823
   83MOL   H19224956   6.782   3.848   3.458  1.0980  0.8623  1.0762
   83MOL   H19324957   6.921   3.797   3.558  0.7226 -2.3235  0.1980
   83MOL   H19424958   6.942   3.912   3.443  0.0758  0.6860  1.1186
   83MOL   H19524959   7.126   3.365   3.682  0.0961 -1.4554  0.7484
   83MOL   H19624960   6.999   3.240   3.670  0.4927  2.3698  4.5423
   83MOL   C19724961   7.086   3.282   3.482 -0.4177 -0.8561 -0.1028
   83MOL   O19824962   7.210   3.210   3.508  0.2805 -0.3013  0.2612
   83MOL   C19924963   7.309   3.211   3.419 -0.4811 -0.5489  0.6155
   83MOL   O20024964   7.304   3.250   3.306  0.1119  0.4504  0.0181
   83MOL   C20124965   7.442   3.153   3.479  0.2116 -0.3144 -0.1098
   83MOL   C20224966   7.512   3.060   3.378  0.6108  0.2556  0.1118
   83MOL   C20324967   6.987   3.185   3.422 -0.4639  0.2236 -0.4052
   83MOL   H20424968   7.097   3.373   3.423  0.7470  0.0728  1.4867
   83MOL   H20524969   7.500   3.243   3.501 -1.4480  0.5477  0.8215
   83MOL   H20624970   7.434   3.102   3.575  1.4169  0.8281  0.6204
   83MOL   H20724971   7.523   3.097   3.276 -1.2110  0.9293  0.1381
   83MOL   H20824972   7.600   3.013   3.422  0.2017 -1.0685 -0.4664
   83MOL   H20924973   7.444   2.976   3.361 -1.9733  2.0622  1.1157
   83MOL   H21024974   6.969   3.092   3.477 -1.2106  2.0193  2.4972
   83MOL   H21124975   6.891   3.236   3.423 -0.9219 -0.6179  0.3082
   83MOL   C21224976   7.006   3.148   3.275 -0.1221  0.1268  0.7047
   83MOL   O21324977   6.889   3.082   3.236  0.0801 -0.3258 -0.3023
   83MOL   C21424978   6.881   2.949   3.229  0.3025 -0.1336  0.2558
   83MOL   O21524979   6.960   2.863   3.270  0.4571 -0.1891  0.3018
   83MOL   C21624980   6.745   2.917   3.165  0.5314  0.0451  0.1072
   83MOL   C21724981   6.721   2.770   3.132 -0.0397 -0.4793  0.4604
   83MOL   C21824982   7.008   3.271   3.174  0.3662  0.2233  0.1424
   83MOL   H21924983   7.095   3.086   3.269 -0.7306 -0.9913  2.9069
   83MOL   H22024984   6.678   2.965   3.236 -0.3896  0.0715 -0.7692
   83MOL   H22124985   6.734   2.975   3.073 -0.4016  0.1792  0.3008
   83MOL   H22224986   6.671   2.764   3.035 -1.2193  1.7011  0.8767
   83MOL   H22324987   6.816   2.720   3.120  0.5476  0.5796  0.6273
   83MOL   H22424988   6.659   2.724   3.208 -0.9017  0.8349  0.5788
   83MOL   H22524989   6.918   3.330   3.187  2.2740  3.5448 -1.1844
   83MOL   H22624990   7.090   3.340   3.194  0.3883  0.4706 -0.7552
   83MOL   C22724991   7.033   3.236   3.019 -0.0603 -0.4271  0.1541
   83MOL   O22824992   7.036   3.353   2.934 -0.5737 -0.0985 -0.0606
   83MOL   C22924993   6.958   3.365   2.824  0.3693  0.6807  0.9322
   83MOL   O23024994   6.878   3.283   2.788 -0.2641  0.5131 -0.0029
   83MOL   C23124995   6.993   3.484   2.735  1.0720  0.9435  0.0070
   83MOL   C23224996   7.128   3.476   2.660  0.1758  0.3038 -0.2784
   83MOL   C23324997   7.163   3.160   3.004  0.1215  0.7255 -0.5813
   83MOL   H23424998   6.951   3.175   2.983  1.0673 -2.5041  1.0227
   83MOL   H23524999   6.907   3.501   2.671 -0.6269 -1.7203  1.4404
   83MOL   H23625000   6.996   3.579   2.788 -3.3374  0.4484  1.2996
   83MOL   H23725001   7.144   3.552   2.583  3.4972 -1.5556 -1.5396
   83MOL   H23825002   7.206   3.487   2.736  1.2638  1.1958 -1.4975
   83MOL   H23925003   7.154   3.383   2.609 -0.3757 -0.1222  0.2265
   83MOL   H24025004   7.231   3.219   3.065  1.7772  0.4123 -2.0947
   83MOL   H24125005   7.166   3.062   3.052  0.1013  0.0164 -2.0008
   83MOL   C24225006   7.203   3.146   2.852  1.2071  0.1941  0.3825
   83MOL   O24325007   7.334   3.088   2.828 -0.0047 -0.3858  0.0614
   83MOL   C24425008   7.446   3.162   2.807  0.2005  0.7718 -0.6804
   83MOL   O24525009   7.458   3.275   2.766  0.5198  0.5886  0.2361
   83MOL   C24625010   7.569   3.080   2.829 -0.1547  0.1951 -0.5773
   83MOL   C24725011   7.610   3.060   2.977  0.0970  0.1506 -0.0174
   83MOL   C24825012   7.118   3.047   2.769  0.2102 -0.1803  1.3362
   83MOL   H24925013   7.197   3.245   2.807 -2.0530  1.0819  2.6140
   83MOL   H25025014   7.559   2.992   2.764  1.3176  0.2130 -0.8615
   83MOL   H25125015   7.641   3.141   2.774  0.2177  0.0071 -0.2974
   83MOL   H25225016   7.658   3.145   3.026 -0.3902  1.2564 -1.4084
   83MOL   H25325017   7.519   3.049   3.037  0.1244 -1.2124 -0.2103
   83MOL   H25425018   7.681   2.978   2.986 -1.1021 -0.7922  0.9880
   83MOL   H25525019   7.119   2.943   2.803  1.7603 -0.4380  0.5936
   83MOL   H25625020   7.012   3.070   2.774  0.3535  0.9931 -0.3487
   83MOL   C25725021   7.139   3.035   2.615 -0.2244 -0.2968  0.6372
   83MOL   O25825022   7.184   2.900   2.580  0.0350  0.1487  0.1532
   83MOL   C25925023   7.260   2.865   2.477  0.1958  0.4773 -0.1099
   83MOL   O26025024   7.302   2.936   2.385  0.1628  0.2134 -0.4152
   83MOL   C26125025   7.286   2.719   2.477 -0.6110  0.1258  0.2134
   83MOL   C26225026   7.325   2.667   2.617  0.0189 -0.4869  0.5798
   83MOL   C26325027   7.010   3.080   2.546 -0.0196 -1.0743  0.9584
   83MOL   H26425028   7.220   3.102   2.586 -0.8139 -0.9328 -2.5741
   83MOL   H26525029   7.192   2.674   2.444 -1.8390  1.2595  2.0833
   83MOL   H26625030   7.342   2.681   2.392 -0.9838 -1.4335  0.6300
   83MOL   H26725031   7.244   2.672   2.690  0.3650 -0.2056  0.9446
   83MOL   H26825032   7.356   2.562   2.618 -1.1594 -0.8491  0.3915
   83MOL   H26925033   7.406   2.731   2.652  0.0611  0.6691 -1.5293
   83MOL   H27025034   6.938   2.999   2.563 -0.8248 -1.2638 -2.9278
   83MOL   H27125035   6.970   3.175   2.582 -0.1319 -1.2359  1.2613
   83MOL   C27225036   7.021   3.103   2.393 -0.5076  0.5618  0.2803
   83MOL   O27325037   6.889   3.115   2.343 -0.0140  0.0223  0.2871
   83MOL   C27425038   6.843   3.011   2.266 -0.7950 -0.6137 -0.1437
   83MOL   O27525039   6.909   2.914   2.230 -0.2573 -0.0254 -0.3088
   83MOL   C27625040   6.697   3.025   2.243 -0.9966 -0.0671  0.2920
   83MOL   C27725041   6.611   3.047   2.367 -0.5757  0.1259 -0.3155
   83MOL   C27825042   7.095   3.227   2.355  0.5436  0.1488  0.0868
   83MOL   H27925043   7.066   3.016   2.345  0.5493  2.3154 -2.0246
   83MOL   H28025044   6.687   3.111   2.177  1.1348 -0.1245 -0.1508
   83MOL   H28125045   6.665   2.944   2.177 -0.0995 -1.5530  1.6243
   83MOL   H28225046   6.626   3.146   2.410 -1.9584  0.6489 -1.0036
   83MOL   H28325047   6.504   3.060   2.347 -0.5470 -0.0797 -0.5989
   83MOL   H28425048   6.627   2.970   2.442 -1.4535 -2.9366 -3.1488
   83MOL   H28525049   7.043   3.318   2.385 -0.2201 -0.6637  1.3036
   83MOL   H28625050   7.191   3.232   2.407  0.4879 -2.9464  0.5495
   83MOL   C28725051   7.108   3.229   2.198 -0.2876  0.6054 -0.1415
   83MOL   O28825052   7.165   3.347   2.147 -0.0417 -0.1661  0.2948
   83MOL   C28925053   7.082   3.451   2.110  0.1579 -0.0548  0.3615
   83MOL   O29025054   6.961   3.451   2.130 -0.2711 -0.0221 -0.3732
   83MOL   C29125055   7.160   3.558   2.041 -0.2933  0.4735 -0.3316
   83MOL   C29225056   7.151   3.548   1.884  0.1431 -0.4915 -0.1314
   83MOL   C29325057   7.211   3.117   2.151 -0.4767  0.0306  0.2061
   83MOL   H29425058   7.016   3.207   2.145 -0.7231  1.2777  0.3218
   83MOL   H29525059   7.124   3.653   2.080  0.6900  0.5683  0.3536
   83MOL   H29625060   7.262   3.557   2.079 -0.1824  1.0791 -0.6132
   83MOL   H29725061   7.213   3.616   1.825  4.0932 -1.7655  2.3290
   83MOL   H29825062   7.176   3.444   1.862  1.3370 -0.2844  0.2003
   83MOL   H29925063   7.056   3.578   1.840  0.0675  0.5264  0.7023
   83MOL   H30025064   7.208   3.129   2.043 -1.1785  3.6388  0.5613
   83MOL   H30125065   7.307   3.148   2.193 -1.2669 -0.6833  2.6094
   83MOL   H30225066   7.192   3.010   2.164  2.2881 -0.4673  0.4641
   84MOL     C125067   2.743   0.774   3.830  0.0238 -0.5416  0.1643
   84MOL     O225068   2.854   0.752   3.923  0.0195 -0.0232  0.3597
   84MOL     C325069   2.948   0.847   3.935 -0.4815  0.1513  0.2678
   84MOL     O425070   2.947   0.953   3.871 -0.4674  0.8508  0.4277
   84MOL     C525071   3.057   0.811   4.035  0.6208 -0.4860  0.1278
   84MOL     C625072   3.181   0.904   4.025 -0.2359 -0.3097 -0.2048
   84MOL     C725073   2.618   0.760   3.917  0.3373 -0.4799  0.7018
   84MOL     H825074   2.741   0.698   3.752  1.1704 -0.1961 -0.2109
   84MOL     H925075   3.013   0.839   4.130  0.4720  1.2295 -0.4249
   84MOL    H1025076   3.079   0.704   4.034  0.2710 -0.5797  1.4460
   84MOL    H1125077   3.170   1.007   4.061 -1.3518 -0.0373 -1.2968
   84MOL    H1225078   3.249   0.871   4.103 -0.5769  0.1946  0.3154
   84MOL    H1325079   3.241   0.902   3.935  0.0582  0.0300 -0.0185
   84MOL    H1425080   2.631   0.662   3.964 -2.0116 -1.0853  0.1472
   84MOL    H1525081   2.631   0.829   4.000  1.1339  1.8095 -1.2646
   84MOL    H1625082   2.746   0.874   3.786  1.4996 -0.2355  0.9060
   84MOL    C1725083   2.488   0.781   3.839  0.2433 -0.4866 -0.4066
   84MOL    O1825084   2.464   0.674   3.753 -0.0648  0.3545  0.3803
   84MOL    C1925085   2.408   0.687   3.632  0.7973  0.3630 -0.1723
   84MOL    O2025086   2.380   0.797   3.580  0.1355 -0.5026 -0.4607
   84MOL    C2125087   2.385   0.555   3.555  0.5487  0.8648 -0.1277
   84MOL    C2225088   2.470   0.426   3.603 -0.0252 -0.1142 -0.0809
   84MOL    C2325089   2.361   0.794   3.914 -0.5274 -0.5044 -0.3190
   84MOL    H2425090   2.500   0.876   3.786 -0.9673 -0.1477 -0.0923
   84MOL    H2525091   2.278   0.540   3.541  0.7532  1.2480 -2.2777
   84MOL    H2625092   2.426   0.579   3.457 -0.4183  3.2257  0.0063
   84MOL    H2725093   2.574   0.457   3.615  0.5074 -1.8534 -0.0871
   84MOL    H2825094   2.440   0.382   3.698  0.1039 -1.5225 -0.6796
   84MOL    H2925095   2.469   0.346   3.530  0.5090 -1.3501  1.2462
   84MOL    H3025096   2.273   0.803   3.849 -1.5329  3.6854  1.4759
   84MOL    H3125097   2.353   0.694   3.955  0.5280 -0.9255 -1.1349
   84MOL    C3225098   2.361   0.903   4.026  0.2237  0.3078 -0.0394
   84MOL    O3325099   2.273   1.010   3.982 -0.3186  0.4798  0.1488
   84MOL    C3425100   2.320   1.114   3.909 -0.5736 -0.6901 -0.3343
   84MOL    O3525101   2.441   1.145   3.915  0.0610  0.0903 -0.6362
   84MOL    C3625102   2.209   1.185   3.825 -0.1738 -0.2403  0.1296
   84MOL    C3725103   2.198   1.118   3.686  0.2282 -0.2061 -0.1422
   84MOL    C3825104   2.295   0.851   4.160 -0.3381 -0.6387  0.4036
   84MOL    H3925105   2.462   0.941   4.038  0.4881 -0.4313  0.0958
   84MOL    H4025106   2.120   1.159   3.882 -0.7954  0.6629 -0.4347
   84MOL    H4125107   2.228   1.292   3.817  0.0665 -0.3273 -0.4782
   84MOL    H4225108   2.112   1.147   3.626  1.0932 -0.0229 -1.3134
   84MOL    H4325109   2.292   1.123   3.631 -0.5726  0.4191 -1.4625
   84MOL    H4425110   2.165   1.014   3.689  0.3300 -0.2978 -1.8472
   84MOL    H4525111   2.238   0.933   4.204  1.6772  0.6056  0.7881
   84MOL    H4625112   2.231   0.764   4.144 -0.1186 -0.7937  0.3739
   84MOL    C4725113   2.389   0.800   4.270  0.6101 -0.3246  0.5478
   84MOL    O4825114   2.471   0.915   4.293 -0.0205 -0.4248  0.2907
   84MOL    C4925115   2.604   0.898   4.289  0.1630  0.2334 -0.6186
   84MOL    O5025116   2.669   0.795   4.267  0.2725 -0.3867 -0.0105
   84MOL    C5125117   2.669   1.035   4.297 -0.0333 -0.6937  0.1727
   84MOL    C5225118   2.824   1.029   4.324  0.2064  0.5881 -0.2584
   84MOL    C5325119   2.332   0.745   4.403 -0.0633  0.6103 -0.1537
   84MOL    H5425120   2.447   0.718   4.227  0.4736  0.0455 -0.3635
   84MOL    H5525121   2.651   1.087   4.203 -0.2702  0.1813  0.6987
   84MOL    H5625122   2.619   1.099   4.370 -0.9890  0.5096 -1.5050
   84MOL    H5725123   2.854   0.966   4.408  0.7526  1.2359  0.0337
   84MOL    H5825124   2.880   1.014   4.232 -1.4544 -0.8991 -1.0543
   84MOL    H5925125   2.853   1.130   4.352 -0.8802  0.7162  0.4554
   84MOL    H6025126   2.416   0.728   4.470 -1.8878 -0.7028  1.8945
   84MOL    H6125127   2.283   0.834   4.441  1.5379  1.5335 -0.2047
   84MOL    C6225128   2.240   0.624   4.398  0.6908  0.1461 -0.4811
   84MOL    O6325129   2.308   0.524   4.322  0.0768  0.8939 -1.0166
   84MOL    C6425130   2.248   0.475   4.217  0.5429  0.0606 -0.2528
   84MOL    O6525131   2.147   0.516   4.164  0.5964 -0.3560  0.3413
   84MOL    C6625132   2.328   0.363   4.160 -1.2781 -0.1426 -0.2408
   84MOL    C6725133   2.450   0.426   4.083 -0.1715 -0.7623 -0.2284
   84MOL    C6825134   2.206   0.576   4.543 -1.3410  0.0380 -0.3143
   84MOL    H6925135   2.144   0.657   4.358 -0.4599  0.6756  2.5925
   84MOL    H7025136   2.360   0.291   4.234 -1.3153 -0.6018 -0.6714
   84MOL    H7125137   2.266   0.314   4.085  1.1973 -1.6980 -1.2980
   84MOL    H7225138   2.518   0.348   4.047 -0.2025 -0.6709 -0.4916
   84MOL    H7325139   2.415   0.474   3.992 -3.0098 -1.8633  0.2361
   84MOL    H7425140   2.504   0.499   4.143 -0.8338 -0.5319  0.0908
   84MOL    H7525141   2.276   0.495   4.565 -0.7322  0.9773  1.2441
   84MOL    H7625142   2.227   0.657   4.612 -1.1478  0.1618 -0.5200
   84MOL    C7725143   2.064   0.528   4.577  0.0782 -0.2141  0.2914
   84MOL    O7825144   2.070   0.406   4.647  0.3860 -0.4237  0.3544
   84MOL    C7925145   1.993   0.311   4.613  0.1194  0.6746 -0.3883
   84MOL    O8025146   1.935   0.301   4.505 -0.0022  0.0517 -0.4389
   84MOL    C8125147   1.974   0.211   4.725  0.5922  0.5800 -0.0571
   84MOL    C8225148   1.859   0.119   4.692 -0.3839 -0.2803  0.3586
   84MOL    C8325149   1.971   0.633   4.646 -0.4623  0.0539 -0.3250
   84MOL    H8425150   2.000   0.523   4.489 -0.6225  0.5746  0.7429
   84MOL    H8525151   2.062   0.166   4.770 -0.6589 -0.8736  1.0348
   84MOL    H8625152   1.924   0.268   4.804  0.3310  0.7504 -0.3422
   84MOL    H8725153   1.855   0.047   4.774 -0.6316 -0.2491  0.3736
   84MOL    H8825154   1.762   0.167   4.701  0.9225  2.7278 -0.7481
   84MOL    H8925155   1.865   0.070   4.595 -1.4872 -0.9842  0.6426
   84MOL    H9025156   1.876   0.579   4.654 -0.2707 -0.4531 -1.3268
   84MOL    H9125157   2.007   0.652   4.747  2.7118  1.0941 -1.5892
   84MOL    C9225158   1.956   0.770   4.570 -0.2615 -1.3159  0.2102
   84MOL    O9325159   1.860   0.746   4.471  0.2796  0.3324 -0.2992
   84MOL    C9425160   1.873   0.800   4.349  1.1159  0.1034  0.2047
   84MOL    O9525161   1.951   0.878   4.312  0.0600 -1.0397  0.2639
   84MOL    C9625162   1.769   0.749   4.246  0.8053 -0.3218  0.2089
   84MOL    C9725163   1.809   0.610   4.192  0.0922  0.7141  0.5209
   84MOL    C9825164   1.888   0.875   4.662  0.3676 -0.3416 -0.0497
   84MOL    H9925165   2.049   0.814   4.535  0.1130 -1.7429  0.6606
   84MOL   H10025166   1.666   0.756   4.281  1.4356  1.1247  1.9010
   84MOL   H10125167   1.774   0.815   4.159 -3.2533 -2.3430 -1.6898
   84MOL   H10225168   1.727   0.582   4.126 -0.7012  0.2364  1.6747
   84MOL   H10325169   1.896   0.620   4.127 -0.0810  0.6541  0.2795
   84MOL   H10425170   1.823   0.532   4.267 -1.6422 -1.0120 -0.9253
   84MOL   H10525171   1.845   0.953   4.598 -0.4983  1.3218  2.5103
   84MOL   H10625172   1.802   0.827   4.709 -0.8907  1.7050 -0.1577
   84MOL   C10725173   1.980   0.933   4.767 -0.0058  0.0606 -0.1027
   84MOL   O10825174   2.060   1.030   4.700  0.4318  0.1283 -0.1429
   84MOL   C10925175   2.191   1.016   4.673 -0.8005  0.2803  0.0980
   84MOL   O11025176   2.249   0.909   4.673 -0.2429 -0.1233  0.3164
   84MOL   C11125177   2.253   1.140   4.615  0.1105 -0.0681  1.3516
   84MOL   C11225178   2.273   1.251   4.720 -0.6938 -0.3163  0.1650
   84MOL   C11325179   1.906   1.002   4.880 -0.2193 -0.4334  0.2060
   84MOL   H11425180   2.049   0.857   4.804  1.6779  1.8177  0.4552
   84MOL   H11525181   2.355   1.129   4.577 -0.2170 -0.7111  0.6324
   84MOL   H11625182   2.185   1.182   4.540  0.3494  2.8685  2.7283
   84MOL   H11725183   2.181   1.266   4.776 -0.7387  1.9178 -0.4214
   84MOL   H11825184   2.361   1.222   4.778 -0.6319  0.8083  0.6605
   84MOL   H11925185   2.320   1.340   4.677  0.3644 -0.9412  0.0035
   84MOL   H12025186   1.974   1.075   4.924 -1.3178  0.1720  0.9370
   84MOL   H12125187   1.831   1.065   4.831  0.1231 -1.3756 -1.5517
   84MOL   C12225188   1.823   0.920   4.981 -0.1190  0.5475  1.1551
   84MOL   O12325189   1.893   0.822   5.050  0.4638  0.2703 -0.3876
   84MOL   C12425190   1.832   0.703   5.085 -0.7120 -0.2154 -0.4292
   84MOL   O12525191   1.713   0.685   5.076  0.5159  0.3032 -0.1985
   84MOL   C12625192   1.928   0.593   5.127  0.5294 -0.0386 -0.1030
   84MOL   C12725193   1.967   0.480   5.026  0.1150 -0.3100  0.1922
   84MOL   C12825194   1.749   1.005   5.081 -0.4936  0.0127  0.0562
   84MOL   H12925195   1.751   0.872   4.915  0.1363  1.0947  0.4740
   84MOL   H13025196   2.022   0.633   5.164 -0.9705  0.9146  2.7848
   84MOL   H13125197   1.869   0.535   5.198 -1.2712 -0.3964 -1.8611
   84MOL   H13225198   1.885   0.448   4.962  0.3792 -1.8730  0.6054
   84MOL   H13325199   2.038   0.516   4.951  0.4624  0.2914  0.8063
   84MOL   H13425200   2.002   0.393   5.081  1.4409  0.5834  0.7855
   84MOL   H13525201   1.722   0.936   5.161  1.9507 -1.6062 -0.4524
   84MOL   H13625202   1.814   1.082   5.122 -1.2073  0.0291  1.1660
   84MOL   C13725203   1.621   1.074   5.039 -0.1614 -0.1570 -0.7768
   84MOL   O13825204   1.638   1.176   4.946  0.2544 -0.0890 -0.1025
   84MOL   C13925205   1.586   1.305   4.968  0.5275  0.3718  0.5373
   84MOL   O14025206   1.520   1.338   5.066 -0.0663  0.4110 -0.4920
   84MOL   C14125207   1.616   1.405   4.852  0.2366  0.5188 -0.1265
   84MOL   C14225208   1.559   1.539   4.884 -0.2056 -0.5289  0.0653
   84MOL   C14325209   1.505   0.975   4.990 -0.8332  0.6774  0.0236
   84MOL   H14425210   1.587   1.122   5.131  1.0542 -1.6247  0.4623
   84MOL   H14525211   1.723   1.413   4.835  0.1579  2.1219  0.0725
   84MOL   H14625212   1.586   1.356   4.759  1.3089 -0.5829  0.1093
   84MOL   H14725213   1.548   1.600   4.794 -0.2959 -0.9892 -0.2387
   84MOL   H14825214   1.456   1.537   4.918 -0.6393  1.2424 -1.0529
   84MOL   H14925215   1.630   1.601   4.939 -1.5692  2.3628 -1.2816
   84MOL   H15025216   1.529   0.961   4.884  2.5114 -0.0959  0.8511
   84MOL   H15125217   1.511   0.882   5.047  1.4038  1.6363  1.4057
   84MOL   C15225218   1.354   1.025   4.997  0.8730 -0.0048 -0.4998
   84MOL   O15325219   1.283   0.956   4.900  0.3122  0.2631 -0.2210
   84MOL   C15425220   1.284   1.000   4.769 -0.4399 -0.2906 -0.6383
   84MOL   O15525221   1.337   1.106   4.730  0.0211 -0.0649  0.7057
   84MOL   C15625222   1.224   0.898   4.673  0.3193  0.5279  0.7641
   84MOL   C15725223   1.158   0.959   4.548 -0.1636  0.0047 -0.0103
   84MOL   C15825224   1.275   0.996   5.126 -0.2006 -0.1472 -0.9431
   84MOL   H15925225   1.348   1.129   4.966 -0.5719 -0.1256 -0.6402
   84MOL   H16025226   1.296   0.823   4.641 -1.5253 -1.4309  1.0584
   84MOL   H16125227   1.144   0.844   4.724  0.2378  0.7539  0.8753
   84MOL   H16225228   1.091   0.891   4.496 -0.3043 -0.1978  0.4344
   84MOL   H16325229   1.105   1.051   4.573 -0.9837 -0.8656  1.5255
   84MOL   H16425230   1.235   0.986   4.477  0.4425 -1.8728 -0.0932
   84MOL   H16525231   1.171   0.972   5.102 -0.2690 -0.8568  0.0480
   84MOL   H16625232   1.301   0.898   5.165  2.7166  1.2999  0.9253
   84MOL   C16725233   1.263   1.119   5.231  0.1143 -0.5661 -0.2890
   84MOL   O16825234   1.206   1.239   5.168  0.1007 -0.5508  0.7166
   84MOL   C16925235   1.079   1.264   5.136 -0.0400  0.7944  0.2345
   84MOL   O17025236   0.982   1.187   5.167  0.1771 -0.2902 -0.0441
   84MOL   C17125237   1.057   1.368   5.029  0.3367  0.2994  0.7419
   84MOL   C17225238   1.185   1.408   4.960 -0.4318 -0.0603  0.0395
   84MOL   C17325239   1.209   1.092   5.373  0.8523 -0.4698  0.4336
   84MOL   H17425240   1.363   1.160   5.245 -0.4707  2.1285 -3.3292
   84MOL   H17525241   0.996   1.316   4.956  0.8344  0.5841  0.1138
   84MOL   H17625242   1.000   1.454   5.064 -3.6355 -0.3408 -3.7770
   84MOL   H17725243   1.264   1.334   4.973 -0.6564  0.1038  2.6140
   84MOL   H17825244   1.170   1.416   4.852 -1.5653  0.3259  0.2151
   84MOL   H17925245   1.221   1.507   4.987 -1.5471  0.1970  0.6338
   84MOL   H18025246   1.217   1.179   5.438  1.0347 -1.0319  1.1628
   84MOL   H18125247   1.106   1.055   5.366  0.3194  1.0712 -0.0387
   84MOL   C18225248   1.297   0.984   5.443  0.0698  0.2329 -0.8127
   84MOL   O18325249   1.433   1.042   5.454  0.5941 -0.4753 -0.3745
   84MOL   C18425250   1.541   0.968   5.412  0.3415 -0.6242 -0.3822
   84MOL   O18525251   1.532   0.872   5.334  0.0833 -0.2102  1.1973
   84MOL   C18625252   1.675   1.010   5.467 -0.0071 -0.1987 -0.0134
   84MOL   C18725253   1.759   0.884   5.503 -0.1265 -0.7233 -0.3634
   84MOL   C18825254   1.237   0.943   5.571 -0.2144  0.1263  0.1519
   84MOL   H18925255   1.293   0.903   5.371  0.2347 -0.2043 -0.3314
   84MOL   H19025256   1.728   1.078   5.402 -1.6589 -0.1039 -1.3029
   84MOL   H19125257   1.653   1.068   5.557 -0.7399  0.9424 -0.9086
   84MOL   H19225258   1.859   0.927   5.509 -0.0209 -1.0839  0.6130
   84MOL   H19325259   1.734   0.828   5.593 -0.0083 -2.2164 -1.2348
   84MOL   H19425260   1.769   0.813   5.421 -1.1492 -1.0972 -0.1681
   84MOL   H19525261   1.268   1.024   5.637  0.5850 -1.2837  1.5511
   84MOL   H19625262   1.129   0.937   5.570 -0.2161  0.0017  0.6246
   84MOL   C19725263   1.301   0.820   5.645  0.1652 -0.0680  1.2233
   84MOL   O19825264   1.296   0.817   5.788  0.1005  0.1096  0.2632
   84MOL   C19925265   1.393   0.876   5.863 -0.0565 -0.5500 -0.7354
   84MOL   O20025266   1.487   0.944   5.828 -0.3526 -0.1706  0.7112
   84MOL   C20125267   1.369   0.864   6.013  0.0816 -0.8180 -0.1451
   84MOL   C20225268   1.434   0.973   6.099 -0.1860 -0.9518  0.6455
   84MOL   C20325269   1.220   0.695   5.622  0.0291 -0.1921 -1.4889
   84MOL   H20425270   1.403   0.791   5.618 -0.4070 -1.0295  0.0282
   84MOL   H20525271   1.261   0.879   6.014  0.3285  1.0722 -0.1487
   84MOL   H20625272   1.391   0.762   6.045 -1.1542 -0.1435  3.0585
   84MOL   H20725273   1.416   1.066   6.044 -0.0820 -0.9025  0.6929
   84MOL   H20825274   1.412   0.971   6.205  1.8780 -1.8430  1.0783
   84MOL   H20925275   1.543   0.968   6.089  0.0442 -0.2288  2.5597
   84MOL   H21025276   1.270   0.618   5.680  0.4217  0.7111 -0.6196
   84MOL   H21125277   1.117   0.701   5.660  0.0170  1.1322 -1.7046
   84MOL   C21225278   1.230   0.630   5.485  0.3760 -0.7161  0.2950
   84MOL   O21325279   1.369   0.595   5.456  0.0088  0.4648  0.2745
   84MOL   C21425280   1.410   0.583   5.331 -0.0448  0.8201  0.1709
   84MOL   O21525281   1.336   0.590   5.232 -0.4634  0.4968 -0.1029
   84MOL   C21625282   1.558   0.548   5.319  0.8041 -0.5709  0.0955
   84MOL   C21725283   1.604   0.424   5.402 -0.1594  0.1851  0.2026
   84MOL   C21825284   1.134   0.509   5.490  0.8751 -0.0449  0.4059
   84MOL   H21925285   1.182   0.689   5.407 -0.7465 -1.1995  0.6079
   84MOL   H22025286   1.565   0.532   5.212 -1.1287  2.8269 -0.6289
   84MOL   H22125287   1.609   0.643   5.339  1.3004 -1.0848  1.3078
   84MOL   H22225288   1.530   0.345   5.412 -0.4813  0.7197  2.1071
   84MOL   H22325289   1.690   0.373   5.360 -0.2970  0.0566  0.0727
   84MOL   H22425290   1.630   0.459   5.501 -2.3743  0.8257  0.6013
   84MOL   H22525291   1.150   0.437   5.410 -2.0920 -1.4277  1.0097
   84MOL   H22625292   1.151   0.453   5.583  0.3229  1.9034  1.7148
   84MOL   C22725293   0.975   0.544   5.491  0.0069 -0.4888 -0.4110
   84MOL   O22825294   0.936   0.592   5.369 -0.3349  0.0288  0.0299
   84MOL   C22925295   0.916   0.722   5.346 -1.1777 -0.4933 -0.7127
   84MOL   O23025296   0.973   0.813   5.409 -0.3827  0.3358 -0.2430
   84MOL   C23125297   0.857   0.759   5.213 -0.4598 -0.1938 -0.0086
   84MOL   C23225298   0.955   0.734   5.096  0.1364 -0.2129 -1.0774
   84MOL   C23325299   0.889   0.414   5.506  0.5216  0.4733 -0.2299
   84MOL   H23425300   0.952   0.613   5.572 -2.3512 -0.3575 -1.1513
   84MOL   H23525301   0.767   0.700   5.197  0.1190 -0.5958 -1.8455
   84MOL   H23625302   0.830   0.864   5.212  3.0628  0.7831 -0.3591
   84MOL   H23725303   1.051   0.785   5.107  0.1000 -0.5641  1.0667
   84MOL   H23825304   0.967   0.630   5.064  0.5338 -0.3245 -0.5848
   84MOL   H23925305   0.914   0.781   5.007 -0.0995  0.6339 -0.5230
   84MOL   H24025306   0.923   0.330   5.444 -0.0367 -0.2026  0.3689
   84MOL   H24125307   0.912   0.376   5.605  1.4550 -0.7780 -0.9035
   84MOL   C24225308   0.737   0.446   5.495 -0.3211  0.5630  0.0247
   84MOL   O24325309   0.662   0.329   5.503 -0.1752 -0.2305 -0.0190
   84MOL   C24425310   0.562   0.296   5.426  0.1998  0.4670 -0.8295
   84MOL   O24525311   0.535   0.357   5.322  0.1173  0.1579  0.1436
   84MOL   C24625312   0.493   0.161   5.480 -0.4584 -0.5073 -0.1605
   84MOL   C24725313   0.354   0.139   5.426 -0.4243  0.2156  0.4233
   84MOL   C24825314   0.686   0.553   5.599 -0.5431  0.6592 -0.7064
   84MOL   H24925315   0.723   0.494   5.398 -1.8857  3.5780  1.6627
   84MOL   H25025316   0.559   0.074   5.470 -1.2052 -1.0645 -0.2842
   84MOL   H25125317   0.479   0.172   5.587 -2.0458  3.2702 -0.6838
   84MOL   H25225318   0.345   0.044   5.374  3.1867 -0.4281  0.8480
   84MOL   H25325319   0.277   0.137   5.503  0.1352  0.4861  0.9948
   84MOL   H25425320   0.316   0.215   5.358 -2.1871 -2.2035 -1.3954
   84MOL   H25525321   0.706   0.655   5.566  0.5271  0.8687  0.5501
   84MOL   H25625322   0.577   0.546   5.598 -0.5222  0.4184 -1.7837
   84MOL   C25725323   0.730   0.542   5.749  0.0749 -0.3676 -0.4270
   84MOL   O25825324   0.683   0.648   5.837 -0.0490  0.6805 -0.0857
   84MOL   C25925325   0.766   0.755   5.850 -0.3361  0.4162  0.5973
   84MOL   O26025326   0.859   0.779   5.772  0.1779  0.4319 -0.3737
   84MOL   C26125327   0.727   0.844   5.960 -0.1599  0.5613  0.3013
   84MOL   C26225328   0.687   0.768   6.086  0.0284  0.6876  0.0121
   84MOL   C26325329   0.703   0.402   5.819  0.2122 -0.5090  0.9261
   84MOL   H26425330   0.839   0.550   5.750  0.0177  0.4938 -0.8029
   84MOL   H26525331   0.807   0.917   5.975  3.7740 -2.5441 -3.7986
   84MOL   H26625332   0.642   0.906   5.933 -0.1183  0.3953 -0.2155
   84MOL   H26725333   0.578   0.758   6.088  0.2586 -2.2548 -0.8501
   84MOL   H26825334   0.737   0.674   6.104 -0.2878  0.3768 -0.7276
   84MOL   H26925335   0.700   0.827   6.177 -1.0075  2.8307 -1.1904
   84MOL   H27025336   0.739   0.325   5.750 -0.7209 -0.9041  0.8742
   84MOL   H27125337   0.764   0.408   5.909 -1.3788  1.5742  1.8945
   84MOL   C27225338   0.561   0.371   5.858 -0.2481 -0.2471  0.5109
   84MOL   O27325339   0.541   0.229   5.858  0.0313 -0.6631 -0.5637
   84MOL   C27425340   0.608   0.147   5.935  0.1674  0.1479 -0.6864
   84MOL   O27525341   0.677   0.183   6.033 -0.4668  0.0399 -0.2247
   84MOL   C27625342   0.581   7.945   5.900  0.2645 -1.6437 -0.1081
   84MOL   C27725343   0.436   7.920   5.919 -0.2070  0.5175 -0.3341
   84MOL   C27825344   0.509   0.440   5.990  0.7573  0.3844 -0.5467
   84MOL   H27925345   0.497   0.403   5.775  0.2635  1.9055  0.9130
   84MOL   H28025346   0.608   7.917   5.799 -0.4133  0.6557 -0.9495
   84MOL   H28125347   0.642   7.890   5.972  1.5572  1.5804  1.3648
   84MOL   H28225348   0.366   0.009   5.843  0.0244  0.9514 -0.3537
   84MOL   H28325349   0.417   7.813   5.929 -0.1260  0.5864  0.6611
   84MOL   H28425350   0.396   0.010   6.014 -0.0772 -2.2924  0.7936
   84MOL   H28525351   0.539   0.385   6.079  0.4506 -1.1752 -1.3779
   84MOL   H28625352   0.542   0.542   6.007  0.0077  0.4537  0.5412
   84MOL   C28725353   0.360   0.459   5.979  0.4294 -0.1364  0.0230
   84MOL   O28825354   0.280   0.339   5.971 -0.3904  0.5380  0.1591
   84MOL   C28925355   0.170   0.334   5.892 -0.3787 -0.1428  0.1147
   84MOL   O29025356   0.125   0.431   5.833  0.3927  0.4516 -0.0671
   84MOL   C29125357   0.094   0.208   5.906  0.8350  0.1609  0.0013
   84MOL   C29225358   7.922   0.195   5.798 -0.3718 -0.4398  0.1537
   84MOL   C29325359   0.303   0.533   6.101  0.1132 -0.2159 -0.5916
   84MOL   H29425360   0.342   0.515   5.887  0.7848  0.4087  0.2839
   84MOL   H29525361   0.167   0.129   5.885  1.2778  0.3796  0.6657
   84MOL   H29625362   0.054   0.208   6.008  1.5162 -1.0054  0.2864
   84MOL   H29725363   7.848   0.267   5.833  1.1192  1.8233 -1.3070
   84MOL   H29825364   0.015   0.225   5.701  2.7048 -2.5259  0.6167
   84MOL   H29925365   7.873   0.097   5.798  0.4387 -0.8464 -0.2687
   84MOL   H30025366   0.315   0.481   6.197  0.8355  1.3975  0.2103
   84MOL   H30125367   0.345   0.632   6.117  1.8052 -0.7370 -1.6270
   84MOL   H30225368   0.197   0.553   6.085 -0.3002 -0.8803  1.1998
   85MOL     C125369   6.289   2.120   4.566  0.2613 -0.5746 -0.0990
   85MOL     O225370   6.242   2.070   4.694 -0.2237 -0.2777 -0.1230
   85MOL     C325371   6.265   1.947   4.732 -0.6133 -0.1617 -0.7010
   85MOL     O425372   6.336   1.866   4.675  0.1084  0.5099  0.3092
   85MOL     C525373   6.199   1.906   4.867  0.4411 -0.2203  0.2517
   85MOL     C625374   6.311   1.878   4.967 -0.0978 -0.5972 -0.5558
   85MOL     C725375   6.430   2.175   4.583 -0.0644 -0.2435 -0.6194
   85MOL     H825376   6.230   2.201   4.525 -1.5786 -1.4685  0.7356
   85MOL     H925377   6.137   1.991   4.895  0.9450 -0.1576  1.2066
   85MOL    H1025378   6.138   1.816   4.861 -1.0877  0.7429  0.9893
   85MOL    H1125379   6.377   1.797   4.938  0.3641 -0.4585  0.0818
   85MOL    H1225380   6.371   1.967   4.988  0.5038 -1.4817  1.6611
   85MOL    H1325381   6.257   1.855   5.059 -0.6584 -0.4082 -0.8363
   85MOL    H1425382   6.422   2.246   4.666 -2.9914 -0.2867 -0.8226
   85MOL    H1525383   6.483   2.096   4.636 -1.8161 -0.1073  1.4270
   85MOL    H1625384   6.299   2.037   4.495 -1.4586 -0.4777 -0.4769
   85MOL    C1725385   6.509   2.222   4.457  0.0070 -0.5022  0.1605
   85MOL    O1825386   6.453   2.346   4.424 -0.3059  0.3887 -0.0487
   85MOL    C1925387   6.412   2.372   4.294 -0.1946 -0.2641 -0.1038
   85MOL    O2025388   6.417   2.281   4.214 -0.3504 -0.0780  0.5443
   85MOL    C2125389   6.389   2.514   4.263  0.3506 -0.1667  0.2947
   85MOL    C2225390   6.520   2.601   4.275 -0.3633 -0.4189  0.1189
   85MOL    C2325391   6.660   2.248   4.483  0.1115 -0.5413  0.5170
   85MOL    H2425392   6.501   2.155   4.371 -1.5125 -1.7926  1.2835
   85MOL    H2525393   6.321   2.512   4.177  0.7930  0.9482 -0.0928
   85MOL    H2625394   6.318   2.546   4.339 -0.2873 -1.7890  0.4087
   85MOL    H2725395   6.570   2.592   4.178 -0.4224  1.6902 -0.1359
   85MOL    H2825396   6.490   2.705   4.291 -0.6127 -0.4685 -0.0246
   85MOL    H2925397   6.581   2.587   4.364  0.6461  0.5904 -0.4007
   85MOL    H3025398   6.713   2.296   4.401 -0.7111  0.1955  0.4036
   85MOL    H3125399   6.666   2.310   4.572 -3.1087  0.9944 -0.2568
   85MOL    C3225400   6.741   2.116   4.500  0.0645  0.1911 -0.6958
   85MOL    O3325401   6.801   2.071   4.370 -0.1912  0.5824 -0.5843
   85MOL    C3425402   6.739   1.969   4.312  0.3999  0.4701  0.1622
   85MOL    O3525403   6.638   1.909   4.345 -0.2279  0.1185 -0.5031
   85MOL    C3625404   6.811   1.928   4.187 -0.1610 -0.1890  0.8161
   85MOL    C3725405   6.701   1.930   4.074  0.5924  0.1660 -0.5770
   85MOL    C3825406   6.862   2.141   4.595 -0.4351 -0.3659 -0.2695
   85MOL    H3925407   6.666   2.047   4.537  0.2145  0.0049 -0.7411
   85MOL    H4025408   6.891   1.999   4.164 -0.6468  0.0632 -0.1161
   85MOL    H4125409   6.849   1.826   4.189 -0.6279 -0.3821  0.1091
   85MOL    H4225410   6.655   1.832   4.065 -0.3768  0.3531  1.9695
   85MOL    H4325411   6.627   2.009   4.083  1.1841  0.7016 -0.3284
   85MOL    H4425412   6.754   1.959   3.983 -0.4404  1.4190 -0.7833
   85MOL    H4525413   6.935   2.062   4.579  0.7872  0.1672  2.4075
   85MOL    H4625414   6.915   2.233   4.571  1.3706 -1.6088 -1.1807
   85MOL    C4725415   6.815   2.143   4.752  0.4859  0.3347 -0.0957
   85MOL    O4825416   6.776   2.007   4.789 -0.8392  0.0545  0.3718
   85MOL    C4925417   6.673   1.976   4.858  0.3814 -0.3259 -0.7250
   85MOL    O5025418   6.581   2.050   4.883 -0.3299  0.7752  0.0892
   85MOL    C5125419   6.676   1.831   4.904 -0.0771  0.1572 -0.1070
   85MOL    C5225420   6.659   1.744   4.771  0.1482 -0.3251 -0.9126
   85MOL    C5325421   6.917   2.180   4.862  0.6309 -0.1288  0.1881
   85MOL    H5425422   6.731   2.209   4.774  1.4498  1.3056  0.7680
   85MOL    H5525423   6.771   1.799   4.947  0.5547 -0.8173 -2.1448
   85MOL    H5625424   6.603   1.815   4.983 -1.3473 -0.6108 -1.3932
   85MOL    H5725425   6.750   1.761   4.713  1.2196 -0.5375  0.6915
   85MOL    H5825426   6.643   1.639   4.795 -2.9345  0.8500  2.5756
   85MOL    H5925427   6.568   1.770   4.718  0.2277  2.1269  0.0791
   85MOL    H6025428   6.869   2.162   4.959 -0.3495 -1.3578 -0.5018
   85MOL    H6125429   6.994   2.104   4.849 -0.8804 -1.6786  0.0565
   85MOL    C6225430   6.973   2.325   4.856  0.5501 -0.1067  0.0453
   85MOL    O6325431   6.868   2.420   4.836 -0.2367  0.4393 -0.7209
   85MOL    C6425432   6.860   2.510   4.732 -0.0391 -0.1389 -0.2867
   85MOL    O6525433   6.942   2.508   4.641  0.0577 -0.1489  0.5255
   85MOL    C6625434   6.741   2.610   4.745 -0.4416  0.3028  0.3297
   85MOL    C6725435   6.666   2.610   4.612  0.3060 -0.5441 -0.2941
   85MOL    C6825436   7.048   2.357   4.996 -0.0331  0.1468 -0.1052
   85MOL    H6925437   7.046   2.338   4.777  0.6613  0.7795  0.2771
   85MOL    H7025438   6.683   2.588   4.836 -1.9829 -0.1320 -0.7278
   85MOL    H7125439   6.783   2.708   4.766 -0.7937  0.7384 -0.9512
   85MOL    H7225440   6.617   2.515   4.591 -1.6152  0.8095 -2.0184
   85MOL    H7325441   6.586   2.683   4.609  0.0426 -0.8834 -1.3907
   85MOL    H7425442   6.737   2.622   4.530  1.8399  0.2226  1.1104
   85MOL    H7525443   6.986   2.330   5.081  2.9250  2.2780  2.8959
   85MOL    H7625444   7.119   2.276   5.013  0.7282  0.5412 -1.2953
   85MOL    C7725445   7.120   2.492   4.998  0.1760  0.6062 -0.1642
   85MOL    O7825446   7.096   2.533   5.128  0.3222 -0.2341 -0.7014
   85MOL    C7925447   7.086   2.665   5.160  0.6722 -0.5341 -0.1849
   85MOL    O8025448   7.087   2.757   5.084 -0.0173 -0.0501 -0.3603
   85MOL    C8125449   7.075   2.682   5.307 -0.0950  0.8980  0.0992
   85MOL    C8225450   7.190   2.639   5.396  0.6004 -0.1372  0.9711
   85MOL    C8325451   7.270   2.479   4.983 -0.1472 -0.1970  0.2768
   85MOL    H8425452   7.071   2.567   4.935 -2.7305 -1.1323 -0.0612
   85MOL    H8525453   7.031   2.781   5.320 -0.0232  0.9860 -0.3354
   85MOL    H8625454   6.989   2.624   5.341  1.5602 -2.3252 -1.0562
   85MOL    H8725455   7.165   2.643   5.502  1.2471 -1.3951  1.1864
   85MOL    H8825456   7.213   2.537   5.365 -1.0045  0.0455 -0.9226
   85MOL    H8925457   7.284   2.690   5.377  1.3317 -1.0558  2.0242
   85MOL    H9025458   7.318   2.576   4.999  0.3691 -0.4528  0.3143
   85MOL    H9125459   7.309   2.409   5.057 -0.1857 -0.0962  0.3919
   85MOL    C9225460   7.306   2.450   4.836  0.0276  0.1609  0.2666
   85MOL    O9325461   7.270   2.565   4.764 -0.4622 -0.4024  0.3083
   85MOL    C9425462   7.240   2.569   4.631  0.1721 -0.4848  0.0731
   85MOL    O9525463   7.261   2.477   4.554  0.1135 -0.2013  0.6935
   85MOL    C9625464   7.198   2.707   4.584  0.5200 -0.1931 -0.3182
   85MOL    C9725465   7.190   2.812   4.694  0.0803 -0.3471 -0.2996
   85MOL    C9825466   7.453   2.418   4.828  0.7316  0.2906 -0.4601
   85MOL    H9925467   7.247   2.369   4.793 -0.0817  0.6043 -0.4353
   85MOL   H10025468   7.260   2.743   4.502 -1.4996  3.1209 -0.4728
   85MOL   H10125469   7.104   2.689   4.531 -0.4270  0.4819  1.0871
   85MOL   H10225470   7.273   2.820   4.764 -0.6867 -1.5129  0.7783
   85MOL   H10325471   7.169   2.909   4.650 -0.9045 -1.1518 -1.6433
   85MOL   H10425472   7.108   2.786   4.761  0.8227 -2.5039 -0.1737
   85MOL   H10525473   7.497   2.429   4.728  0.1454  1.4540 -0.5884
   85MOL   H10625474   7.495   2.494   4.893 -0.5054 -1.7544  2.8115
   85MOL   C10725475   7.491   2.276   4.870  0.0645  0.0041 -0.3817
   85MOL   O10825476   7.438   2.195   4.770  0.3037  1.0059 -1.0669
   85MOL   C10925477   7.338   2.103   4.783 -0.4086 -0.9104 -0.0616
   85MOL   O11025478   7.277   2.070   4.892  0.0341 -1.0161  0.8919
   85MOL   C11125479   7.298   2.035   4.649 -0.3223 -0.2830  0.0503
   85MOL   C11225480   7.223   2.127   4.554 -0.0219  0.3260 -0.3553
   85MOL   C11325481   7.644   2.253   4.875  0.1067  0.2038  0.4531
   85MOL   H11425482   7.448   2.246   4.966  0.9229 -0.1519 -0.0448
   85MOL   H11525483   7.393   2.006   4.604  0.9300  1.1134  1.6982
   85MOL   H11625484   7.236   1.948   4.671 -0.5150  0.1688  1.3864
   85MOL   H11725485   7.293   2.174   4.485  1.6014 -0.8886  0.4509
   85MOL   H11825486   7.147   2.066   4.505  0.7484 -1.0342  0.1142
   85MOL   H11925487   7.169   2.201   4.614 -0.3263  0.2716 -0.5555
   85MOL   H12025488   7.658   2.146   4.894 -0.7862  0.2873  1.6042
   85MOL   H12125489   7.680   2.267   4.773  0.2263 -1.0011  0.3220
   85MOL   C12225490   7.715   2.346   4.977  0.2254 -0.0769 -0.2659
   85MOL   O12325491   7.664   2.325   5.108 -0.5303 -0.3103 -0.0271
   85MOL   C12425492   7.604   2.432   5.178 -0.5932  0.3779  0.2729
   85MOL   O12525493   7.564   2.540   5.132  0.2575  0.1739  0.0346
   85MOL   C12625494   7.588   2.379   5.325  0.4975  0.1765  0.3398
   85MOL   C12725495   7.529   2.479   5.417 -0.0115 -0.4849  0.4286
   85MOL   C12825496   7.861   2.308   4.987 -0.3015  0.3105  0.5252
   85MOL   H12925497   7.697   2.450   4.953  1.2753  0.1072 -0.2920
   85MOL   H13025498   7.516   2.299   5.311  0.1812  0.6414 -0.7078
   85MOL   H13125499   7.680   2.334   5.360  0.0664 -1.4748 -0.6049
   85MOL   H13225500   7.602   2.556   5.441  2.8874 -2.4824 -1.6255
   85MOL   H13325501   7.431   2.509   5.381  0.7875  1.3135 -0.3030
   85MOL   H13425502   7.501   2.424   5.507 -1.3551 -0.3140  0.1218
   85MOL   H13525503   7.858   2.206   5.025  2.4771  0.0654  0.1822
   85MOL   H13625504   7.911   2.292   4.892 -0.3296 -1.4631  0.7880
   85MOL   C13725505   0.003   2.405   5.065  0.1074  0.0858  0.7902
   85MOL   O13825506   0.116   2.332   5.113 -0.2143 -0.4092  0.2199
   85MOL   C13925507   0.126   2.315   5.243  0.0129  0.1313 -0.5211
   85MOL   O14025508   0.048   2.356   5.330  0.0766 -0.2682 -0.1096
   85MOL   C14125509   0.230   2.223   5.288 -0.0543 -0.1356 -0.0391
   85MOL   C14225510   0.194   2.076   5.257 -0.1237 -0.2601  0.0840
   85MOL   C14325511   0.053   2.515   4.970 -0.1469 -0.3595 -0.1557
   85MOL   H14425512   7.892   2.451   5.147  2.4946 -1.9222  3.6643
   85MOL   H14525513   0.322   2.263   5.245 -1.0616  0.0897 -2.0361
   85MOL   H14625514   0.247   2.234   5.395  0.9161  1.4973 -0.3400
   85MOL   H14725515   0.115   2.045   5.326 -0.9630 -1.0574 -1.2248
   85MOL   H14825516   0.154   2.064   5.157 -1.2763  1.6348  0.2937
   85MOL   H14925517   0.276   2.007   5.274 -0.7022 -1.1343 -0.6959
   85MOL   H15025518   0.133   2.476   4.906  0.7248 -0.7255  1.1410
   85MOL   H15125519   7.906   2.546   4.920  0.6878  1.9244 -0.3088
   85MOL   C15225520   0.108   2.643   5.045 -0.1578 -0.0917  0.1168
   85MOL   O15325521   0.201   2.713   4.959 -0.1551 -0.0151  0.0371
   85MOL   C15425522   0.335   2.680   4.965  0.5437 -0.0800 -0.4589
   85MOL   O15525523   0.386   2.605   5.051 -0.5687 -0.2926  0.4958
   85MOL   C15625524   0.410   2.769   4.866 -0.4094 -0.6241 -0.0852
   85MOL   C15725525   0.459   2.686   4.752 -0.3135 -0.2470 -0.2613
   85MOL   C15825526   7.937   2.730   5.098  0.0144  0.2239  0.4022
   85MOL   H15925527   0.167   2.611   5.130  0.5044  2.3922  0.6190
   85MOL   H16025528   0.350   2.850   4.825  0.0875  0.0513  0.5033
   85MOL   H16125529   0.493   2.816   4.919  0.1411 -0.1901 -1.3283
   85MOL   H16225530   0.469   2.580   4.775  1.3804  0.1370  0.8544
   85MOL   H16325531   0.407   2.695   4.657  0.2025 -0.8819 -0.6090
   85MOL   H16425532   0.563   2.713   4.731 -0.6394  0.7703 -0.5898
   85MOL   H16525533   7.885   2.777   5.014  2.2205 -0.4358 -1.3993
   85MOL   H16625534   7.856   2.672   5.142 -0.6270  1.2591  0.6145
   85MOL   C16725535   0.033   2.822   5.212  0.4098 -0.3492  0.5022
   85MOL   O16825536   0.100   2.742   5.314  0.0195 -0.1306 -0.6051
   85MOL   C16925537   0.088   2.783   5.442 -0.7397 -0.4937 -0.8073
   85MOL   O17025538   0.036   2.887   5.487 -0.5882  0.1594 -0.4764
   85MOL   C17125539   0.140   2.682   5.546 -0.4977 -0.1038 -0.2097
   85MOL   C17225540   0.281   2.640   5.496  0.3729 -0.6753 -0.4297
   85MOL   C17325541   0.126   2.934   5.168 -0.2552 -0.5547 -0.0115
   85MOL   H17425542   7.883   2.868   5.239  0.1275 -1.5239  1.5296
   85MOL   H17525543   0.135   2.728   5.645  3.0093  1.1781 -0.5284
   85MOL   H17625544   0.076   2.594   5.544  0.2100 -0.6571  0.6836
   85MOL   H17725545   0.328   2.573   5.568 -1.1547 -2.7247 -1.2881
   85MOL   H17825546   0.270   2.591   5.399  0.6134 -0.1325 -0.7347
   85MOL   H17925547   0.350   2.724   5.486  0.5323 -0.9491 -1.7821
   85MOL   H18025548   0.150   3.000   5.251 -2.3393 -0.4559  0.5344
   85MOL   H18125549   0.220   2.894   5.130  0.3347  0.3204  0.5181
   85MOL   C18225550   0.059   3.025   5.055 -0.1580 -0.5829 -0.1635
   85MOL   O18325551   7.917   3.110   5.120  0.5916  0.6406  0.3828
   85MOL   C18425552   7.787   3.113   5.095  0.3080 -0.1961  0.3603
   85MOL   O18525553   7.725   3.048   5.015  0.2508  0.1376  0.5134
   85MOL   C18625554   7.714   3.227   5.162 -0.0239 -0.1367  0.1356
   85MOL   C18725555   7.619   3.312   5.077 -1.0344  0.1151  0.1819
   85MOL   C18825556   0.173   3.118   4.989  0.6799 -0.1051  0.1820
   85MOL   H18925557   0.014   2.972   4.971 -0.4349 -0.7545  0.0917
   85MOL   H19025558   7.657   3.172   5.237  0.5590  0.0889  0.7513
   85MOL   H19125559   7.782   3.303   5.201 -0.3500  0.4808 -0.5069
   85MOL   H19225560   7.576   3.255   4.994  0.0171 -2.2445  1.2089
   85MOL   H19325561   7.546   3.353   5.147 -4.4304 -0.2440 -2.9836
   85MOL   H19425562   7.680   3.392   5.034 -1.8701  2.1358  2.6370
   85MOL   H19525563   0.212   3.185   5.066 -0.3569  0.1863  0.4660
   85MOL   H19625564   0.254   3.062   4.943  1.3878  0.3673  0.8320
   85MOL   C19725565   0.107   3.210   4.885  0.0247  0.0675  0.0789
   85MOL   O19825566   0.179   3.332   4.874 -0.1358  0.1731 -0.1183
   85MOL   C19925567   0.147   3.435   4.957 -0.1414  0.3187 -0.3215
   85MOL   O20025568   0.039   3.441   5.016  0.9491  0.4508  0.2430
   85MOL   C20125569   0.253   3.551   4.961  0.1502 -0.3390  0.2577
   85MOL   C20225570   0.381   3.516   5.025  0.4835  0.8775  0.2394
   85MOL   C20325571   0.085   3.150   4.742 -0.8343  0.2580 -0.8204
   85MOL   H20425572   0.008   3.242   4.918 -0.6332 -1.4511 -0.3680
   85MOL   H20525573   0.264   3.593   4.861  0.6084 -1.5501 -0.2158
   85MOL   H20625574   0.202   3.629   5.016  1.2196  0.4147  0.1828
   85MOL   H20725575   0.373   3.442   5.104 -2.5360  0.6232 -0.2273
   85MOL   H20825576   0.458   3.482   4.956 -2.7926 -2.6957 -1.8329
   85MOL   H20925577   0.417   3.609   5.070  1.1040 -0.1542  1.9209
   85MOL   H21025578   0.174   3.153   4.680  0.3023  0.3610  0.7827
   85MOL   H21125579   0.067   3.044   4.754 -1.7512  0.5453  0.4880
   85MOL   C21225580   7.912   3.202   4.659  0.0774  0.2764  0.0419
   85MOL   O21325581   7.890   3.112   4.545  0.2660  0.5309  0.1552
   85MOL   C21425582   0.011   3.121   4.435  0.1161  1.0122  0.5871
   85MOL   O21525583   0.099   3.199   4.409 -0.4824 -0.4818 -0.4122
   85MOL   C21625584   7.896   3.027   4.331 -0.0345 -0.2686 -0.4958
   85MOL   C21725585   7.878   3.086   4.194  0.6630  0.0588  1.5333
   85MOL   C21825586   7.773   3.207   4.733 -0.3108  0.3637 -0.3920
   85MOL   H21925587   7.935   3.299   4.615 -0.5014 -0.0949 -1.0977
   85MOL   H22025588   0.010   2.934   4.332 -1.1742 -1.0068  1.1458
   85MOL   H22125589   7.803   2.992   4.375  0.9336 -1.0529  1.0174
   85MOL   H22225590   0.017   3.084   4.124 -1.7295 -1.4170 -1.3896
   85MOL   H22325591   7.806   3.027   4.137  0.7149  0.1312  1.3934
   85MOL   H22425592   7.830   3.182   4.209 -0.9772 -0.4476 -0.2299
   85MOL   H22525593   7.740   3.112   4.775 -1.5782  0.5525 -0.9349
   85MOL   H22625594   7.794   3.282   4.809 -1.0179  0.3387 -0.1668
   85MOL   C22725595   7.660   3.262   4.642  0.6601  0.1722 -0.7448
   85MOL   O22825596   7.557   3.258   4.745 -0.2593  0.1174 -0.5416
   85MOL   C22925597   7.443   3.195   4.717  0.4164  0.2379 -0.3781
   85MOL   O23025598   7.410   3.143   4.612 -0.4270  0.8686  0.1071
   85MOL   C23125599   7.355   3.201   4.842  0.0052 -0.3884 -0.0988
   85MOL   C23225600   7.314   3.339   4.893 -0.5967  0.5217 -0.1118
   85MOL   C23325601   7.690   3.403   4.587 -0.2043 -0.0082  0.2565
   85MOL   H23425602   7.644   3.194   4.558  0.2283  0.4479 -0.8839
   85MOL   H23525603   7.271   3.132   4.828  1.4975 -2.2233 -0.0795
   85MOL   H23625604   7.414   3.155   4.921 -0.5854 -1.5315 -0.3040
   85MOL   H23725605   7.207   3.356   4.882 -0.8410 -1.0068 -0.2143
   85MOL   H23825606   7.332   3.349   5.000 -0.3212  0.8554 -0.1902
   85MOL   H23925607   7.352   3.420   4.831  0.9228 -0.5300 -0.5754
   85MOL   H24025608   7.707   3.471   4.670  1.1812  0.9282 -0.7730
   85MOL   H24125609   7.784   3.409   4.532 -0.9120  1.6283 -0.8071
   85MOL   C24225610   7.576   3.462   4.507  0.2426 -0.5604 -0.9337
   85MOL   O24325611   7.610   3.596   4.475  0.7100 -0.0993 -0.5408
   85MOL   C24425612   7.522   3.703   4.484 -0.2292 -0.4937  0.2760
   85MOL   O24525613   7.409   3.700   4.530  0.7748  0.1333  0.0232
   85MOL   C24625614   7.576   3.830   4.412  0.0897 -0.0367  0.8122
   85MOL   C24725615   7.570   3.812   4.260  0.1452 -0.3871 -0.3797
   85MOL   C24825616   7.551   3.380   4.381  0.3169  0.3745  0.3236
   85MOL   H24925617   7.493   3.453   4.577  0.0059  0.0853 -1.1265
   85MOL   H25025618   7.539   3.923   4.455  1.6436  0.8981  0.1506
   85MOL   H25125619   7.684   3.826   4.425  0.6314  1.6246 -2.6146
   85MOL   H25225620   7.465   3.830   4.234  0.1607 -2.0223 -1.6501
   85MOL   H25325621   7.632   3.890   4.216  0.5977  0.5439  1.8005
   85MOL   H25425622   7.604   3.716   4.221 -1.9812 -2.2462  2.1221
   85MOL   H25525623   7.641   3.373   4.320  0.3042 -1.1305  0.4372
   85MOL   H25625624   7.532   3.276   4.408 -0.7294 -0.0167 -1.7675
   85MOL   C25725625   7.435   3.420   4.282 -0.0562 -0.0875 -0.8453
   85MOL   O25825626   7.417   3.329   4.178  0.2152 -0.1664 -0.0425
   85MOL   C25925627   7.433   3.375   4.052 -0.2809  0.3852 -1.1137
   85MOL   O26025628   7.461   3.492   4.016  0.3420  0.0254  0.6102
   85MOL   C26125629   7.407   3.271   3.956  0.2261  0.2726  0.6619
   85MOL   C26225630   7.458   3.303   3.812 -0.0979  0.3313 -0.1041
   85MOL   C26325631   7.303   3.433   4.358 -0.3927  0.6590  0.2600
   85MOL   H26425632   7.460   3.514   4.234  2.0294 -0.7549 -1.1465
   85MOL   H26525633   7.455   3.183   4.000 -0.7265 -0.5740  0.0157
   85MOL   H26625634   7.301   3.249   3.967  0.5274 -0.0425  3.3267
   85MOL   H26725635   7.565   3.320   3.824  0.4971 -1.5901 -2.2763
   85MOL   H26825636   7.442   3.225   3.738 -1.3846 -0.9540  1.4754
   85MOL   H26925637   7.414   3.395   3.776  1.4524  0.5827 -1.3721
   85MOL   H27025638   7.270   3.331   4.379  2.2578  0.1061  1.9956
   85MOL   H27125639   7.306   3.475   4.458  3.0994 -0.4128  0.6526
   85MOL   C27225640   7.190   3.501   4.274  0.5200 -0.5445 -0.3237
   85MOL   O27325641   7.071   3.467   4.341  0.0528  0.1036 -0.0680
   85MOL   C27425642   7.007   3.356   4.310 -0.2706  0.7281  0.3058
   85MOL   O27525643   7.045   3.273   4.231  0.1943  0.1127 -0.7511
   85MOL   C27625644   6.874   3.350   4.390  0.1772 -0.8100  0.1462
   85MOL   C27725645   6.893   3.386   4.544 -0.1641 -0.0861 -0.2773
   85MOL   C27825646   7.205   3.655   4.272 -0.2617 -0.0899  0.5264
   85MOL   H27925647   7.195   3.465   4.171  0.1399 -0.6387 -0.3089
   85MOL   H28025648   6.806   3.429   4.359  1.5120  0.2318 -0.1902
   85MOL   H28125649   6.825   3.253   4.390 -1.2290 -0.1334 -1.2228
   85MOL   H28225650   6.795   3.379   4.591 -0.2638  0.0904 -0.4564
   85MOL   H28325651   6.946   3.304   4.592  0.6020 -0.0504 -1.0521
   85MOL   H28425652   6.941   3.481   4.569  0.8161 -0.4460 -0.7559
   85MOL   H28525653   7.186   3.699   4.370 -0.4756 -0.5942  0.7135
   85MOL   H28625654   7.309   3.657   4.239  0.0344 -1.5341  1.3286
   85MOL   C28725655   7.112   3.738   4.179 -0.5966  0.2195 -0.4723
   85MOL   O28825656   7.128   3.709   4.035 -0.1478 -0.1057  0.0167
   85MOL   C28925657   7.168   3.807   3.947 -0.2432  0.4485  0.5713
   85MOL   O29025658   7.207   3.916   3.987 -0.2505 -0.9078  0.0424
   85MOL   C29125659   7.159   3.768   3.801 -0.0552  0.0982 -0.1352
   85MOL   C29225660   7.245   3.645   3.760  0.2292 -0.7998  0.4199
   85MOL   C29325661   6.964   3.724   4.212  0.3634 -0.2052  0.0818
   85MOL   H29425662   7.140   3.842   4.193  1.2940  0.1632 -3.3863
   85MOL   H29525663   7.054   3.741   3.791  0.2344 -1.7833  1.6384
   85MOL   H29625664   7.164   3.842   3.721 -0.8150  0.2322 -0.0604
   85MOL   H29725665   7.207   3.614   3.663  2.6130 -0.1798 -0.7401
   85MOL   H29825666   7.353   3.658   3.749  0.0152  0.2934 -0.3746
   85MOL   H29925667   7.231   3.564   3.832 -1.4924  0.2660  1.3051
   85MOL   H30025668   6.928   3.624   4.187  0.5844 -0.7649  1.9014
   85MOL   H30125669   6.956   3.738   4.320 -1.2497 -1.1361  0.1000
   85MOL   H30225670   6.915   3.808   4.163  0.7934 -0.9228 -1.6263
   86MOL     C125671   2.621   4.044   4.164  0.2040 -0.0261  0.8926
   86MOL     O225672   2.528   3.950   4.205  0.3044  0.2059 -0.7077
   86MOL     C325673   2.478   3.978   4.332  0.6351 -0.0094 -0.1436
   86MOL     O425674   2.493   4.083   4.396 -0.2643 -0.2036 -0.1486
   86MOL     C525675   2.405   3.858   4.380  0.1940  0.1190 -0.0933
   86MOL     C625676   2.383   3.849   4.532  0.7060 -0.4817  0.9386
   86MOL     C725677   2.650   4.016   4.016  0.5160 -0.1726 -0.5858
   86MOL     H825678   2.719   4.029   4.209  0.9754  1.6989 -0.2013
   86MOL     H925679   2.307   3.843   4.335 -0.1550  0.3665  0.5756
   86MOL    H1025680   2.470   3.772   4.365  0.4015  0.5380 -1.6238
   86MOL    H1125681   2.472   3.839   4.594  1.7827 -2.9484 -0.9234
   86MOL    H1225682   2.342   3.945   4.562 -0.7297 -0.8640  0.2206
   86MOL    H1325683   2.305   3.780   4.564  0.3943 -0.0508  1.1151
   86MOL    H1425684   2.651   3.907   4.009 -0.2016 -0.3672  1.8374
   86MOL    H1525685   2.555   4.031   3.964 -1.0279 -0.2197  2.1344
   86MOL    H1625686   2.576   4.142   4.176 -3.2603 -1.5744  1.2203
   86MOL    C1725687   2.780   4.070   3.948  0.5522 -0.4539  0.2026
   86MOL    O1825688   2.757   4.209   3.918 -0.0570 -0.1541 -0.1032
   86MOL    C1925689   2.703   4.254   3.804  0.1212 -1.4867 -0.1869
   86MOL    O2025690   2.687   4.177   3.704 -0.0378 -0.2597 -0.2764
   86MOL    C2125691   2.648   4.392   3.807 -0.4230  0.3389 -0.7082
   86MOL    C2225692   2.540   4.401   3.908  0.8773 -0.8498  0.4741
   86MOL    C2325693   2.905   4.067   4.037  0.5414  0.1051  0.1651
   86MOL    H2425694   2.792   4.012   3.856 -1.9914  0.1712 -0.5710
   86MOL    H2525695   2.728   4.463   3.827  0.1165 -0.1424 -1.1523
   86MOL    H2625696   2.614   4.415   3.706 -1.4596  1.9484 -0.0093
   86MOL    H2725697   2.514   4.499   3.947  2.4455  0.1789 -1.0134
   86MOL    H2825698   2.447   4.366   3.863  1.8992 -2.2657 -0.5731
   86MOL    H2925699   2.550   4.331   3.991 -1.1395 -2.6167 -0.7122
   86MOL    H3025700   2.903   4.128   4.127 -0.0286 -1.1752  1.0399
   86MOL    H3125701   2.912   3.964   4.073  0.6394  0.1813  0.3615
   86MOL    C3225702   3.040   4.108   3.980  1.0410  0.1338 -0.5752
   86MOL    O3325703   3.146   4.053   4.062  0.5226 -0.1935 -0.3284
   86MOL    C3425704   3.232   4.140   4.123  0.2829  0.4618 -0.5051
   86MOL    O3525705   3.230   4.266   4.120  0.4186  0.3403  0.3775
   86MOL    C3625706   3.325   4.067   4.213  0.3343 -0.2779  0.4926
   86MOL    C3725707   3.303   4.112   4.359 -0.5482 -0.0578 -0.3854
   86MOL    C3825708   3.064   4.045   3.843  0.1534  0.4777 -0.0087
   86MOL    H3925709   3.050   4.216   3.970 -0.2163  0.2254 -1.0139
   86MOL    H4025710   3.318   3.958   4.208 -1.0959 -0.0699 -2.8534
   86MOL    H4125711   3.429   4.081   4.186  0.6207 -0.5955  1.4099
   86MOL    H4225712   3.349   4.210   4.361 -2.5133  0.8898  2.7511
   86MOL    H4325713   3.195   4.118   4.373 -0.6123  0.9128 -1.1917
   86MOL    H4425714   3.343   4.037   4.427  2.0590  0.1768 -1.6338
   86MOL    H4525715   3.043   3.938   3.841 -0.2927  0.5045  1.7049
   86MOL    H4625716   2.992   4.076   3.767 -0.0044 -0.9081 -0.4340
   86MOL    C4725717   3.195   4.074   3.784  0.2977  0.2236  0.3524
   86MOL    O4825718   3.196   3.992   3.668  0.0182  0.0294  0.1051
   86MOL    C4925719   3.311   3.923   3.644  0.4952  0.8824  0.6008
   86MOL    O5025720   3.414   3.937   3.708  0.6585  0.2494 -0.1465
   86MOL    C5125721   3.285   3.819   3.535  0.3087 -0.1365 -0.0417
   86MOL    C5225722   3.407   3.729   3.509 -0.1577  0.6734 -0.0407
   86MOL    C5325723   3.215   4.225   3.746 -0.9423  0.0051  0.0995
   86MOL    H5425724   3.268   4.031   3.854 -0.5768 -4.7740 -1.6372
   86MOL    H5525725   3.207   3.753   3.571  0.1759 -1.6412 -2.9196
   86MOL    H5625726   3.255   3.868   3.443  2.3160  0.7325 -0.2591
   86MOL    H5725727   3.373   3.641   3.454  0.5648  1.4403 -1.7523
   86MOL    H5825728   3.485   3.781   3.453  1.4103 -2.1960 -0.6230
   86MOL    H5925729   3.444   3.679   3.599 -1.9196  0.2766  0.4782
   86MOL    H6025730   3.139   4.241   3.669 -0.7781 -0.6195 -0.1972
   86MOL    H6125731   3.195   4.301   3.822 -1.8888  1.8531 -1.9670
   86MOL    C6225732   3.358   4.261   3.710  0.3790  0.6389  0.0435
   86MOL    O6325733   3.363   4.390   3.642 -0.5508  0.5396  0.0964
   86MOL    C6425734   3.312   4.416   3.522 -0.1231  0.8725 -0.3637
   86MOL    O6525735   3.259   4.335   3.448 -0.0944  0.0844  0.1251
   86MOL    C6625736   3.321   4.561   3.493  0.5151 -0.0551 -0.4004
   86MOL    C6725737   3.330   4.602   3.350 -0.2520  0.0433  1.0214
   86MOL    C6825738   3.458   4.244   3.832 -0.0354  0.4914  0.2106
   86MOL    H6925739   3.374   4.181   3.637 -1.6310  0.2953 -0.0648
   86MOL    H7025740   3.259   4.625   3.556  0.4850 -0.2222 -0.2617
   86MOL    H7125741   3.421   4.583   3.530 -0.7404  2.3302  1.7171
   86MOL    H7225742   3.260   4.550   3.285  0.2800  0.5215  0.0510
   86MOL    H7325743   3.319   4.710   3.342  0.5776  0.0959  0.5390
   86MOL    H7425744   3.431   4.579   3.317  0.0534  1.5706  0.8546
   86MOL    H7525745   3.429   4.322   3.902  0.2377 -0.5503  1.5072
   86MOL    H7625746   3.438   4.152   3.887  0.1065 -0.5450 -1.4442
   86MOL    C7725747   3.609   4.257   3.812 -0.0863 -1.3988 -0.3977
   86MOL    O7825748   3.661   4.245   3.947  0.4686  0.2692 -0.6686
   86MOL    C7925749   3.781   4.303   3.983  0.3491 -0.1914 -0.6160
   86MOL    O8025750   3.865   4.342   3.907 -0.3932  0.3939 -0.6699
   86MOL    C8125751   3.797   4.322   4.130  0.4991  0.0593 -0.2091
   86MOL    C8225752   3.802   4.181   4.190 -0.4523 -1.1844  0.0668
   86MOL    C8325753   3.678   4.149   3.720  0.0757 -0.2608  0.1411
   86MOL    H8425754   3.616   4.361   3.780 -1.2577 -1.0720  0.3645
   86MOL    H8525755   3.884   4.386   4.149  1.1838 -0.9215 -0.0107
   86MOL    H8625756   3.711   4.375   4.169 -0.1342 -0.4768 -0.8707
   86MOL    H8725757   3.796   4.183   4.298 -3.4973  0.0725 -0.0573
   86MOL    H8825758   3.730   4.104   4.158 -1.6611  0.5526 -1.5124
   86MOL    H8925759   3.899   4.139   4.167 -0.3362 -0.0908 -1.5299
   86MOL    H9025760   3.784   4.142   3.745  0.0302 -1.9943 -0.0665
   86MOL    H9125761   3.636   4.052   3.747 -1.8158  0.9656  1.8071
   86MOL    C9225762   3.672   4.175   3.572 -0.0448  0.6316  0.3401
   86MOL    O9325763   3.767   4.271   3.539 -0.6216 -0.0740  0.7609
   86MOL    C9425764   3.722   4.385   3.461 -0.5508 -0.4513 -0.1114
   86MOL    O9525765   3.609   4.405   3.420  0.2297 -0.1583 -0.0890
   86MOL    C9625766   3.836   4.478   3.432  0.5984  0.1123 -0.5769
   86MOL    C9725767   3.897   4.547   3.550 -0.2855  0.4357 -0.0850
   86MOL    C9825768   3.703   4.053   3.481  0.1517 -0.3558 -0.2514
   86MOL    H9925769   3.569   4.204   3.553  0.3496  1.1358 -1.0607
   86MOL   H10025770   3.898   4.408   3.376  0.2998  1.0480 -2.1333
   86MOL   H10125771   3.821   4.556   3.357 -2.0220 -0.6716 -0.9245
   86MOL   H10225772   3.950   4.641   3.531 -1.0418  1.1692  1.3647
   86MOL   H10325773   3.822   4.577   3.623 -0.1978  3.9137 -1.3255
   86MOL   H10425774   3.960   4.473   3.599  0.6680  1.0749 -0.3259
   86MOL   H10525775   3.809   4.028   3.485 -0.4369 -2.8083  0.8458
   86MOL   H10625776   3.649   3.965   3.517 -1.4536  1.1138  0.9930
   86MOL   C10725777   3.666   4.077   3.338 -0.0200  0.5926 -0.2418
   86MOL   O10825778   3.697   3.960   3.258 -0.0899 -0.0835 -0.3689
   86MOL   C10925779   3.770   3.979   3.143 -0.4295 -0.1646 -0.5570
   86MOL   O11025780   3.806   4.088   3.091 -0.1849 -0.1233 -0.3253
   86MOL   C11125781   3.815   3.850   3.086  0.6540 -0.4655  0.2216
   86MOL   C11225782   3.689   3.756   3.047 -0.4388  0.9446  0.2714
   86MOL   C11325783   3.511   4.082   3.320  0.7631  0.4465  0.9649
   86MOL   H11425784   3.723   4.167   3.312  1.6311  0.5480  2.9988
   86MOL   H11525785   3.880   3.864   3.000 -0.7124 -1.5590 -1.0072
   86MOL   H11625786   3.871   3.804   3.168  0.5619 -1.0938 -0.0584
   86MOL   H11725787   3.596   3.814   3.039 -0.4391  0.9647  0.4096
   86MOL   H11825788   3.702   3.708   2.950 -1.7724 -2.6389  1.7850
   86MOL   H11925789   3.682   3.680   3.124 -4.2091  1.6728  0.7816
   86MOL   H12025790   3.465   3.984   3.336 -0.1630  0.7455  0.1682
   86MOL   H12125791   3.465   4.143   3.397 -0.9736 -0.5393  0.7278
   86MOL   C12225792   3.466   4.117   3.176  0.2665  0.7782  0.4765
   86MOL   O12325793   3.325   4.099   3.167 -0.4692  0.1117 -0.6165
   86MOL   C12425794   3.275   3.988   3.113  0.1387  0.3143 -1.0372
   86MOL   O12525795   3.342   3.894   3.072 -0.2185  0.7565 -0.0231
   86MOL   C12625796   3.126   3.983   3.131  0.0181  0.4322  0.4975
   86MOL   C12725797   3.053   4.066   3.025  0.1478  0.4735  0.3879
   86MOL   C12825798   3.491   4.261   3.132 -0.2438  0.1222 -0.6786
   86MOL   H12925799   3.517   4.048   3.109 -3.0052 -1.2570 -0.0898
   86MOL   H13025800   3.108   3.876   3.120 -0.7383  0.5269  0.8076
   86MOL   H13125801   3.092   4.006   3.232  0.8430 -0.5953  1.0239
   86MOL   H13225802   2.946   4.047   3.036  0.1362 -1.0702 -2.1985
   86MOL   H13325803   3.071   4.174   3.025  1.2959  0.2847 -0.5275
   86MOL   H13425804   3.075   4.030   2.925 -0.2638  0.0472  0.4509
   86MOL   H13525805   3.442   4.331   3.200 -0.0880 -0.8749  0.4859
   86MOL   H13625806   3.599   4.275   3.144 -0.0413 -2.3660  0.7489
   86MOL   C13725807   3.466   4.308   2.989  0.9995  0.1782  0.8159
   86MOL   O13825808   3.545   4.225   2.911 -0.0179 -0.1436  0.3209
   86MOL   C13925809   3.609   4.263   2.799  0.4812 -0.5383  0.4785
   86MOL   O14025810   3.625   4.380   2.760  1.0627  0.2364  0.4998
   86MOL   C14125811   3.691   4.156   2.735  0.4214 -0.5042  0.2223
   86MOL   C14225812   3.596   4.037   2.702 -0.6577 -0.5062 -0.7119
   86MOL   C14325813   3.313   4.302   2.953  0.3494  0.6393  0.1934
   86MOL   H14425814   3.504   4.410   2.979  0.7778  0.2846  1.0637
   86MOL   H14525815   3.732   4.193   2.640 -0.9040 -0.5964 -0.3899
   86MOL   H14625816   3.784   4.120   2.779  1.3810  1.6844  0.0567
   86MOL   H14725817   3.503   4.071   2.654 -0.4635  0.2104 -0.5790
   86MOL   H14825818   3.638   3.975   2.623  0.1876  2.1397 -2.4173
   86MOL   H14925819   3.569   3.974   2.787  1.9690  0.3964  0.8253
   86MOL   H15025820   3.289   4.205   2.909  2.5865  0.1303  0.0284
   86MOL   H15125821   3.257   4.320   3.045  1.0618  0.2782  0.6921
   86MOL   C15225822   3.280   4.408   2.839  0.2461  0.2672 -0.8456
   86MOL   O15325823   3.162   4.377   2.776 -0.2571 -0.0797 -0.0900
   86MOL   C15425824   3.156   4.319   2.650  0.0718 -0.2393 -0.3963
   86MOL   O15525825   3.251   4.313   2.572  0.8776 -0.1202 -0.0081
   86MOL   C15625826   3.023   4.252   2.615 -0.3945 -0.0691 -0.2031
   86MOL   C15725827   3.047   4.105   2.596 -0.1536 -0.0480 -0.3381
   86MOL   C15825828   3.263   4.548   2.912 -0.4774 -0.4674 -0.1079
   86MOL   H15925829   3.361   4.411   2.765 -1.7710 -3.5308 -3.3966
   86MOL   H16025830   2.940   4.273   2.682 -2.2692 -0.6337 -2.2798
   86MOL   H16125831   2.992   4.293   2.519 -0.8031 -0.1001 -0.0863
   86MOL   H16225832   3.057   4.048   2.689 -2.8871  0.5774  0.3990
   86MOL   H16325833   2.971   4.051   2.539 -1.2215  2.7353 -1.5893
   86MOL   H16425834   3.129   4.097   2.525 -0.9514 -0.0767 -1.2591
   86MOL   H16525835   3.174   4.546   2.974 -0.1735  1.8613  0.4471
   86MOL   H16625836   3.351   4.574   2.970 -0.6273  0.6228 -0.3519
   86MOL   C16725837   3.249   4.668   2.814 -0.0520  0.0518 -0.0431
   86MOL   O16825838   3.210   4.773   2.901 -0.2073 -0.5461  0.5908
   86MOL   C16925839   3.109   4.859   2.865 -0.3457  0.0827  0.4491
   86MOL   O17025840   3.054   4.858   2.753  0.0004 -0.5407 -0.5574
   86MOL   C17125841   3.054   4.940   2.979  0.0367  0.1194 -0.2547
   86MOL   C17225842   3.076   5.091   2.966  0.9527  0.3797  0.8795
   86MOL   C17325843   3.385   4.706   2.748  0.1310 -0.4307  0.2930
   86MOL   H17425844   3.164   4.648   2.749 -0.9276 -4.5105  2.2484
   86MOL   H17525845   2.950   4.906   2.983  0.2575 -0.6506 -0.9779
   86MOL   H17625846   3.100   4.911   3.073 -2.0838 -0.2346  0.7185
   86MOL   H17725847   3.097   5.124   2.864 -0.4619  3.5621  1.5440
   86MOL   H17825848   2.991   5.148   3.004 -1.5520 -0.2918 -3.3629
   86MOL   H17925849   3.161   5.122   3.027  1.8289  1.1714 -0.6930
   86MOL   H18025850   3.460   4.706   2.827 -1.4894 -1.1992  1.8650
   86MOL   H18125851   3.423   4.628   2.683 -1.8267 -2.6442  1.7222
   86MOL   C18225852   3.404   4.843   2.684  0.9295 -0.0342 -0.1887
   86MOL   O18325853   3.530   4.902   2.739  0.4251 -0.0752  0.2135
   86MOL   C18425854   3.525   5.011   2.821  0.0883  0.6064 -0.2663
   86MOL   O18525855   3.423   5.069   2.846 -0.1425  1.0192  0.3709
   86MOL   C18625856   3.659   5.043   2.878  0.2127 -0.2846 -0.8814
   86MOL   C18725857   3.662   5.110   3.014 -0.6771  0.1758  0.3857
   86MOL   C18825858   3.428   4.833   2.529  0.1838  0.2945  0.4660
   86MOL   H18925859   3.326   4.916   2.706  2.1149  1.7327 -1.7129
   86MOL   H19025860   3.724   4.955   2.878  0.4563 -0.1405 -2.6390
   86MOL   H19125861   3.708   5.115   2.811 -0.9501 -0.5008 -1.9876
   86MOL   H19225862   3.752   5.171   3.015 -0.3683 -0.2197 -0.8676
   86MOL   H19325863   3.575   5.170   3.041 -1.4989 -0.0798 -1.5872
   86MOL   H19425864   3.684   5.027   3.081  0.8121 -0.3986 -0.7688
   86MOL   H19525865   3.486   4.918   2.491  0.7725  1.3541  3.6267
   86MOL   H19625866   3.498   4.751   2.515  0.6561  0.8259 -0.3276
   86MOL   C19725867   3.299   4.816   2.434 -0.0298 -0.4233 -0.2081
   86MOL   O19825868   3.323   4.861   2.304  0.1490 -0.2516 -0.1151
   86MOL   C19925869   3.229   4.929   2.229 -0.7374  0.4330 -0.5473
   86MOL   O20025870   3.111   4.940   2.261 -0.0599 -0.6448  0.1161
   86MOL   C20125871   3.283   4.955   2.085  0.4551  0.4720  0.4241
   86MOL   C20225872   3.428   5.012   2.084  0.3846 -0.4412  0.8307
   86MOL   C20325873   3.260   4.666   2.419  0.3594 -0.1702 -0.3569
   86MOL   H20425874   3.215   4.873   2.475 -0.4731 -1.1036 -0.1571
   86MOL   H20525875   3.281   4.859   2.034 -3.2760  1.7358 -2.0102
   86MOL   H20625876   3.211   5.021   2.037 -0.0269 -1.0784 -1.0561
   86MOL   H20725877   3.498   4.939   2.126  0.8462  0.5283  1.7827
   86MOL   H20825878   3.451   5.044   1.983  1.3451  1.6417  1.6810
   86MOL   H20925879   3.430   5.097   2.152 -1.4308 -0.5912  1.0974
   86MOL   H21025880   3.331   4.622   2.350  0.7407 -1.1826  0.6663
   86MOL   H21125881   3.267   4.610   2.512  0.2214  0.0716 -0.1982
   86MOL   C21225882   3.114   4.647   2.371  0.0677 -0.7815 -0.0549
   86MOL   O21325883   3.087   4.512   2.347  0.5666  0.0301 -0.2031
   86MOL   C21425884   3.129   4.461   2.227 -0.5958 -0.1613 -0.3744
   86MOL   O21525885   3.187   4.520   2.141  0.5301 -0.8791 -0.2629
   86MOL   C21625886   3.098   4.305   2.227 -0.2115  0.4029  0.0596
   86MOL   C21725887   2.950   4.262   2.244  0.1756  0.2146 -0.4886
   86MOL   C21825888   3.028   4.680   2.489 -0.5347 -0.3266  0.2454
   86MOL   H21925889   3.073   4.698   2.284  1.1768 -0.0720 -0.1667
   86MOL   H22025890   3.135   4.253   2.139  0.3022  1.6770 -0.4846
   86MOL   H22125891   3.149   4.262   2.314  0.8994  0.0207 -0.7798
   86MOL   H22225892   2.924   4.202   2.330 -3.2194  1.1135 -0.8251
   86MOL   H22325893   2.889   4.353   2.241 -0.8297 -0.4867 -2.7015
   86MOL   H22425894   2.917   4.201   2.160 -0.0692 -0.6957  0.2648
   86MOL   H22525895   3.037   4.600   2.562 -2.3147  0.0103  0.8504
   86MOL   H22625896   3.040   4.778   2.535  1.7513  0.5952 -2.1488
   86MOL   C22725897   2.874   4.682   2.441 -0.1453  0.5569 -0.5895
   86MOL   O22825898   2.808   4.657   2.558  0.3828  0.1389  0.4884
   86MOL   C22925899   2.769   4.528   2.583  0.4456  0.2589 -0.6758
   86MOL   O23025900   2.775   4.436   2.502  0.1637  0.0297  0.7191
   86MOL   C23125901   2.720   4.510   2.729  0.4212  0.0094  0.1873
   86MOL   C23225902   2.837   4.525   2.826 -0.7593  0.0186  0.2619
   86MOL   C23325903   2.829   4.819   2.383  0.4434  0.3944  0.8559
   86MOL   H23425904   2.873   4.600   2.369  2.0272 -0.8612  0.9374
   86MOL   H23525905   2.643   4.586   2.743  0.3846 -0.3260  1.8120
   86MOL   H23625906   2.666   4.415   2.726 -0.1913  0.3727 -0.7614
   86MOL   H23725907   2.927   4.467   2.806 -1.7208 -0.6826 -2.1785
   86MOL   H23825908   2.874   4.628   2.827  4.4164 -1.6649  3.8964
   86MOL   H23925909   2.797   4.498   2.924  1.0589 -3.6654  0.0787
   86MOL   H24025910   2.853   4.906   2.446  3.0719  0.5739 -0.3539
   86MOL   H24125911   2.888   4.830   2.292  1.0592 -0.6978  1.1221
   86MOL   C24225912   2.679   4.831   2.351  0.5175 -0.3577  0.4696
   86MOL   O24325913   2.602   4.848   2.468  0.1052  0.1321  0.0356
   86MOL   C24425914   2.501   4.766   2.486  1.5847 -0.1635  0.5977
   86MOL   O24525915   2.455   4.696   2.400 -0.2774  0.2178  0.0863
   86MOL   C24625916   2.457   4.756   2.635  0.0504 -0.3097  0.0794
   86MOL   C24725917   2.342   4.659   2.658  0.1954  0.8398  0.8404
   86MOL   C24825918   2.658   4.943   2.246 -0.6331 -0.6358 -0.6223
   86MOL   H24925919   2.657   4.741   2.294 -1.3952  0.4544 -0.1426
   86MOL   H25025920   2.535   4.734   2.708 -0.1494 -0.8574  0.1312
   86MOL   H25125921   2.430   4.856   2.670 -1.3173 -0.9690  0.9878
   86MOL   H25225922   2.372   4.556   2.640 -3.0979  0.2803 -1.9551
   86MOL   H25325923   2.296   4.670   2.756  0.7393 -0.4045  1.2484
   86MOL   H25425924   2.266   4.677   2.582  0.7895 -2.7371 -0.6950
   86MOL   H25525925   2.681   5.043   2.285 -1.9065 -0.4415 -0.3716
   86MOL   H25625926   2.726   4.918   2.165 -1.6723 -0.3291 -1.5952
   86MOL   C25725927   2.521   4.962   2.190  0.0940  0.0265 -0.7069
   86MOL   O25825928   2.520   5.053   2.088  0.3610 -0.2545  0.0746
   86MOL   C25925929   2.451   5.167   2.105 -0.2415  0.1561 -0.3528
   86MOL   O26025930   2.402   5.210   2.216 -0.6616  0.1719  0.6107
   86MOL   C26125931   2.465   5.263   1.985 -0.3586  0.5231  0.2573
   86MOL   C26225932   2.483   5.412   2.021  0.6394 -0.2628  0.2230
   86MOL   C26325933   2.445   4.851   2.119  0.2942  0.1769 -0.2702
   86MOL   H26425934   2.465   4.995   2.278 -0.0984 -3.2672  0.5028
   86MOL   H26525935   2.548   5.230   1.922 -1.0545 -0.5021 -0.1339
   86MOL   H26625936   2.374   5.254   1.926  0.7422  2.7931 -1.8448
   86MOL   H26725937   2.561   5.457   1.960 -1.5112  2.9710 -0.2341
   86MOL   H26825938   2.384   5.455   2.007 -0.0393 -1.0362  2.3968
   86MOL   H26925939   2.509   5.439   2.124  0.9362  0.0910  0.0520
   86MOL   H27025940   2.441   4.765   2.187  1.4567 -0.0125 -0.4255
   86MOL   H27125941   2.340   4.878   2.105  0.2530  0.3358  0.3058
   86MOL   C27225942   2.508   4.797   1.988 -0.7573  0.1336  0.1152
   86MOL   O27325943   2.629   4.732   2.030  0.3545 -0.1009  0.4923
   86MOL   C27425944   2.734   4.743   1.954  0.3279  0.2519  0.4438
   86MOL   O27525945   2.736   4.806   1.849  0.0438  0.5658  0.1020
   86MOL   C27625946   2.862   4.673   2.007  0.1385 -0.1515  0.1873
   86MOL   C27725947   2.991   4.728   1.944  0.4630 -0.1741  0.3318
   86MOL   C27825948   2.416   4.702   1.910  0.0800  0.0663 -0.5357
   86MOL   H27925949   2.532   4.870   1.911 -1.3880  0.3878  0.1539
   86MOL   H28025950   2.868   4.678   2.115 -0.6368  0.3454  0.2184
   86MOL   H28125951   2.847   4.568   1.985  1.8265 -0.8297  2.1673
   86MOL   H28225952   3.083   4.681   1.981  1.9017  3.1976  1.1914
   86MOL   H28325953   2.996   4.731   1.835 -2.4327 -0.3143  0.1626
   86MOL   H28425954   3.004   4.832   1.971  1.5957 -0.6788  1.8211
   86MOL   H28525955   2.465   4.643   1.833 -0.7976  0.0615 -1.1058
   86MOL   H28625956   2.376   4.626   1.978 -1.4357  1.2303 -0.1084
   86MOL   C28725957   2.297   4.773   1.844  0.4533 -0.3695  0.3136
   86MOL   O28825958   2.344   4.835   1.726 -0.2766 -0.1008  0.5935
   86MOL   C28925959   2.351   4.968   1.715  0.7367 -0.4592  0.1049
   86MOL   O29025960   2.322   5.048   1.800  0.4874 -0.3326 -0.2324
   86MOL   C29125961   2.422   5.005   1.585 -0.2286 -0.4495  0.4737
   86MOL   C29225962   2.350   4.932   1.457  0.5149 -0.0097  0.7050
   86MOL   C29325963   2.188   4.688   1.787  0.5576  0.2912 -0.2171
   86MOL   H29425964   2.251   4.838   1.919 -1.1921  0.3399 -1.2800
   86MOL   H29525965   2.454   5.108   1.571  2.2074 -1.2956 -0.3600
   86MOL   H29625966   2.521   4.964   1.600 -0.3792 -1.0579 -0.1588
   86MOL   H29725967   2.347   4.824   1.471 -1.5270 -0.1740 -0.7999
   86MOL   H29825968   2.247   4.956   1.433  0.6097 -0.0657  0.2413
   86MOL   H29925969   2.414   4.939   1.369 -2.2213 -0.6843 -1.4217
   86MOL   H30025970   2.155   4.638   1.878  0.6744 -0.0074 -0.3387
   86MOL   H30125971   2.114   4.752   1.739 -2.1585 -0.1373  3.1735
   86MOL   H30225972   2.218   4.610   1.718 -0.1738 -0.0655 -0.1299
   87MOL     C125973   1.277   2.128   4.093  0.5134 -0.2402  0.0215
   87MOL     O225974   1.171   2.153   4.190 -0.3891  0.2899  0.1403
   87MOL     C325975   1.186   2.135   4.325  0.4786  0.3208  0.2460
   87MOL     O425976   1.296   2.106   4.379  0.0537 -0.0749  0.1537
   87MOL     C525977   1.056   2.156   4.402  0.7214  0.0316 -0.0801
   87MOL     C625978   0.958   2.039   4.377 -0.5825 -0.4147  0.4684
   87MOL     C725979   1.373   2.248   4.089 -0.4422  0.2673 -0.8321
   87MOL     H825980   1.236   2.112   3.993  0.7300 -1.2096  0.0864
   87MOL     H925981   1.086   2.176   4.505 -1.9833  1.8667  0.4004
   87MOL    H1025982   1.013   2.250   4.366 -1.3275 -0.9842 -0.3910
   87MOL    H1125983   0.906   2.060   4.284 -0.8527  3.3409  1.4048
   87MOL    H1225984   1.010   1.943   4.380  0.6573  0.2807  2.8411
   87MOL    H1325985   0.891   2.043   4.463 -1.5805  0.8867 -0.3467
   87MOL    H1425986   1.314   2.332   4.124 -0.6893  0.2636 -1.2275
   87MOL    H1525987   1.450   2.243   4.166 -0.0720  1.4075 -1.1167
   87MOL    H1625988   1.331   2.035   4.106  1.3578  0.1480 -0.7107
   87MOL    C1725989   1.439   2.275   3.956 -0.2911 -0.4154 -0.0384
   87MOL    O1825990   1.353   2.341   3.863 -0.0159 -0.0060  1.0594
   87MOL    C1925991   1.307   2.281   3.749  0.1947  0.0650 -0.4215
   87MOL    O2025992   1.337   2.169   3.713 -0.5344 -0.6691  0.1207
   87MOL    C2125993   1.220   2.375   3.666  0.1149 -0.6671 -0.4189
   87MOL    C2225994   1.068   2.346   3.673 -0.3233 -0.0519  0.0134
   87MOL    C2325995   1.561   2.360   3.964 -0.3637  0.9972 -0.4060
   87MOL    H2425996   1.465   2.178   3.914  0.9314  0.6749 -1.9091
   87MOL    H2525997   1.227   2.476   3.706 -0.9405 -0.8452  0.2305
   87MOL    H2625998   1.246   2.367   3.560  0.0847  1.3336 -0.5891
   87MOL    H2725999   1.045   2.243   3.649 -1.0685 -0.0285  0.6289
   87MOL    H2826000   1.038   2.364   3.776 -1.7263  0.0571 -0.4048
   87MOL    H2926001   1.006   2.411   3.611  0.4041  0.4544 -0.1997
   87MOL    H3026002   1.524   2.456   4.000  0.5701  0.3685  2.4325
   87MOL    H3126003   1.613   2.325   4.053 -2.0076  2.0021  0.9829
   87MOL    C3226004   1.663   2.370   3.857 -0.0157  0.4458  0.6265
   87MOL    O3326005   1.777   2.416   3.935  0.7946  0.1042 -0.1619
   87MOL    C3426006   1.839   2.535   3.916  0.1618  0.1729 -1.1666
   87MOL    O3526007   1.801   2.624   3.841 -0.8155  0.1055  0.5200
   87MOL    C3626008   1.968   2.546   3.997 -0.3387 -0.3688  0.1430
   87MOL    C3726009   1.952   2.629   4.126  0.0674 -0.0700 -0.5120
   87MOL    C3826010   1.691   2.233   3.783 -0.4148 -0.7898 -0.0600
   87MOL    H3926011   1.633   2.447   3.787 -1.3758  0.7574  1.5392
   87MOL    H4026012   1.993   2.445   4.027 -1.5833 -1.9138 -3.7474
   87MOL    H4126013   2.054   2.587   3.943 -1.2012  0.7928 -0.3844
   87MOL    H4226014   1.942   2.734   4.099  0.7700 -0.0653 -0.7580
   87MOL    H4326015   1.868   2.597   4.189  0.0855 -3.8305 -2.2931
   87MOL    H4426016   2.034   2.611   4.195  0.3568  0.3487 -0.7448
   87MOL    H4526017   1.739   2.151   3.836  3.6741  0.8174 -1.0373
   87MOL    H4626018   1.593   2.200   3.748  0.0437 -1.3948 -0.7930
   87MOL    C4726019   1.776   2.263   3.655 -0.2230  0.4075  0.5596
   87MOL    O4826020   1.912   2.301   3.695  0.2561 -0.1491  0.7333
   87MOL    C4926021   1.988   2.383   3.610  0.1942  0.4544 -0.0604
   87MOL    O5026022   1.950   2.441   3.512 -0.7573  0.5609  0.1182
   87MOL    C5126023   2.129   2.390   3.657  0.4073 -0.2017 -0.0180
   87MOL    C5226024   2.232   2.380   3.545  0.3907  1.0907 -0.1709
   87MOL    C5326025   1.796   2.130   3.577 -0.1568 -0.3588 -0.5412
   87MOL    H5426026   1.724   2.341   3.600  0.2019  0.4432  0.2072
   87MOL    H5526027   2.135   2.483   3.714  1.2252  0.0800 -0.5689
   87MOL    H5626028   2.144   2.313   3.733 -2.7596 -0.5038  0.3924
   87MOL    H5726029   2.227   2.286   3.491 -0.8400  1.9722 -1.6236
   87MOL    H5826030   2.215   2.448   3.462 -0.4548 -1.5878 -2.2783
   87MOL    H5926031   2.335   2.388   3.578  0.0433  0.7143  1.0604
   87MOL    H6026032   1.882   2.135   3.510 -0.6545  1.2343 -1.0864
   87MOL    H6126033   1.816   2.053   3.652 -2.0012 -1.0330 -0.7081
   87MOL    C6226034   1.669   2.088   3.491  0.5846 -0.3996  0.0027
   87MOL    O6326035   1.666   2.180   3.381  0.3392  0.0242  0.1794
   87MOL    C6426036   1.549   2.239   3.347  0.1898 -0.6422  1.1578
   87MOL    O6526037   1.434   2.199   3.379 -0.4929 -0.2313  0.2693
   87MOL    C6626038   1.568   2.354   3.247 -0.0104  0.8964 -0.0579
   87MOL    C6726039   1.611   2.483   3.313  0.0341 -0.7124 -0.0675
   87MOL    C6826040   1.695   1.948   3.439  0.2839 -0.3887 -0.0381
   87MOL    H6926041   1.579   2.086   3.552  1.4594  0.3618  1.3621
   87MOL    H7026042   1.646   2.328   3.175 -0.9170 -0.1870 -0.6769
   87MOL    H7126043   1.474   2.362   3.192  0.2642  3.0743 -0.2446
   87MOL    H7226044   1.709   2.470   3.359  0.6773 -0.2883 -1.2970
   87MOL    H7326045   1.598   2.576   3.257  1.1744  0.7610  2.0385
   87MOL    H7426046   1.544   2.484   3.399 -1.4323 -0.2940 -1.2011
   87MOL    H7526047   1.776   1.959   3.367  0.1761  1.3422  0.0795
   87MOL    H7626048   1.731   1.879   3.515  1.0517  0.3555  0.2784
   87MOL    C7726049   1.560   1.891   3.385  0.5358 -0.3836  0.4779
   87MOL    O7826050   1.573   1.777   3.303  0.0208 -0.3412  0.1372
   87MOL    C7926051   1.601   1.803   3.172 -0.1100  0.2938  0.1639
   87MOL    O8026052   1.597   1.913   3.117  0.7975  0.2020  0.3614
   87MOL    C8126053   1.641   1.684   3.096  0.4428 -0.2417 -0.8197
   87MOL    C8226054   1.673   1.713   2.953  0.0773  0.3554  0.2447
   87MOL    C8326055   1.477   1.838   3.497 -0.0141 -0.4347 -0.3489
   87MOL    H8426056   1.499   1.969   3.339 -2.0435 -1.5665  1.7541
   87MOL    H8526057   1.729   1.648   3.150 -1.5562  0.1683  2.9223
   87MOL    H8626058   1.561   1.613   3.117  0.0378  0.6895  0.9041
   87MOL    H8726059   1.765   1.771   2.946  0.0471  0.3936  0.1608
   87MOL    H8826060   1.685   1.616   2.905  0.0196  0.7133 -0.5101
   87MOL    H8926061   1.591   1.766   2.904 -1.8704 -2.7196  0.0376
   87MOL    H9026062   1.530   1.760   3.552  2.8474  2.2883  0.8468
   87MOL    H9126063   1.464   1.914   3.574 -1.1956  0.6507 -1.6052
   87MOL    C9226064   1.329   1.800   3.461 -0.0881 -0.1357 -0.0370
   87MOL    O9326065   1.292   1.748   3.585  0.3579  0.5171 -0.4030
   87MOL    C9426066   1.219   1.635   3.585 -0.7672 -0.9619 -0.2846
   87MOL    O9526067   1.178   1.576   3.489 -0.1607 -0.4961  0.5104
   87MOL    C9626068   1.188   1.579   3.727 -0.1205 -0.0294  0.1509
   87MOL    C9726069   1.286   1.463   3.760  0.0032 -0.1593 -0.6980
   87MOL    C9826070   1.227   1.915   3.439 -0.6642 -0.1199  0.0240
   87MOL    H9926071   1.322   1.723   3.385  1.1729 -0.1321 -0.1651
   87MOL   H10026072   1.177   1.665   3.792  0.6950 -0.9262  1.5027
   87MOL   H10126073   1.090   1.531   3.726 -0.4266  0.4447  3.6791
   87MOL   H10226074   1.379   1.488   3.811  0.4085 -0.5822 -1.2176
   87MOL   H10326075   1.237   1.396   3.830 -0.5208 -2.1105 -2.8624
   87MOL   H10426076   1.302   1.395   3.676  0.0155  0.0807 -0.8918
   87MOL   H10526077   1.133   1.880   3.481 -0.6195  0.4538  0.6079
   87MOL   H10626078   1.260   2.008   3.486  1.2798  0.4122 -2.2706
   87MOL   C10726079   1.205   1.927   3.286 -1.1402  0.1061 -0.3813
   87MOL   O10826080   1.130   1.818   3.244 -0.5294  0.2857  0.1713
   87MOL   C10926081   1.175   1.733   3.157  0.7327  1.0160  0.1411
   87MOL   O11026082   1.294   1.735   3.117 -0.2649  0.4206 -0.0873
   87MOL   C11126083   1.076   1.637   3.092  0.2759  0.0653  1.0523
   87MOL   C11226084   0.988   1.706   2.978 -0.2076  0.2123  0.6850
   87MOL   C11326085   1.118   2.046   3.245 -0.2137  0.1545 -0.5001
   87MOL   H11426086   1.302   1.933   3.236 -1.3692 -0.7701 -0.9315
   87MOL   H11526087   1.136   1.552   3.060  2.5305  1.7780  0.6556
   87MOL   H11626088   1.008   1.598   3.168 -0.7667 -0.0204  0.0849
   87MOL   H11726089   0.956   1.630   2.907  0.9241  1.5571 -1.3373
   87MOL   H11826090   0.897   1.754   3.014  0.1545 -0.1886  2.1768
   87MOL   H11926091   1.040   1.784   2.922 -0.6010  0.0716  0.1163
   87MOL   H12026092   1.022   2.027   3.293  0.7630  1.0050  1.8372
   87MOL   H12126093   1.158   2.135   3.293 -2.0242  1.8469 -1.9783
   87MOL   C12226094   1.095   2.066   3.092  0.2312 -0.5822  0.0316
   87MOL   O12326095   0.983   2.155   3.076  0.5344 -0.0739  0.1279
   87MOL   C12426096   0.855   2.103   3.073 -0.9963 -0.0231 -0.0743
   87MOL   O12526097   0.820   1.992   3.118  0.0052 -0.9271  0.8776
   87MOL   C12626098   0.758   2.204   3.015  0.6582 -0.6150  0.3532
   87MOL   C12726099   0.667   2.253   3.127  0.3444 -0.1211  0.1146
   87MOL   C12826100   1.225   2.128   3.032  0.2914 -0.6064  1.2802
   87MOL   H12926101   1.078   1.964   3.057 -0.7440 -1.0578  1.8651
   87MOL   H13026102   0.812   2.278   2.957 -0.2228 -1.0637 -1.0505
   87MOL   H13126103   0.709   2.132   2.950  0.1924 -0.3658  0.4251
   87MOL   H13226104   0.693   2.349   3.171  1.1744 -0.3429  0.1205
   87MOL   H13326105   0.577   2.282   3.072  0.8544  2.2824  0.4993
   87MOL   H13426106   0.641   2.183   3.206 -0.6895  0.7509  0.5557
   87MOL   H13526107   1.222   2.237   3.045  0.5097 -0.6270  1.5226
   87MOL   H13626108   1.308   2.083   3.087  1.0631 -0.2201  0.4358
   87MOL   C13726109   1.259   2.109   2.875 -0.2112  0.3369 -1.6172
   87MOL   O13826110   1.257   1.969   2.849 -0.3155 -0.1211 -0.0579
   87MOL   C13926111   1.355   1.905   2.780  0.2046  0.2904  0.8136
   87MOL   O14026112   1.444   1.966   2.720  0.0590  0.7495 -0.3372
   87MOL   C14126113   1.341   1.750   2.773 -0.0126 -0.5006  0.5880
   87MOL   C14226114   1.284   1.701   2.644  0.5093 -0.2762 -0.1548
   87MOL   C14326115   1.150   2.182   2.798 -0.4008  0.2048  0.3914
   87MOL   H14426116   1.355   2.157   2.856 -1.2070  2.9649 -0.3663
   87MOL   H14526117   1.435   1.695   2.770 -0.0024 -0.4679  0.2746
   87MOL   H14626118   1.285   1.701   2.852 -1.2096  1.2080  0.8264
   87MOL   H14726119   1.219   1.614   2.650 -0.8975  0.8867  2.5096
   87MOL   H14826120   1.216   1.772   2.597 -1.1222 -1.6095  0.1520
   87MOL   H14926121   1.358   1.671   2.570  1.0489  1.5024 -0.3801
   87MOL   H15026122   1.113   2.130   2.710  0.3192 -1.5192  1.0877
   87MOL   H15126123   1.069   2.202   2.867 -0.3317  0.0514  0.5174
   87MOL   C15226124   1.207   2.313   2.738 -0.1129 -0.2294 -0.1884
   87MOL   O15326125   1.299   2.277   2.635 -0.1344  0.5047  0.4121
   87MOL   C15426126   1.433   2.314   2.642  0.3146 -0.5535  0.0193
   87MOL   O15526127   1.472   2.386   2.733  0.0006  0.0873 -0.1883
   87MOL   C15626128   1.519   2.265   2.528  0.2259  0.4421  0.0178
   87MOL   C15726129   1.480   2.322   2.393  0.0401 -0.0021  0.0585
   87MOL   C15826130   1.098   2.410   2.702  0.5681 -0.3095 -0.2601
   87MOL   H15926131   1.258   2.350   2.827 -0.7426  1.4762 -0.5238
   87MOL   H16026132   1.621   2.285   2.561 -0.1557 -0.4463  1.7929
   87MOL   H16126133   1.503   2.157   2.528  0.7578  0.3612 -0.4185
   87MOL   H16226134   1.482   2.430   2.399 -1.3845 -0.0703  2.2919
   87MOL   H16326135   1.548   2.301   2.311 -0.7723  0.3720 -0.7235
   87MOL   H16426136   1.380   2.281   2.375  0.4219 -0.5584 -0.8571
   87MOL   H16526137   1.045   2.365   2.618 -1.3208 -1.6064  1.5903
   87MOL   H16626138   1.024   2.407   2.782  1.0645  0.7153  0.2444
   87MOL   C16726139   1.124   2.559   2.680  0.1366 -0.1878 -0.6145
   87MOL   O16826140   1.186   2.609   2.797  0.1046 -0.1201  0.0979
   87MOL   C16926141   1.109   2.654   2.905 -0.5823  0.5868 -0.2625
   87MOL   O17026142   0.985   2.646   2.926 -0.2002  0.0021  0.4687
   87MOL   C17126143   1.195   2.736   3.004 -0.0684 -0.3458  0.4938
   87MOL   C17226144   1.332   2.669   3.024 -1.0799 -0.0213 -0.3023
   87MOL   C17326145   1.206   2.605   2.561 -0.7940 -0.8629 -0.7895
   87MOL   H17426146   1.028   2.609   2.668  0.1205  0.7493  2.9731
   87MOL   H17526147   1.199   2.839   2.970 -3.5000 -0.2642  0.1307
   87MOL   H17626148   1.138   2.723   3.097 -1.7401  0.6489 -0.3636
   87MOL   H17726149   1.324   2.565   3.053  3.7034 -0.3794  0.1290
   87MOL   H17826150   1.393   2.681   2.934 -0.6553  3.1625  0.3482
   87MOL   H17926151   1.384   2.730   3.098 -2.6632  1.2009 -0.1626
   87MOL   H18026152   1.293   2.656   2.603 -0.5752 -0.9133 -1.1794
   87MOL   H18126153   1.253   2.517   2.517  0.5474 -0.9829  0.8428
   87MOL   C18226154   1.140   2.712   2.471  0.0668 -0.2518 -0.3771
   87MOL   O18326155   1.122   2.833   2.543 -0.3825 -0.1700 -0.6827
   87MOL   C18426156   0.988   2.873   2.556 -0.4305 -0.1991 -0.6131
   87MOL   O18526157   0.880   2.822   2.542 -0.2311  0.2358 -0.3270
   87MOL   C18626158   0.994   3.009   2.622  0.4532  0.4216  0.8578
   87MOL   C18726159   1.043   3.010   2.772  0.2215 -0.8634  0.0914
   87MOL   C18826160   1.229   2.737   2.349  0.2999 -1.2100 -0.1440
   87MOL   H18926161   1.050   2.666   2.430 -0.0601 -0.5830  0.2605
   87MOL   H19026162   1.056   3.070   2.557 -0.2571 -0.7377 -0.9517
   87MOL   H19126163   0.892   3.042   2.604  0.2725 -0.0715  0.9693
   87MOL   H19226164   0.966   2.995   2.847 -0.8684  0.5882 -0.7047
   87MOL   H19326165   1.131   2.950   2.796 -1.4062 -3.0607  0.7456
   87MOL   H19426166   1.059   3.117   2.787 -3.0032 -0.4828  1.0326
   87MOL   H19526167   1.268   2.646   2.304  3.4604  0.3167 -0.6904
   87MOL   H19626168   1.160   2.788   2.282  1.9640 -1.3512 -2.0399
   87MOL   C19726169   1.357   2.822   2.374 -0.9925  0.2557  0.5516
   87MOL   O19826170   1.448   2.745   2.444  0.1232  0.2327  0.0037
   87MOL   C19926171   1.511   2.789   2.549 -0.3575  0.4479  0.0877
   87MOL   O20026172   1.503   2.901   2.594  0.3513  0.5481  0.2694
   87MOL   C20126173   1.610   2.684   2.610  0.4131  0.7346  0.0238
   87MOL   C20226174   1.698   2.623   2.503 -0.4928  0.1468  0.2377
   87MOL   C20326175   1.422   2.874   2.242 -0.4570 -0.1277 -0.3650
   87MOL   H20426176   1.317   2.906   2.431 -1.5501  0.4478 -0.1314
   87MOL   H20526177   1.666   2.728   2.692  3.7715 -1.8954 -0.7509
   87MOL   H20626178   1.560   2.606   2.666  1.2549 -0.3279 -0.6706
   87MOL   H20726179   1.731   2.524   2.533 -1.2001 -0.1986 -0.1011
   87MOL   H20826180   1.632   2.616   2.416 -0.0802 -1.9606  0.0692
   87MOL   H20926181   1.791   2.675   2.477 -0.0169 -1.0649 -0.5366
   87MOL   H21026182   1.506   2.927   2.288 -1.4538  3.4741 -2.4499
   87MOL   H21126183   1.468   2.792   2.187 -1.2306  1.2512 -3.1500
   87MOL   C21226184   1.334   2.958   2.155  0.1491  0.1628 -0.2230
   87MOL   O21326185   1.320   3.080   2.219 -0.1336  0.5995  0.1964
   87MOL   C21426186   1.205   3.123   2.271 -0.4286 -0.4648  0.0361
   87MOL   O21526187   1.105   3.050   2.279 -0.2186  0.3768 -0.0257
   87MOL   C21626188   1.205   3.269   2.327 -0.3069 -1.0386 -0.8954
   87MOL   C21726189   1.263   3.274   2.471 -0.4708  0.4322 -0.3832
   87MOL   C21826190   1.398   2.977   2.016  0.4742  1.1089  0.0394
   87MOL   H21926191   1.233   2.921   2.137  0.6484 -1.4129  0.1231
   87MOL   H22026192   1.266   3.332   2.263  1.0570  0.6263  1.9343
   87MOL   H22126193   1.103   3.306   2.315 -0.9692 -2.4641  0.2931
   87MOL   H22226194   1.198   3.200   2.519 -1.4939  0.9612 -0.9460
   87MOL   H22326195   1.362   3.227   2.473 -1.0524 -0.9386 -2.7440
   87MOL   H22426196   1.253   3.367   2.527 -0.9655  0.1159  0.0587
   87MOL   H22526197   1.331   3.049   1.970 -0.9337 -0.8527 -1.0854
   87MOL   H22626198   1.496   3.023   2.025  2.7677 -3.4426  0.1033
   87MOL   C22726199   1.410   2.854   1.925 -0.5670  0.6808 -0.1158
   87MOL   O22826200   1.292   2.848   1.839  0.4163  0.6850 -0.0883
   87MOL   C22926201   1.174   2.802   1.866  0.3581 -0.6821 -0.2664
   87MOL   O23026202   1.122   2.762   1.974  0.0244 -0.0671  0.5338
   87MOL   C23126203   1.082   2.805   1.744 -0.1444 -0.4575  0.0042
   87MOL   C23226204   1.147   2.756   1.616 -0.1236  0.5922 -0.4070
   87MOL   C23326205   1.533   2.828   1.836  0.1512  0.5897  0.1636
   87MOL   H23426206   1.399   2.764   1.986  2.2132 -0.2406 -0.8841
   87MOL   H23526207   1.002   2.732   1.754  0.7555 -1.3304  0.8036
   87MOL   H23626208   1.036   2.903   1.725  1.2488 -0.1360 -1.9110
   87MOL   H23726209   1.240   2.810   1.600 -0.4832  0.3735 -3.4885
   87MOL   H23826210   1.177   2.652   1.625  0.9475  0.9114 -0.2032
   87MOL   H23926211   1.093   2.754   1.522 -0.3072  1.1961 -0.3158
   87MOL   H24026212   1.526   2.741   1.771 -1.6441  0.8268  0.0139
   87MOL   H24126213   1.541   2.915   1.770 -1.2573  0.3943 -0.2780
   87MOL   C24226214   1.659   2.813   1.926 -0.4272  0.1091 -0.2865
   87MOL   O24326215   1.644   2.698   2.006  0.7539 -0.1406  0.1077
   87MOL   C24426216   1.726   2.665   2.109 -0.2890  0.2236  0.0099
   87MOL   O24526217   1.813   2.728   2.158 -0.4782  0.2901 -0.5044
   87MOL   C24626218   1.702   2.518   2.152  0.0858 -0.6005 -0.2584
   87MOL   C24726219   1.738   2.421   2.031  0.3565 -0.5756  0.0254
   87MOL   C24826220   1.779   2.786   1.833 -0.3824 -0.7438  0.1350
   87MOL   H24926221   1.671   2.904   1.984  0.6623  0.5267 -1.1418
   87MOL   H25026222   1.752   2.499   2.248  2.5111  0.0556 -1.3475
   87MOL   H25126223   1.594   2.506   2.160 -0.0663 -0.2486 -1.6704
   87MOL   H25226224   1.760   2.319   2.063  0.4110 -1.1917 -1.8847
   87MOL   H25326225   1.654   2.414   1.961  0.6033  1.0409 -0.4587
   87MOL   H25426226   1.828   2.455   1.978  0.5561  1.2995  1.5131
   87MOL   H25526227   1.865   2.756   1.893 -0.4533 -3.1277 -0.8802
   87MOL   H25626228   1.754   2.696   1.775 -1.5799 -0.7441  0.6363
   87MOL   C25726229   1.812   2.907   1.743  0.3635 -0.2846 -0.2130
   87MOL   O25826230   1.887   3.009   1.810  0.1751 -0.1335  0.5421
   87MOL   C25926231   1.821   3.130   1.825 -0.1373 -0.2073 -0.2440
   87MOL   O26026232   1.702   3.154   1.798  0.3768 -0.1345  0.2370
   87MOL   C26126233   1.914   3.235   1.896  0.4116  0.1760 -0.0872
   87MOL   C26226234   2.055   3.258   1.826 -0.0579  0.4963  0.3167
   87MOL   C26326235   1.903   2.861   1.625  0.0967  0.2442  0.4286
   87MOL   H26426236   1.730   2.941   1.681  1.4426 -1.8535 -2.5527
   87MOL   H26526237   1.864   3.332   1.892 -1.3892 -0.7251 -0.2719
   87MOL   H26626238   1.914   3.207   2.002 -1.2555 -1.1506 -0.3963
   87MOL   H26726239   2.127   3.327   1.869 -1.4412  1.5782  0.9311
   87MOL   H26826240   2.110   3.164   1.813 -1.2939 -0.2341  0.2700
   87MOL   H26926241   2.035   3.294   1.725 -0.9571 -1.6153 -0.2899
   87MOL   H27026242   1.945   2.947   1.574 -0.7054  0.9887  1.0060
   87MOL   H27126243   1.991   2.811   1.666  1.4408  2.3554  0.1794
   87MOL   C27226244   1.841   2.775   1.516  0.0336  0.9040 -0.8280
   87MOL   O27326245   1.753   2.857   1.444 -0.4735 -0.4438 -0.0069
   87MOL   C27426246   1.620   2.849   1.444  0.3217  0.1392  0.2331
   87MOL   O27526247   1.553   2.766   1.508 -0.0021  0.1873 -0.1183
   87MOL   C27626248   1.559   2.966   1.366  0.2900  0.4843 -0.0025
   87MOL   C27726249   1.413   2.991   1.393 -0.1390  0.2496 -0.8510
   87MOL   C27826250   1.936   2.712   1.409 -0.3369 -0.0076  0.9624
   87MOL   H27926251   1.781   2.695   1.559 -0.7502  0.2041 -3.1513
   87MOL   H28026252   1.616   3.055   1.392  0.7291 -0.4778  2.4579
   87MOL   H28126253   1.586   2.954   1.261 -0.1968 -0.6918 -0.0104
   87MOL   H28226254   1.365   2.893   1.402 -0.9519  0.8268  1.3855
   87MOL   H28326255   1.410   3.050   1.485  0.2326  1.0046 -1.3173
   87MOL   H28426256   1.374   3.038   1.303 -1.5425 -1.7477 -1.3319
   87MOL   H28526257   1.864   2.676   1.336 -0.3696 -0.5394  1.2526
   87MOL   H28626258   1.995   2.794   1.369  1.3071 -0.1764  2.9657
   87MOL   C28726259   2.020   2.587   1.453 -0.7592 -0.1482  0.2171
   87MOL   O28826260   1.923   2.480   1.457 -0.1911  0.2271 -0.5169
   87MOL   C28926261   1.885   2.431   1.580 -0.3566  0.7905 -0.0644
   87MOL   O29026262   1.930   2.471   1.689  0.0765  0.5372  0.5167
   87MOL   C29126263   1.787   2.312   1.573  0.0206 -0.0282 -0.1386
   87MOL   C29226264   1.656   2.336   1.490 -0.3025  0.1072  0.1530
   87MOL   C29326265   2.131   2.538   1.353  0.2598 -0.1691 -0.4608
   87MOL   H29426266   2.067   2.599   1.551  1.1476  1.0694 -0.8111
   87MOL   H29526267   1.843   2.226   1.535  0.2054  1.0135 -2.3156
   87MOL   H29626268   1.759   2.285   1.675 -0.8615  0.0462 -0.3562
   87MOL   H29726269   1.645   2.282   1.396 -1.3817  2.8696 -1.3662
   87MOL   H29826270   1.577   2.292   1.550  0.2841  0.0528  0.8893
   87MOL   H29926271   1.649   2.443   1.470 -0.9569 -0.2164 -1.4335
   87MOL   H30026272   2.082   2.494   1.266  0.6298  1.1610 -1.3619
   87MOL   H30126273   2.199   2.616   1.319  0.0823 -0.4485 -1.4787
   87MOL   H30226274   2.187   2.460   1.405 -0.7194  0.5709  1.7590
   88MOL     C126275   3.952   5.731   1.484 -0.5626 -0.1579  0.3451
   88MOL     O226276   3.875   5.708   1.368  0.3331  0.0328  0.1498
   88MOL     C326277   3.930   5.622   1.275  0.0731 -0.2067  0.5805
   88MOL     O426278   4.044   5.573   1.287 -0.2948 -0.1030  0.1084
   88MOL     C526279   3.844   5.594   1.156  0.5535  0.4646 -0.4969
   88MOL     C626280   3.708   5.531   1.195  0.4302  0.3905 -0.1077
   88MOL     C726281   3.863   5.767   1.599  0.1473 -0.1750 -0.2417
   88MOL     H826282   4.028   5.807   1.469 -0.4423 -0.5337 -1.0251
   88MOL     H926283   3.824   5.695   1.120  1.0039  0.8138  0.2277
   88MOL    H1026284   3.896   5.530   1.085  1.3206  0.4035  0.1133
   88MOL    H1126285   3.636   5.554   1.117 -0.5020 -1.1281  0.2828
   88MOL    H1226286   3.709   5.425   1.219 -1.9207  0.3946  0.0456
   88MOL    H1326287   3.670   5.563   1.292  1.6829 -1.4514  1.0264
   88MOL    H1426288   3.924   5.802   1.683 -0.8437  1.0334 -0.0153
   88MOL    H1526289   3.789   5.842   1.572  0.3392 -0.0864 -0.5224
   88MOL    H1626290   4.002   5.638   1.512 -0.3756  0.1486  1.0576
   88MOL    C1726291   3.785   5.644   1.654  0.4850  0.3205 -0.0467
   88MOL    O1826292   3.891   5.559   1.685 -0.9003  0.4968 -0.5673
   88MOL    C1926293   3.881   5.422   1.672  0.5895  0.8939  0.2279
   88MOL    O2026294   3.777   5.366   1.637  0.2670  0.0544  0.6515
   88MOL    C2126295   3.997   5.337   1.713 -0.1524  1.0454  0.0109
   88MOL    C2226296   4.117   5.347   1.614  0.1230  0.1688  0.5398
   88MOL    C2326297   3.693   5.658   1.766  0.2915  0.2883 -1.0303
   88MOL    H2426298   3.723   5.616   1.568 -0.1288  1.0274  0.1538
   88MOL    H2526299   4.042   5.352   1.812  0.5283 -0.9483  0.0261
   88MOL    H2626300   3.973   5.231   1.713  0.4023  0.8976 -2.2643
   88MOL    H2726301   4.183   5.429   1.643  2.1585 -0.9232 -0.8121
   88MOL    H2826302   4.179   5.257   1.609 -1.2530 -0.7774  0.2024
   88MOL    H2926303   4.070   5.352   1.515 -1.7793 -1.6305  1.3132
   88MOL    H3026304   3.658   5.557   1.789 -1.6260  0.9086 -1.1381
   88MOL    H3126305   3.756   5.684   1.850 -1.3625 -0.8813  0.5998
   88MOL    C3226306   3.565   5.742   1.767  0.2117  0.4086  0.2659
   88MOL    O3326307   3.484   5.716   1.644 -0.7039  0.1447  0.0253
   88MOL    C3426308   3.424   5.597   1.603  0.1098 -0.2252 -0.2592
   88MOL    O3526309   3.443   5.485   1.656  0.6662 -0.5544  0.0544
   88MOL    C3626310   3.320   5.616   1.495 -0.1921 -0.9020 -0.3401
   88MOL    C3726311   3.189   5.554   1.535  0.0658 -0.1942  1.0288
   88MOL    C3826312   3.463   5.728   1.884 -0.0990 -0.3254  0.2528
   88MOL    H3926313   3.596   5.845   1.749  0.2116  0.2754 -0.5156
   88MOL    H4026314   3.306   5.719   1.463  0.1715 -0.4913  0.8010
   88MOL    H4126315   3.346   5.571   1.399 -0.3628 -0.3855 -0.6313
   88MOL    H4226316   3.190   5.445   1.523 -1.4279 -0.0180 -0.9899
   88MOL    H4326317   3.160   5.577   1.638 -0.2477  1.6536  0.5363
   88MOL    H4426318   3.105   5.586   1.473 -0.9607 -1.0726  1.9452
   88MOL    H4526319   3.423   5.627   1.874  0.2916 -0.4473 -0.1194
   88MOL    H4626320   3.513   5.732   1.980 -1.1643 -0.0978  0.8028
   88MOL    C4726321   3.354   5.834   1.875 -0.4964 -0.1716 -0.1728
   88MOL    O4826322   3.232   5.783   1.929 -0.3507 -0.0848  0.1968
   88MOL    C4926323   3.121   5.781   1.854  0.6606  0.0566  0.3991
   88MOL    O5026324   3.114   5.828   1.743 -0.3421 -0.1892 -0.3341
   88MOL    C5126325   2.994   5.738   1.928  0.2788 -0.4694 -0.2561
   88MOL    C5226326   2.996   5.595   1.992  0.2158  0.0489  0.5036
   88MOL    C5326327   3.392   5.966   1.956  0.6259 -0.1102  0.2402
   88MOL    H5426328   3.341   5.867   1.772 -2.9541 -2.8334 -0.7783
   88MOL    H5526329   2.975   5.815   2.003  0.4540  0.0903 -0.7894
   88MOL    H5626330   2.910   5.741   1.859  0.8345  1.7401 -0.8762
   88MOL    H5726331   3.071   5.587   2.071 -0.9625  1.3238  1.7712
   88MOL    H5826332   2.896   5.576   2.031  0.6929 -0.9552  1.2438
   88MOL    H5926333   3.017   5.527   1.909  1.3713  1.3781 -0.3212
   88MOL    H6026334   3.371   5.962   2.063 -1.0361 -1.3413 -0.0978
   88MOL    H6126335   3.497   5.994   1.949 -0.1109  3.1613  1.1682
   88MOL    C6226336   3.315   6.087   1.906 -1.2822 -0.1124 -0.2762
   88MOL    O6326337   3.179   6.086   1.950  0.3845  0.7854 -0.2805
   88MOL    C6426338   3.135   6.118   2.071 -0.7420 -0.2371  0.6881
   88MOL    O6526339   3.213   6.147   2.162  0.1824  0.3097  0.8408
   88MOL    C6626340   2.982   6.104   2.088  0.0262 -0.1067  0.0787
   88MOL    C6726341   2.927   6.242   2.127  0.3470 -0.4213 -0.4780
   88MOL    C6826342   3.381   6.228   1.932  0.2046  0.3441 -0.3625
   88MOL    H6926343   3.307   6.075   1.798  2.9758  1.3893 -0.8688
   88MOL    H7026344   2.944   6.067   1.992  2.0935  0.1657 -0.8719
   88MOL    H7126345   2.957   6.037   2.170 -0.6499 -0.7208 -0.6234
   88MOL    H7226346   2.996   6.295   2.192  1.7194 -2.9007  0.1844
   88MOL    H7326347   2.895   6.311   2.049 -1.3264  0.0477  0.5989
   88MOL    H7426348   2.837   6.223   2.186  0.4618 -0.0520 -0.1913
   88MOL    H7526349   3.308   6.305   1.906 -1.0964 -0.3508  1.1689
   88MOL    H7626350   3.417   6.227   2.035 -2.9400 -0.8895  0.7697
   88MOL    C7726351   3.494   6.266   1.838 -0.6217 -1.3988  1.2226
   88MOL    O7826352   3.448   6.299   1.709  0.6018  0.1086  0.4010
   88MOL    C7926353   3.460   6.220   1.603 -0.0398 -0.4634  0.5012
   88MOL    O8026354   3.491   6.107   1.611 -0.2796 -0.0371 -0.1390
   88MOL    C8126355   3.407   6.278   1.474 -0.9038  0.0681  0.4623
   88MOL    C8226356   3.460   6.421   1.444  0.0529  0.3369  0.7392
   88MOL    C8326357   3.583   6.385   1.874 -0.5475  0.1335 -0.5089
   88MOL    H8426358   3.566   6.186   1.831 -0.3458 -1.3074  2.8629
   88MOL    H8526359   3.455   6.221   1.394  0.2104  0.7622  0.6172
   88MOL    H8626360   3.299   6.281   1.458 -1.0345 -1.9969  0.9043
   88MOL    H8726361   3.395   6.497   1.487  0.9150  1.2264  0.4934
   88MOL    H8826362   3.563   6.433   1.480  1.7848 -1.4494 -3.3484
   88MOL    H8926363   3.447   6.447   1.340  0.1807  2.0058  1.1289
   88MOL    H9026364   3.540   6.477   1.835  0.3403  0.3437 -1.0031
   88MOL    H9126365   3.594   6.403   1.981  1.7066  0.4948 -0.7617
   88MOL    C9226366   3.730   6.362   1.827  0.9785 -0.0049  1.2175
   88MOL    O9326367   3.788   6.489   1.862 -0.4031 -0.2231 -0.1712
   88MOL    C9426368   3.824   6.589   1.770  0.7174  0.4369 -0.1983
   88MOL    O9526369   3.809   6.585   1.649  0.0537  0.1864 -0.7678
   88MOL    C9626370   3.899   6.702   1.832  0.4995 -0.1933 -0.6497
   88MOL    C9726371   4.041   6.727   1.770 -0.0546  0.0636 -0.1555
   88MOL    C9826372   3.807   6.269   1.920 -0.0027  0.6167  0.3009
   88MOL    H9926373   3.737   6.332   1.723 -2.5465 -0.5048  1.0592
   88MOL   H10026374   3.839   6.792   1.818  0.0315 -0.2625  0.8209
   88MOL   H10126375   3.906   6.691   1.940 -0.0666 -1.1532 -0.7066
   88MOL   H10226376   4.112   6.676   1.837 -1.5447 -2.1998 -0.2447
   88MOL   H10326377   4.054   6.682   1.672 -1.2941  0.9696 -0.7487
   88MOL   H10426378   4.072   6.831   1.773 -1.8853  0.6203 -0.4712
   88MOL   H10526379   3.806   6.317   2.018  1.1161 -0.5397  0.8915
   88MOL   H10626380   3.766   6.168   1.927 -0.7323  0.7801 -1.3790
   88MOL   C10726381   3.952   6.229   1.886  0.1896 -0.5844  0.0655
   88MOL   O10826382   4.006   6.314   1.784  0.2824  0.3851  0.2667
   88MOL   C10926383   4.105   6.273   1.708  0.3519  0.3244 -0.3305
   88MOL   O11026384   4.176   6.168   1.720  0.4394 -0.3752 -0.3206
   88MOL   C11126385   4.138   6.377   1.598 -0.2875  0.1633 -0.1123
   88MOL   C11226386   4.276   6.429   1.620 -0.8298  0.8020  0.3794
   88MOL   C11326387   4.045   6.215   2.013 -0.9685 -0.1784 -0.1079
   88MOL   H11426388   3.940   6.133   1.836 -0.7475 -0.2071 -0.4556
   88MOL   H11526389   4.141   6.329   1.500 -2.5477  3.2723 -1.7873
   88MOL   H11626390   4.063   6.456   1.598  0.5131  0.9420 -0.7284
   88MOL   H11726391   4.303   6.506   1.548 -1.0452 -1.0768 -1.7528
   88MOL   H11826392   4.273   6.479   1.717  0.3558  1.0283  0.3138
   88MOL   H11926393   4.358   6.358   1.606  0.2788  1.7545  1.8495
   88MOL   H12026394   4.152   6.216   1.993 -1.2131 -0.6967 -1.5123
   88MOL   H12126395   4.020   6.306   2.067  0.4071  1.1327 -1.6157
   88MOL   C12226396   4.015   6.098   2.103 -0.5529 -0.1328  0.3421
   88MOL   O12326397   4.079   5.983   2.039  0.5069  0.2023  0.1256
   88MOL   C12426398   3.999   5.901   1.965  0.4371 -0.8658 -0.5826
   88MOL   O12526399   3.879   5.918   1.938  0.6403 -0.3387  0.3342
   88MOL   C12626400   4.072   5.775   1.924 -0.5607  0.2778  0.6340
   88MOL   C12726401   4.189   5.801   1.834  0.3571  0.5790  0.3516
   88MOL   C12826402   4.069   6.115   2.249 -0.5737 -0.2414  0.1777
   88MOL   H12926403   3.906   6.089   2.104 -0.7513  2.2189  1.9506
   88MOL   H13026404   4.104   5.711   2.006 -0.7063  0.5868  0.9286
   88MOL   H13126405   4.000   5.712   1.871  0.9383 -2.0628  1.2941
   88MOL   H13226406   4.276   5.809   1.900 -1.2354  0.5993  2.5265
   88MOL   H13326407   4.206   5.718   1.765  0.3383  0.5954  0.3262
   88MOL   H13426408   4.189   5.902   1.794 -0.4084  0.0547 -0.9930
   88MOL   H13526409   4.092   6.014   2.283 -3.3721 -0.7479  0.6915
   88MOL   H13626410   4.167   6.158   2.232 -0.6465  0.3983  1.3201
   88MOL   C13726411   3.983   6.190   2.347 -0.4308 -0.3635  0.2951
   88MOL   O13826412   3.866   6.113   2.350  0.0096  0.9333 -0.0666
   88MOL   C13926413   3.745   6.152   2.322 -0.0380  0.2820 -0.4675
   88MOL   O14026414   3.719   6.258   2.271 -0.2946  0.2162 -0.0283
   88MOL   C14126415   3.648   6.043   2.347 -0.0023 -0.1767  0.8386
   88MOL   C14226416   3.687   5.918   2.265 -0.3947  0.2339  0.2210
   88MOL   C14326417   4.040   6.219   2.488 -0.2609 -0.1470  0.2565
   88MOL   H14426418   3.958   6.280   2.290 -0.1276 -1.7070 -1.9901
   88MOL   H14526419   3.632   6.032   2.455  1.1185  2.2982  1.2919
   88MOL   H14626420   3.551   6.081   2.314  0.8533 -0.8318 -2.6318
   88MOL   H14726421   3.781   5.884   2.308 -0.6577 -0.6945  0.0727
   88MOL   H14826422   3.636   5.821   2.265  0.3581 -0.1743 -1.2863
   88MOL   H14926423   3.710   5.937   2.161  0.6901 -0.5374  0.3046
   88MOL   H15026424   4.038   6.128   2.547 -0.3197  0.0433  0.5457
   88MOL   H15126425   4.144   6.246   2.475  0.1575  0.3802  4.2700
   88MOL   C15226426   3.965   6.345   2.560 -0.6414 -0.3340  0.0620
   88MOL   O15326427   3.959   6.305   2.695 -0.1222 -0.4847  0.0189
   88MOL   C15426428   3.851   6.230   2.742 -0.1138 -1.0859  0.5958
   88MOL   O15526429   3.778   6.169   2.666  0.1014 -0.7862 -0.1978
   88MOL   C15626430   3.860   6.198   2.888  0.2720 -0.7654 -0.9172
   88MOL   C15726431   3.919   6.314   2.976  0.2378 -0.5449  0.0386
   88MOL   C15826432   4.038   6.479   2.553 -0.0971 -0.0901 -0.0560
   88MOL   H15926433   3.865   6.342   2.517 -1.1211  0.1035  1.1539
   88MOL   H16026434   3.762   6.174   2.927  0.7962  0.6730  1.3706
   88MOL   H16126435   3.926   6.115   2.913  0.3924  0.0213  1.5042
   88MOL   H16226436   3.861   6.404   2.956 -0.8646 -1.7595 -2.4431
   88MOL   H16326437   3.898   6.310   3.083  3.0213 -0.7589  0.6077
   88MOL   H16426438   4.026   6.325   2.960 -0.0370  2.4856 -0.0153
   88MOL   H16526439   4.118   6.490   2.625 -0.8518 -2.1579  1.1354
   88MOL   H16626440   4.077   6.483   2.451 -1.6281 -0.9223 -0.6996
   88MOL   C16726441   3.953   6.609   2.563  0.7188 -0.7121 -0.0267
   88MOL   O16826442   3.838   6.590   2.488  0.0469 -0.8558  0.5287
   88MOL   C16926443   3.840   6.606   2.353 -0.2837 -0.0459 -0.2387
   88MOL   O17026444   3.942   6.625   2.283 -0.0719 -0.4072  0.2319
   88MOL   C17126445   3.700   6.603   2.292 -0.6092  0.7788  0.5448
   88MOL   C17226446   3.617   6.702   2.367  0.2426  0.0591  0.1662
   88MOL   C17326447   3.902   6.625   2.704 -0.6833  0.1795  0.4201
   88MOL   H17426448   4.000   6.703   2.535 -0.9194  0.5324  1.3206
   88MOL   H17526449   3.711   6.633   2.187 -0.8422 -1.1616 -0.0606
   88MOL   H17626450   3.658   6.502   2.295  3.6246 -1.1168 -0.2862
   88MOL   H17726451   3.534   6.733   2.304 -0.2816 -2.3610 -0.4072
   88MOL   H17826452   3.571   6.651   2.452  0.0394  0.2818  0.1866
   88MOL   H17926453   3.671   6.791   2.398  0.6464  0.1135 -0.6712
   88MOL   H18026454   3.826   6.547   2.710  0.7185 -1.4425 -1.9406
   88MOL   H18126455   3.988   6.597   2.766 -1.5528 -1.8657  0.7575
   88MOL   C18226456   3.853   6.759   2.754  0.8701 -0.1090 -0.5562
   88MOL   O18326457   3.780   6.729   2.879  0.3327  0.3277 -0.5345
   88MOL   C18426458   3.650   6.743   2.883 -0.4987 -0.0921  0.6924
   88MOL   O18526459   3.585   6.805   2.801  0.2872 -0.3704  0.1577
   88MOL   C18626460   3.585   6.691   3.015  0.5933 -0.0245 -0.5697
   88MOL   C18726461   3.563   6.538   3.006 -0.1179  0.1591 -0.5996
   88MOL   C18826462   3.962   6.868   2.768  0.6157 -0.3683  0.0906
   88MOL   H18926463   3.784   6.793   2.676 -0.5178 -0.3270  0.5589
   88MOL   H19026464   3.643   6.713   3.105  0.6778  0.0664 -0.6461
   88MOL   H19126465   3.487   6.734   3.035  0.8881 -0.6866  2.5309
   88MOL   H19226466   3.490   6.524   2.927 -0.8434  0.2853  0.0385
   88MOL   H19326467   3.656   6.485   2.990  0.2024  0.8721 -1.1283
   88MOL   H19426468   3.517   6.494   3.095 -2.3002  2.3527 -0.5647
   88MOL   H19526469   3.964   6.914   2.867  1.9502  0.6635 -0.4077
   88MOL   H19626470   4.060   6.826   2.747  1.7356  0.8918  2.6149
   88MOL   C19726471   3.952   6.991   2.675 -0.0611 -0.0570  0.1064
   88MOL   O19826472   3.971   6.936   2.541  0.2571  0.6567  0.4027
   88MOL   C19926473   4.045   7.005   2.465 -0.1875 -0.4322  0.3471
   88MOL   O20026474   4.116   7.100   2.489 -0.0799 -0.3978  0.0111
   88MOL   C20126475   4.034   6.949   2.322  0.2039  0.4041  0.1008
   88MOL   C20226476   3.899   6.971   2.252 -0.1065 -0.2599  0.3142
   88MOL   C20326477   3.829   7.085   2.682 -0.3802  0.2343  0.4889
   88MOL   H20426478   4.036   7.056   2.699 -1.3664  1.3663  0.9134
   88MOL   H20526479   4.119   6.982   2.263  0.1655  1.3884  0.5919
   88MOL   H20626480   4.031   6.841   2.336 -0.1361  0.2614 -1.0602
   88MOL   H20726481   3.822   6.904   2.290 -0.1892 -0.3594 -0.0302
   88MOL   H20826482   3.857   7.070   2.275  2.6973  0.5254  2.3865
   88MOL   H20926483   3.911   6.960   2.145  0.5922  1.7971  0.1587
   88MOL   H21026484   3.854   7.179   2.634 -0.6447  0.4509  0.7705
   88MOL   H21126485   3.759   7.049   2.607 -0.7949  0.5275  0.7306
   88MOL   C21226486   3.755   7.107   2.813 -0.6658 -0.0109 -0.5163
   88MOL   O21326487   3.836   7.142   2.919 -0.2946 -0.2071  0.2666
   88MOL   C21426488   3.846   7.083   3.038 -0.6711 -0.3855  0.8637
   88MOL   O21526489   3.766   6.998   3.075 -0.0599  0.2976  0.0481
   88MOL   C21626490   3.961   7.132   3.122  0.2370 -0.2156 -1.0031
   88MOL   C21726491   4.006   7.021   3.215 -0.0358 -0.8260 -0.8228
   88MOL   C21826492   3.641   7.205   2.805 -0.3172  0.0963 -0.5015
   88MOL   H21926493   3.711   7.010   2.834  2.1031 -1.5986 -1.8154
   88MOL   H22026494   4.047   7.150   3.058  0.1707 -0.3710 -1.1358
   88MOL   H22126495   3.922   7.217   3.178  1.2490  0.3919 -1.2131
   88MOL   H22226496   3.934   6.986   3.289  0.1770  1.5588  0.5650
   88MOL   H22326497   4.042   6.929   3.169 -0.1894 -1.2898 -0.0274
   88MOL   H22426498   4.084   7.053   3.285 -0.3603 -0.8316 -0.4546
   88MOL   H22526499   3.582   7.201   2.896  1.8908  1.0385  1.0005
   88MOL   H22626500   3.684   7.303   2.824 -0.5715 -0.1577  1.4241
   88MOL   C22726501   3.550   7.196   2.674 -0.0562 -0.1858 -0.2287
   88MOL   O22826502   3.455   7.089   2.686  0.4379 -0.2762 -0.4801
   88MOL   C22926503   3.422   7.010   2.583 -0.1990  0.1644 -0.5127
   88MOL   O23026504   3.482   7.017   2.481  0.3306  0.2950  0.2644
   88MOL   C23126505   3.317   6.909   2.609 -0.1434  0.6834  0.1898
   88MOL   C23226506   3.211   6.961   2.705  0.1866 -0.2802  0.8246
   88MOL   C23326507   3.456   7.315   2.657 -0.5514  0.5304 -0.5735
   88MOL   H23426508   3.618   7.192   2.589  1.8921  0.5268  1.2347
   88MOL   H23526509   3.270   6.879   2.515  0.3187 -1.1813  0.5219
   88MOL   H23626510   3.362   6.818   2.650 -1.4311 -0.2130 -0.3338
   88MOL   H23726511   3.125   6.894   2.700  0.3080 -0.5858  2.5228
   88MOL   H23826512   3.257   6.957   2.804  0.5104 -1.5178  0.6314
   88MOL   H23926513   3.181   7.065   2.694  4.7142  1.0362 -0.0066
   88MOL   H24026514   3.397   7.296   2.567  0.8890 -1.7878 -1.0562
   88MOL   H24126515   3.375   7.329   2.728 -0.4521  2.3593 -0.7850
   88MOL   C24226516   3.518   7.460   2.637 -0.6239 -0.3912  0.1221
   88MOL   O24326517   3.582   7.472   2.507 -0.1354 -0.0476  0.5904
   88MOL   C24426518   3.720   7.463   2.493 -0.9459 -0.1744 -0.0251
   88MOL   O24526519   3.795   7.417   2.575 -0.5951 -0.1522 -0.1032
   88MOL   C24626520   3.779   7.522   2.360  0.3543 -0.4335 -0.2875
   88MOL   C24726521   3.915   7.450   2.314  0.2650 -0.5045 -0.3007
   88MOL   C24826522   3.415   7.576   2.653 -0.1227 -0.1518  0.0157
   88MOL   H24926523   3.599   7.467   2.710 -0.6660  0.5072  0.0836
   88MOL   H25026524   3.711   7.517   2.275  0.0762 -0.6047 -0.0561
   88MOL   H25126525   3.794   7.628   2.377  1.7974 -0.0223 -3.7259
   88MOL   H25226526   3.954   7.502   2.227  1.0975  2.1187  1.5796
   88MOL   H25326527   3.987   7.453   2.396 -0.6144 -0.8109  0.4796
   88MOL   H25426528   3.899   7.346   2.285 -1.7634 -0.5742  1.0051
   88MOL   H25526529   3.333   7.561   2.583 -0.2969 -0.0184  0.1904
   88MOL   H25626530   3.376   7.568   2.754  0.5514 -0.9103  0.2198
   88MOL   C25726531   3.475   7.719   2.651 -0.5807  0.3422  0.1011
   88MOL   O25826532   3.369   7.816   2.658  0.1389  0.5265  0.6526
   88MOL   C25926533   3.300   7.846   2.541  0.2359  0.0630  0.4737
   88MOL   O26026534   3.322   7.816   2.426 -0.0642  0.0245  1.2694
   88MOL   C26126535   3.188   0.001   2.575  0.2791 -0.6956  0.0843
   88MOL   C26226536   3.238   0.147   2.579 -0.1730  0.0439 -1.1008
   88MOL   C26326537   3.567   7.744   2.768  0.6673  0.8115  0.4955
   88MOL   H26426538   3.525   7.726   2.554  2.3229 -0.4561  1.4611
   88MOL   H26526539   3.095   7.936   2.520 -0.0613 -0.5866  0.6375
   88MOL   H26626540   3.173   7.919   2.680  1.9729 -1.4275  0.1527
   88MOL   H26726541   3.342   0.157   2.612 -0.4198  0.2745 -0.3696
   88MOL   H26826542   3.224   0.196   2.483 -1.4013 -0.5086 -1.2140
   88MOL   H26926543   3.185   0.211   2.649  0.8842  0.6708 -0.8589
   88MOL   H27026544   3.503   7.753   2.855  0.4147  1.2131  0.2699
   88MOL   H27126545   3.636   7.661   2.788  0.5743  1.0032  1.6671
   88MOL   C27226546   3.634   7.884   2.756  0.2459 -0.1998  0.4948
   88MOL   O27326547   3.662   7.934   2.886  0.0685 -0.2028  0.0528
   88MOL   C27426548   3.583   0.084   2.946 -0.0874 -0.0069 -0.5452
   88MOL   O27526549   3.491   0.138   2.885 -0.2174 -0.1536  0.1506
   88MOL   C27626550   3.625   0.120   3.093 -0.5079 -0.4036  0.2199
   88MOL   C27726551   3.768   0.165   3.113 -0.1796  0.0173  0.3679
   88MOL   C27826552   3.764   7.885   2.675 -0.4262 -0.2758  0.4631
   88MOL   H27926553   3.578   0.014   2.700  1.1805  1.8805  2.2804
   88MOL   H28026554   3.584   0.216   3.123 -0.6703  0.2593 -2.0567
   88MOL   H28126555   3.589   0.037   3.155 -2.3316  0.8773  0.9310
   88MOL   H28226556   3.842   0.096   3.072  1.0979  0.4466  1.9197
   88MOL   H28326557   3.792   0.261   3.068 -1.1851  0.5434  0.9237
   88MOL   H28426558   3.795   0.172   3.219  1.8033  1.1140 -0.1872
   88MOL   H28526559   3.856   7.850   2.722  1.0386  0.9285 -1.4098
   88MOL   H28626560   3.750   7.810   2.597  1.6075  1.4495 -1.6286
   88MOL   C28726561   3.803   0.066   2.601 -0.0338  0.3454  0.0989
   88MOL   O28826562   3.711   0.107   2.502  0.1367 -0.4451 -0.0993
   88MOL   C28926563   3.729   0.095   2.366  0.0450 -0.1698  0.0748
   88MOL   O29026564   3.833   0.059   2.308 -0.1178  0.4734  0.4710
   88MOL   C29126565   3.602   0.115   2.293 -0.4384 -0.5644 -0.5366
   88MOL   C29226566   3.532   0.242   2.337  0.4798  0.2666 -1.0601
   88MOL   C29326567   3.817   0.183   2.701 -0.4198 -0.0845  0.3659
   88MOL   H29426568   3.904   0.041   2.568 -1.1638 -4.0379 -0.3427
   88MOL   H29526569   3.638   0.131   2.191 -2.2685  0.5925 -1.0403
   88MOL   H29626570   3.539   0.026   2.297  0.6919 -1.2697  2.3312
   88MOL   H29726571   3.458   0.292   2.275  0.3913  2.0839  0.4501
   88MOL   H29826572   3.482   0.220   2.432  0.5475  1.0988 -0.8230
   88MOL   H29926573   3.601   0.324   2.359  0.7994 -0.2930  0.0631
   88MOL   H30026574   3.860   0.156   2.797  2.1321  0.5519 -0.5575
   88MOL   H30126575   3.866   0.270   2.657  1.2569 -1.8677 -1.3522
   88MOL   H30226576   3.716   0.219   2.723 -0.5979  0.6505 -1.5302
   89MOL     C126577   6.661   2.273   0.587  0.0836  0.2407  0.4551
   89MOL     O226578   6.760   2.372   0.555  0.5248 -0.1992  0.5184
   89MOL     C326579   6.765   2.496   0.608  0.5016 -0.6192  0.3183
   89MOL     O426580   6.685   2.543   0.689  0.0020 -0.3057  0.4315
   89MOL     C526581   6.873   2.577   0.547 -1.6188  0.2877  0.1610
   89MOL     C626582   6.906   2.712   0.608 -0.3365 -0.4764  0.2637
   89MOL     C726583   6.724   2.147   0.653  0.1161  0.4776 -0.4513
   89MOL     H826584   6.630   2.251   0.485 -0.0335 -0.9267  0.7273
   89MOL     H926585   6.959   2.510   0.547 -0.6919  1.4410 -0.0665
   89MOL    H1026586   6.848   2.585   0.441 -1.9945  1.2136  0.3158
   89MOL    H1126587   6.903   2.713   0.717 -0.7904 -0.6986  0.2536
   89MOL    H1226588   7.008   2.739   0.579 -0.0827 -0.4240  1.1840
   89MOL    H1326589   6.824   2.778   0.581 -1.4965 -1.4887  1.2570
   89MOL    H1426590   6.793   2.090   0.590  1.3677 -1.1659  2.3008
   89MOL    H1526591   6.785   2.183   0.736  0.2560 -2.1784  0.6497
   89MOL    H1626592   6.581   2.319   0.645  1.0086  0.9047  1.2314
   89MOL    C1726593   6.623   2.056   0.722 -0.0502  0.4967  0.2946
   89MOL    O1826594   6.541   1.993   0.624  0.2352 -0.5699 -0.1836
   89MOL    C1926595   6.404   1.981   0.641 -0.3050 -0.6892  0.4177
   89MOL    O2026596   6.345   1.988   0.748  0.6412  0.4088  0.2268
   89MOL    C2126597   6.337   1.930   0.514 -0.3960 -0.3891  0.2766
   89MOL    C2226598   6.325   1.782   0.504 -0.3275 -0.0536 -0.3773
   89MOL    C2326599   6.700   1.952   0.808  0.4013  0.2510 -0.4742
   89MOL    H2426600   6.560   2.115   0.788  0.0126  0.6706  0.1973
   89MOL    H2526601   6.243   1.982   0.494 -0.1773 -0.0362  0.1405
   89MOL    H2626602   6.402   1.981   0.443 -2.0839  1.4460 -0.0116
   89MOL    H2726603   6.269   1.733   0.584 -0.2952  0.1296 -0.2423
   89MOL    H2826604   6.282   1.756   0.408  1.5689 -4.2004 -0.2461
   89MOL    H2926605   6.426   1.739   0.506 -0.8230 -1.1929  1.0488
   89MOL    H3026606   6.753   1.877   0.749  0.1325 -0.9032  0.7269
   89MOL    H3126607   6.782   1.997   0.865  0.5453  1.0422 -1.2965
   89MOL    C3226608   6.612   1.873   0.908 -0.1758  0.6674  0.8319
   89MOL    O3326609   6.693   1.771   0.961  0.1732 -0.4637 -0.1004
   89MOL    C3426610   6.679   1.638   0.928 -0.6513 -0.4124  0.3422
   89MOL    O3526611   6.597   1.590   0.854 -0.2998  0.3509 -0.6207
   89MOL    C3626612   6.762   1.536   1.009 -0.8274  0.0724 -0.1763
   89MOL    C3726613   6.698   1.524   1.151 -0.1161  0.2811  0.6465
   89MOL    C3826614   6.566   1.961   1.026  0.4152  0.4989  0.0506
   89MOL    H3926615   6.531   1.823   0.854  0.4027  0.1929  0.3884
   89MOL    H4026616   6.770   1.442   0.954  0.3389  0.8460 -1.3588
   89MOL    H4126617   6.866   1.568   1.023 -1.0076  0.7042 -0.3112
   89MOL    H4226618   6.758   1.467   1.222  0.3173  0.9851  0.8554
   89MOL    H4326619   6.689   1.623   1.196 -1.6206  0.2378  0.4485
   89MOL    H4426620   6.598   1.483   1.143 -0.6856  1.5401  1.2701
   89MOL    H4526621   6.493   2.031   0.986  0.4619  0.5833  0.1125
   89MOL    H4626622   6.520   1.899   1.103  1.8573  0.1660  0.6661
   89MOL    C4726623   6.680   2.042   1.098 -0.1654  0.2100 -0.2689
   89MOL    O4826624   6.706   2.161   1.026  0.2314 -0.1519 -0.2176
   89MOL    C4926625   6.821   2.217   1.040  0.3333  0.5503  0.0534
   89MOL    O5026626   6.925   2.167   1.081 -0.3072 -0.1480  0.5720
   89MOL    C5126627   6.825   2.363   0.994 -0.3843 -0.1928 -0.5537
   89MOL    C5226628   6.957   2.401   0.928  0.1949 -0.1286 -0.7951
   89MOL    C5326629   6.622   2.089   1.238 -0.5623 -0.2337 -0.0696
   89MOL    H5426630   6.763   1.973   1.110 -1.4769 -1.0880  1.7096
   89MOL    H5526631   6.752   2.367   0.913 -1.9203  0.7359  0.8427
   89MOL    H5626632   6.790   2.427   1.075  0.8151 -2.4783  1.8226
   89MOL    H5726633   6.996   2.330   0.855 -0.2547 -1.5348  0.3236
   89MOL    H5826634   6.959   2.498   0.878  2.9313 -1.0545 -2.6077
   89MOL    H5926635   7.026   2.403   1.012 -0.7259  0.4134 -0.0492
   89MOL    H6026636   6.548   2.167   1.221  0.6697  0.8473 -0.6475
   89MOL    H6126637   6.554   2.012   1.276 -2.1081 -0.7286 -3.6628
   89MOL    C6226638   6.724   2.126   1.346  0.5381 -0.5402  0.6870
   89MOL    O6326639   6.657   2.210   1.441 -0.2239  0.0981 -0.5517
   89MOL    C6426640   6.648   2.336   1.412  0.0652  0.3389  0.0907
   89MOL    O6526641   6.692   2.390   1.310  0.0076  0.0617 -0.8669
   89MOL    C6626642   6.577   2.423   1.519 -0.7144 -0.0521  0.4480
   89MOL    C6726643   6.560   2.570   1.487 -0.0310  0.2760  0.0434
   89MOL    C6826644   6.779   2.009   1.438  0.8593 -0.0110  0.5168
   89MOL    H6926645   6.811   2.176   1.304  0.4423 -2.1253 -1.4678
   89MOL    H7026646   6.480   2.379   1.542 -1.0767  0.9430  0.8582
   89MOL    H7126647   6.637   2.406   1.608  1.7129 -1.4049 -1.4036
   89MOL    H7226648   6.550   2.592   1.381  0.3806 -0.3198 -0.1179
   89MOL    H7326649   6.464   2.610   1.520 -1.9221 -4.4890  0.6035
   89MOL    H7426650   6.651   2.617   1.526  0.2410  0.4804 -0.8214
   89MOL    H7526651   6.689   1.978   1.491 -0.4454  2.3840 -0.2493
   89MOL    H7626652   6.819   1.923   1.383 -0.8747 -0.4450 -0.1021
   89MOL    C7726653   6.883   2.059   1.534  0.3190 -0.4182 -0.3598
   89MOL    O7826654   6.929   1.938   1.598 -0.3124 -0.3400  0.6529
   89MOL    C7926655   6.936   1.946   1.724  0.0032 -0.1572  0.5425
   89MOL    O8026656   6.928   2.053   1.786 -0.3416  0.0086  0.7591
   89MOL    C8126657   6.969   1.811   1.794  0.3272  0.0990  0.9815
   89MOL    C8226658   7.109   1.777   1.807 -0.8533 -0.1016 -0.1393
   89MOL    C8326659   7.006   2.129   1.470 -0.2378  0.8292 -0.0147
   89MOL    H8426660   6.840   2.133   1.601  2.3719 -0.7261  1.3559
   89MOL    H8526661   6.922   1.813   1.892 -0.3135 -2.3923  0.7411
   89MOL    H8626662   6.919   1.735   1.735  2.2619 -1.1485  0.9057
   89MOL    H8726663   7.179   1.856   1.837 -1.6449  0.6172 -0.1738
   89MOL    H8826664   7.121   1.698   1.882 -0.0325  0.9783  0.9031
   89MOL    H8926665   7.157   1.736   1.718  0.1768  0.4457  0.1440
   89MOL    H9026666   7.096   2.079   1.508 -0.8683 -1.6080 -1.6174
   89MOL    H9126667   7.005   2.105   1.364 -0.8171  2.3330 -0.3651
   89MOL    C9226668   7.025   2.276   1.494 -0.2414  0.2370  0.3876
   89MOL    O9326669   7.055   2.288   1.630 -0.2169 -0.1957  0.3869
   89MOL    C9426670   7.002   2.383   1.703  0.0817  0.2755 -0.4887
   89MOL    O9526671   6.948   2.483   1.663  0.5631  0.1957  0.5426
   89MOL    C9626672   7.040   2.371   1.852  0.1858  0.2560 -0.7090
   89MOL    C9726673   6.924   2.368   1.950  0.1060 -0.2633 -0.0764
   89MOL    C9826674   7.135   2.339   1.408 -0.3287  0.6532 -0.1608
   89MOL    H9926675   6.932   2.331   1.478  0.7635  1.6207 -0.7883
   89MOL   H10026676   7.104   2.286   1.875  1.0236  0.6336 -1.6222
   89MOL   H10126677   7.103   2.458   1.868  1.1264 -0.4943 -0.2936
   89MOL   H10226678   6.849   2.294   1.922  0.6032 -0.6668 -0.3559
   89MOL   H10326679   6.949   2.351   2.055  0.5949 -0.0440 -0.1559
   89MOL   H10426680   6.867   2.461   1.954  1.2663  0.3739  2.1111
   89MOL   H10526681   7.225   2.301   1.457 -1.6114 -1.8652  0.3520
   89MOL   H10626682   7.132   2.301   1.306 -1.2073 -0.4826  0.2768
   89MOL   C10726683   7.156   2.492   1.409  0.7145  0.2558  0.3376
   89MOL   O10826684   7.266   2.528   1.316  0.5924 -0.6263 -0.3241
   89MOL   C10926685   7.370   2.598   1.366 -0.3375 -0.8453 -0.8722
   89MOL   O11026686   7.381   2.640   1.481  0.0592 -0.5545  0.3669
   89MOL   C11126687   7.459   2.636   1.251  0.0376  0.2300 -0.4243
   89MOL   C11226688   7.484   2.541   1.146 -0.2209  0.3800  0.2743
   89MOL   C11326689   7.025   2.553   1.353 -0.1445 -0.3602  0.3907
   89MOL   H11426690   7.163   2.512   1.516 -1.6717  2.1127  0.2001
   89MOL   H11526691   7.417   2.724   1.204  0.4941  0.0451 -1.1947
   89MOL   H11626692   7.552   2.680   1.289 -0.2331  0.4982 -0.0684
   89MOL   H11726693   7.406   2.536   1.070 -1.6587  1.8918  1.6271
   89MOL   H11826694   7.567   2.574   1.083 -0.9610 -0.6502 -1.2887
   89MOL   H11926695   7.519   2.445   1.184 -1.3932 -0.4862 -0.7918
   89MOL   H12026696   7.007   2.501   1.259  0.4467  2.2700 -1.2279
   89MOL   H12126697   6.939   2.539   1.419  0.0099  1.2578  0.9492
   89MOL   C12226698   7.044   2.707   1.343  0.0161  0.2844  0.1946
   89MOL   O12326699   6.932   2.764   1.278 -0.1520 -0.1876  0.3330
   89MOL   C12426700   6.938   2.828   1.162 -0.0451  0.8338  0.0699
   89MOL   O12526701   7.041   2.866   1.096  0.1494  0.1660  0.4093
   89MOL   C12626702   6.798   2.854   1.109 -0.2585 -0.0156 -0.1293
   89MOL   C12726703   6.718   2.940   1.203 -0.0270 -0.8751 -0.0806
   89MOL   C12826704   7.061   2.775   1.480  0.3495 -0.7784 -0.2435
   89MOL   H12926705   7.128   2.735   1.280  0.9381 -1.3854  0.6575
   89MOL   H13026706   6.814   2.907   1.016 -0.1257 -0.9226 -0.6312
   89MOL   H13126707   6.756   2.756   1.088  0.0706 -0.0970 -0.4083
   89MOL   H13226708   6.769   2.988   1.286 -2.2527 -1.0708  1.4453
   89MOL   H13326709   6.669   3.029   1.164  3.6722  0.5204 -1.7578
   89MOL   H13426710   6.630   2.888   1.242  0.2453  0.8627  2.9693
   89MOL   H13526711   6.970   2.743   1.531  0.4294 -2.0892 -0.8940
   89MOL   H13626712   7.141   2.737   1.543  1.2350 -2.7162 -2.4288
   89MOL   C13726713   7.088   2.930   1.482  0.2332 -0.4367 -0.3848
   89MOL   O13826714   7.065   2.977   1.618 -0.0934 -0.0511 -0.3113
   89MOL   C13926715   6.933   3.014   1.658 -0.1797  0.4959  0.3340
   89MOL   O14026716   6.831   3.003   1.587  0.4176  0.0118  0.1852
   89MOL   C14126717   6.926   3.074   1.799  0.6160 -0.3559  0.6974
   89MOL   C14226718   7.010   3.206   1.820  0.0061 -0.3926 -0.2283
   89MOL   C14326719   7.224   2.968   1.444 -0.3791 -0.0663  0.2745
   89MOL   H14426720   7.019   2.984   1.417  1.6735 -0.1219 -1.6534
   89MOL   H14526721   6.828   3.114   1.822  0.4454 -0.4511  0.1297
   89MOL   H14626722   6.945   2.999   1.876  0.4714 -0.8644  0.2391
   89MOL   H14726723   7.016   3.243   1.922  0.1268  0.8560 -0.6785
   89MOL   H14826724   7.115   3.188   1.798 -0.6018 -2.0532 -1.9550
   89MOL   H14926725   6.976   3.282   1.750  0.1040  0.0950  0.2584
   89MOL   H15026726   7.293   2.952   1.526  0.9903 -0.7752 -0.9983
   89MOL   H15126727   7.264   2.910   1.361 -0.3724  0.9775 -0.4550
   89MOL   C15226728   7.242   3.127   1.411 -0.8116  0.2074 -0.1735
   89MOL   O15326729   7.379   3.153   1.395  0.2374  0.4073  0.1041
   89MOL   C15426730   7.458   3.205   1.491 -0.0631  0.3782 -0.2489
   89MOL   O15526731   7.442   3.207   1.615  0.5484 -0.0846 -0.3549
   89MOL   C15626732   7.588   3.259   1.434  0.2265  1.0070 -0.3109
   89MOL   C15726733   7.698   3.304   1.537  0.7765 -0.0837 -0.2440
   89MOL   C15826734   7.192   3.165   1.268 -0.0179 -0.6192 -0.4167
   89MOL   H15926735   7.197   3.199   1.479  0.1797 -0.1333  0.8523
   89MOL   H16026736   7.622   3.164   1.392 -0.9906 -0.2666  1.4748
   89MOL   H16126737   7.564   3.318   1.346  0.5671 -1.4165 -2.0966
   89MOL   H16226738   7.697   3.243   1.628 -2.1515  0.8370  0.4119
   89MOL   H16326739   7.795   3.291   1.489  0.5098 -0.4274 -0.6956
   89MOL   H16426740   7.679   3.406   1.571 -1.9905  0.0511 -2.0535
   89MOL   H16526741   7.265   3.132   1.195 -1.2594 -0.9991 -1.5178
   89MOL   H16626742   7.113   3.095   1.241  1.2175 -0.7666 -3.8436
   89MOL   C16726743   7.155   3.314   1.252  0.1173 -0.9655  0.3795
   89MOL   O16826744   7.263   3.398   1.259  0.1844  0.3322 -0.2478
   89MOL   C16926745   7.298   3.465   1.369 -0.1945 -0.6145 -1.0600
   89MOL   O17026746   7.235   3.460   1.477  0.0476 -0.0034 -0.0176
   89MOL   C17126747   7.416   3.563   1.340 -0.2321 -0.2493  0.6371
   89MOL   C17226748   7.459   3.638   1.463 -0.7294 -0.3679  0.1805
   89MOL   C17326749   7.095   3.328   1.115  0.2810  0.0426 -0.3631
   89MOL   H17426750   7.081   3.340   1.327  1.2936 -0.3806  1.3539
   89MOL   H17526751   7.501   3.506   1.304  1.4036  2.4220  0.1218
   89MOL   H17626752   7.393   3.634   1.261  1.8530 -0.8299 -0.5194
   89MOL   H17726753   7.461   3.581   1.556  1.2410  2.0066  1.6549
   89MOL   H17826754   7.562   3.669   1.445  0.0180 -2.2241  1.1404
   89MOL   H17926755   7.404   3.729   1.487  0.9150  0.4417  0.9527
   89MOL   H18026756   7.108   3.430   1.077  1.2107 -0.4289 -1.3301
   89MOL   H18126757   7.149   3.271   1.040  0.4994 -0.3992  0.1306
   89MOL   C18226758   6.940   3.288   1.101 -0.0372 -0.2577  0.2560
   89MOL   O18326759   6.865   3.405   1.110  0.5103 -0.0353 -0.1371
   89MOL   C18426760   6.781   3.426   1.211  0.3523 -0.2740 -0.1800
   89MOL   O18526761   6.748   3.344   1.298 -0.6227 -0.3854  0.3749
   89MOL   C18626762   6.703   3.553   1.185  0.2570 -0.4357  0.0874
   89MOL   C18726763   6.579   3.580   1.278  0.2355 -0.3542 -0.3107
   89MOL   C18826764   6.906   3.232   0.959 -0.1877  0.2448  0.0484
   89MOL   H18926765   6.917   3.218   1.181 -0.9846  0.7642  0.8883
   89MOL   H19026766   6.766   3.640   1.203  0.6815 -0.4944 -1.0455
   89MOL   H19126767   6.660   3.552   1.085 -0.8409  1.4301  0.5156
   89MOL   H19226768   6.520   3.656   1.228 -1.1555  0.3294  2.2618
   89MOL   H19326769   6.527   3.484   1.285  0.1995 -0.3920 -1.0616
   89MOL   H19426770   6.594   3.621   1.378  3.9628 -0.3254 -0.8196
   89MOL   H19526771   6.946   3.131   0.953  0.0392  0.4266 -1.6850
   89MOL   H19626772   6.799   3.210   0.959 -0.6687  2.5034 -1.1677
   89MOL   C19726773   6.924   3.321   0.832 -0.6091 -0.1917  0.1417
   89MOL   O19826774   6.977   3.231   0.730 -0.3912 -0.2945  0.3198
   89MOL   C19926775   7.114   3.208   0.724  0.3082  0.4460  0.8002
   89MOL   O20026776   7.198   3.260   0.793  0.1091 -0.0485 -0.1975
   89MOL   C20126777   7.134   3.088   0.625  0.2640  0.1927 -0.4200
   89MOL   C20226778   7.283   3.058   0.593  0.2784 -0.5716  0.2821
   89MOL   C20326779   6.784   3.359   0.787 -0.0514 -0.2122  0.8092
   89MOL   H20426780   6.985   3.408   0.857 -3.3414  1.7036  0.4170
   89MOL   H20526781   7.079   2.999   0.655 -0.5616  0.6731 -0.4711
   89MOL   H20626782   7.087   3.108   0.529  0.1870 -0.5385 -0.5331
   89MOL   H20726783   7.284   2.995   0.504  1.2111  2.5047 -1.9667
   89MOL   H20826784   7.365   3.129   0.582  0.4545 -0.9783 -1.1757
   89MOL   H20926785   7.319   2.981   0.661 -0.8010 -1.1771  0.1853
   89MOL   H21026786   6.735   3.265   0.759 -0.6791 -0.0058  1.1951
   89MOL   H21126787   6.728   3.408   0.867 -0.0222  0.8132  0.2060
   89MOL   C21226788   6.777   3.457   0.668  0.1992 -0.2392  0.7224
   89MOL   O21326789   6.864   3.434   0.556  0.3311  0.2119  0.4121
   89MOL   C21426790   6.977   3.511   0.532 -0.0736 -0.3086 -0.5397
   89MOL   O21526791   7.009   3.603   0.604  0.2506 -0.0468  0.4368
   89MOL   C21626792   7.065   3.466   0.413  0.2800  0.5828 -0.0188
   89MOL   C21726793   6.979   3.430   0.290  0.4546 -0.8895 -0.1348
   89MOL   C21826794   6.639   3.457   0.599 -0.1891 -0.4356 -0.4667
   89MOL   H21926795   6.810   3.555   0.701 -0.1010 -0.1407  0.7315
   89MOL   H22026796   7.135   3.549   0.401  0.0058  0.8801  0.3963
   89MOL   H22126797   7.132   3.382   0.429 -0.3043  0.5855  2.6870
   89MOL   H22226798   7.049   3.426   0.207 -0.5026  1.6693 -1.1060
   89MOL   H22326799   6.927   3.335   0.280  0.8501 -1.1517  0.2284
   89MOL   H22426800   6.913   3.511   0.261 -1.0360 -1.8543  0.4983
   89MOL   H22526801   6.650   3.527   0.516 -1.3564 -0.2605 -0.4717
   89MOL   H22626802   6.621   3.361   0.551 -1.0612 -1.0282  1.0268
   89MOL   C22726803   6.529   3.507   0.693  0.0282  0.3663 -0.3794
   89MOL   O22826804   6.537   3.652   0.699  0.6552 -0.0676 -0.1447
   89MOL   C22926805   6.515   3.716   0.814  0.5760 -0.0130 -0.2501
   89MOL   O23026806   6.453   3.672   0.912 -0.2098  0.6637 -0.5123
   89MOL   C23126807   6.561   3.866   0.809  0.0034  0.7158 -0.1634
   89MOL   C23226808   6.713   3.877   0.829  0.3703  0.0128  0.9236
   89MOL   C23326809   6.385   3.470   0.646  0.3638 -0.0316 -0.8501
   89MOL   H23426810   6.531   3.474   0.797 -0.5553  1.3411 -0.0437
   89MOL   H23526811   6.540   3.921   0.717  0.8457  2.8349  0.8678
   89MOL   H23626812   6.512   3.920   0.890 -1.0504  0.0148 -0.3140
   89MOL   H23726813   6.759   3.918   0.740  0.7350  0.7974  1.4633
   89MOL   H23826814   6.728   3.932   0.922  0.9858  0.4281  0.5803
   89MOL   H23926815   6.758   3.778   0.839 -3.3877 -1.8951 -0.0182
   89MOL   H24026816   6.322   3.537   0.705  1.0540  0.8693 -1.1266
   89MOL   H24126817   6.367   3.507   0.545  0.6583  1.1140 -0.4948
   89MOL   C24226818   6.345   3.327   0.681  0.7041  0.3639 -1.2740
   89MOL   O24326819   6.304   3.312   0.817 -0.4442 -0.0254  0.1306
   89MOL   C24426820   6.393   3.239   0.892  0.4790 -0.4002 -0.1569
   89MOL   O24526821   6.495   3.177   0.859  0.2279 -0.2094  0.5164
   89MOL   C24626822   6.353   3.223   1.032 -0.9106  0.7981 -0.3075
   89MOL   C24726823   6.423   3.323   1.117 -0.5472 -0.2431 -0.1948
   89MOL   C24826824   6.227   3.264   0.604  0.1505  0.3908  0.3948
   89MOL   H24926825   6.442   3.282   0.655  0.3520  0.7204 -3.2607
   89MOL   H25026826   6.246   3.228   1.055 -0.4153 -0.4408  2.4496
   89MOL   H25126827   6.376   3.121   1.062 -2.4980  0.6325  0.4376
   89MOL   H25226828   6.359   3.341   1.203  1.3754  2.5347  0.7019
   89MOL   H25326829   6.511   3.277   1.162  0.5237  0.3412 -1.6480
   89MOL   H25426830   6.444   3.420   1.072 -1.6897  0.7005  1.2618
   89MOL   H25526831   6.129   3.310   0.615 -0.5698 -1.0198 -0.0151
   89MOL   H25626832   6.253   3.290   0.501  1.3944 -3.3516 -0.3063
   89MOL   C25726833   6.218   3.112   0.605  0.2370 -0.4770  0.0116
   89MOL   O25826834   6.107   3.070   0.537  0.3275 -0.2553  0.3072
   89MOL   C25926835   5.991   3.056   0.604 -0.3874 -0.1896  0.2059
   89MOL   O26026836   5.964   3.088   0.719  0.0894  0.4848 -0.3250
   89MOL   C26126837   5.888   2.999   0.517  0.4761 -0.3412 -0.4859
   89MOL   C26226838   5.892   2.845   0.506 -0.2315 -1.1634 -0.6115
   89MOL   C26326839   6.337   3.040   0.537  0.3964 -0.0553 -0.5724
   89MOL   H26426840   6.217   3.077   0.708  0.5396  1.3669  0.6675
   89MOL   H26526841   5.791   3.017   0.564  1.2782  1.1409  0.6434
   89MOL   H26626842   5.880   3.057   0.425  3.0015 -1.3184 -1.3510
   89MOL   H26726843   5.800   2.806   0.462 -1.9871  0.5771  1.4074
   89MOL   H26826844   5.982   2.811   0.456  0.4181  2.0809 -1.7023
   89MOL   H26926845   5.896   2.809   0.609 -0.4086  0.8407  0.1118
   89MOL   H27026846   6.335   3.070   0.432  0.6754 -2.5444 -1.3183
   89MOL   H27126847   6.429   3.084   0.575 -0.3623 -0.3000  1.5968
   89MOL   C27226848   6.340   2.884   0.536 -0.0025  0.0920 -0.2206
   89MOL   O27326849   6.384   2.852   0.412 -0.0027 -0.0237  0.0085
   89MOL   C27426850   6.322   2.761   0.337  0.4250  0.1726  0.4547
   89MOL   O27526851   6.214   2.712   0.354  0.1187  0.5939 -0.3461
   89MOL   C27626852   6.397   2.739   0.208 -0.0835 -0.1579  0.2273
   89MOL   C27726853   6.383   2.605   0.136  0.5888 -0.1660  0.9097
   89MOL   C27826854   6.433   2.825   0.642  0.9696 -0.5518  0.5099
   89MOL   H27926855   6.238   2.848   0.550  1.0236 -1.5425  3.8999
   89MOL   H28026856   6.380   2.824   0.143  0.3139 -1.2293 -1.3082
   89MOL   H28126857   6.503   2.746   0.232 -0.5358  0.1768  2.2282
   89MOL   H28226858   6.478   2.572   0.092 -0.2613 -2.4579  0.7403
   89MOL   H28326859   6.364   2.532   0.215 -0.6448 -0.1462  0.6386
   89MOL   H28426860   6.294   2.605   0.073 -0.0483 -0.4168  1.8003
   89MOL   H28526861   6.428   2.716   0.635 -0.4042 -0.5209  0.9825
   89MOL   H28626862   6.538   2.847   0.619  0.5323  0.8412 -0.1917
   89MOL   C28726863   6.400   2.855   0.786  1.1759  0.1457 -0.6824
   89MOL   O28826864   6.279   2.788   0.823 -0.0377  0.1927 -0.7181
   89MOL   C28926865   6.180   2.847   0.892  0.0875 -0.5039  0.5040
   89MOL   O29026866   6.169   2.961   0.933 -0.2166  0.5836 -0.0267
   89MOL   C29126867   6.071   2.744   0.917 -0.2557  0.5600  0.0640
   89MOL   C29226868   5.937   2.794   0.972  0.0202  0.1764  0.4675
   89MOL   C29326869   6.506   2.814   0.880 -0.0841  0.1144  0.2369
   89MOL   H29426870   6.381   2.962   0.800 -2.5392 -0.5232 -0.3451
   89MOL   H29526871   6.043   2.688   0.828 -0.5938  0.3154  0.3235
   89MOL   H29626872   6.115   2.667   0.979 -0.1035 -0.4876 -1.3313
   89MOL   H29726873   5.881   2.711   1.013  0.8914 -0.5098  0.2727
   89MOL   H29826874   5.947   2.860   1.058 -2.0977  1.1923 -0.0265
   89MOL   H29926875   5.876   2.839   0.893  0.8652  1.1716  0.3721
   89MOL   H30026876   6.595   2.872   0.853  0.2048 -0.3620  0.1657
   89MOL   H30126877   6.476   2.818   0.984 -0.8179 -4.1359  0.2462
   89MOL   H30226878   6.532   2.711   0.857  0.9526  0.3847  0.1357
   90MOL     C126879   6.040   5.571   1.066 -0.0808  0.4993  0.2265
   90MOL     O226880   5.923   5.574   1.147 -0.4574  0.2344 -0.2452
   90MOL     C326881   5.917   5.663   1.243 -0.2381  0.1431 -0.0032
   90MOL     O426882   5.986   5.764   1.252  0.6245 -0.0845 -0.1415
   90MOL     C526883   5.804   5.636   1.346 -0.5232  0.1497  0.4388
   90MOL     C626884   5.667   5.606   1.281  0.2214  0.1199  0.1192
   90MOL     C726885   6.141   5.460   1.110 -0.1232  0.8463 -0.5476
   90MOL     H826886   6.087   5.669   1.057  1.6983 -0.3907 -0.4629
   90MOL     H926887   5.830   5.561   1.420  0.4278 -1.0978 -1.1205
   90MOL    H1026888   5.800   5.728   1.405 -0.8848  1.4318 -1.5463
   90MOL    H1126889   5.670   5.533   1.201  1.1910  0.0473  0.2113
   90MOL    H1226890   5.588   5.582   1.352 -0.6515  3.0379  0.2053
   90MOL    H1326891   5.649   5.702   1.231 -1.3092 -0.3803 -0.3114
   90MOL    H1426892   6.178   5.481   1.210  1.9370  0.1583 -1.1474
   90MOL    H1526893   6.096   5.361   1.122  1.6240 -0.3838 -3.6273
   90MOL    H1626894   6.009   5.563   0.962  1.1259 -3.2309  0.0578
   90MOL    C1726895   6.267   5.452   1.016 -0.5336  0.4532 -0.3483
   90MOL    O1826896   6.337   5.581   1.000 -0.1481 -0.1458 -0.0326
   90MOL    C1926897   6.393   5.620   0.880  0.0426 -0.1850  0.3838
   90MOL    O2026898   6.408   5.559   0.773  0.2923  0.0057 -0.2413
   90MOL    C2126899   6.436   5.763   0.890  0.0975  0.0911 -0.5326
   90MOL    C2226900   6.345   5.859   0.821 -0.0399  0.7869 -0.1910
   90MOL    C2326901   6.366   5.352   1.060 -0.2491 -0.4578  0.3562
   90MOL    H2426902   6.226   5.419   0.920  0.0194 -0.9517 -0.1091
   90MOL    H2526903   6.441   5.803   0.991  1.2919 -0.4209 -0.3732
   90MOL    H2626904   6.539   5.777   0.856 -0.0185  1.1749 -0.4526
   90MOL    H2726905   6.248   5.819   0.794  0.9251 -1.3438 -0.5938
   90MOL    H2826906   6.326   5.945   0.885 -3.0952 -1.6372  2.3031
   90MOL    H2926907   6.388   5.883   0.724  0.8945 -0.0924 -0.0072
   90MOL    H3026908   6.455   5.351   0.997 -0.0962  0.9432  0.5416
   90MOL    H3126909   6.397   5.380   1.161 -1.5880 -1.4415  1.0468
   90MOL    C3226910   6.326   5.205   1.067 -0.4573 -0.0412  0.1515
   90MOL    O3326911   6.294   5.145   0.939  0.6326 -0.0012  0.4494
   90MOL    C3426912   6.180   5.076   0.923 -0.2758  0.4110  0.1002
   90MOL    O3526913   6.105   5.040   1.014 -0.1241 -0.1453  0.8525
   90MOL    C3626914   6.153   5.035   0.777 -0.5522  1.2945 -0.7670
   90MOL    C3726915   6.084   5.145   0.704  0.0616 -0.0005 -0.7218
   90MOL    C3826916   6.450   5.135   1.114 -0.6005 -0.4096  0.3272
   90MOL    H3926917   6.246   5.182   1.137 -0.3388 -0.9693 -0.0176
   90MOL    H4026918   6.249   5.004   0.737 -0.6366  0.1293 -0.1026
   90MOL    H4126919   6.084   4.951   0.781  0.8687  0.1464 -0.1288
   90MOL    H4226920   5.984   5.171   0.739 -0.4643  1.3036 -3.0725
   90MOL    H4326921   6.135   5.241   0.709 -0.0361 -0.0697  2.3972
   90MOL    H4426922   6.065   5.109   0.603 -1.2115 -0.6114 -0.2826
   90MOL    H4526923   6.525   5.132   1.035 -0.8181 -0.8853  0.1430
   90MOL    H4626924   6.483   5.205   1.192 -0.6383 -1.7808  1.6027
   90MOL    C4726925   6.438   4.992   1.168 -0.0645  0.7871 -0.7263
   90MOL    O4826926   6.547   4.899   1.125 -0.1313 -0.4425  0.2358
   90MOL    C4926927   6.534   4.826   1.013  0.3067 -0.6613 -0.2213
   90MOL    O5026928   6.436   4.822   0.944  0.9602 -0.9299 -0.1168
   90MOL    C5126929   6.661   4.755   0.970 -0.5682  0.1784 -0.1643
   90MOL    C5226930   6.777   4.858   0.954  0.5679 -0.2578  0.2277
   90MOL    C5326931   6.449   4.999   1.314 -0.2901 -0.0782 -0.1099
   90MOL    H5426932   6.344   4.943   1.144  1.6810 -2.7684 -0.6689
   90MOL    H5526933   6.698   4.677   1.037  0.4358  0.8186  0.0413
   90MOL    H5626934   6.644   4.711   0.871  0.3547  1.3456 -0.8509
   90MOL    H5726935   6.753   4.949   0.900 -1.2751 -0.4843  0.6249
   90MOL    H5826936   6.825   4.894   1.045  1.6636 -3.3343  0.9351
   90MOL    H5926937   6.852   4.803   0.897  0.8089  0.9458 -0.6384
   90MOL    H6026938   6.467   4.895   1.341 -1.1548  0.7715  4.1401
   90MOL    H6126939   6.541   5.050   1.341 -1.0707  1.4320 -0.2468
   90MOL    C6226940   6.325   5.050   1.387 -0.7515 -0.8646  0.3055
   90MOL    O6326941   6.213   4.963   1.354 -0.3543 -0.2726 -0.1981
   90MOL    C6426942   6.085   5.013   1.337 -0.2495  0.0334  0.6428
   90MOL    O6526943   6.053   5.132   1.346 -0.3559 -0.0737  0.0318
   90MOL    C6626944   5.993   4.901   1.294  0.6858 -0.2433 -0.4210
   90MOL    C6726945   5.865   4.957   1.237  0.0365 -0.0077  0.7705
   90MOL    C6826946   6.337   5.036   1.538 -0.4033  0.6510 -0.0910
   90MOL    H6926947   6.316   5.152   1.351  0.8071 -0.8588 -0.0727
   90MOL    H7026948   6.041   4.858   1.206 -1.5016 -0.6581 -1.4327
   90MOL    H7126949   5.974   4.830   1.374  0.6479  0.2761  0.0311
   90MOL    H7226950   5.830   5.015   1.322  0.6644  2.7154 -0.7616
   90MOL    H7326951   5.878   5.023   1.151 -0.4994  0.9205  1.3951
   90MOL    H7426952   5.788   4.882   1.220  1.6077 -1.5138  0.0098
   90MOL    H7526953   6.243   5.044   1.593 -0.4899  1.7533 -0.4008
   90MOL    H7626954   6.374   4.936   1.562  0.4430  0.9665 -0.0854
   90MOL    C7726955   6.423   5.143   1.610 -0.7270  0.3645  0.5333
   90MOL    O7826956   6.350   5.263   1.647 -0.1451 -0.1026 -0.3442
   90MOL    C7926957   6.348   5.367   1.567  0.2838  0.0267 -0.8075
   90MOL    O8026958   6.394   5.368   1.450  0.1177  0.0820  0.2244
   90MOL    C8126959   6.269   5.483   1.622  0.6540 -0.0210 -0.0684
   90MOL    C8226960   6.142   5.507   1.534 -0.7780 -0.5749 -0.1522
   90MOL    C8326961   6.476   5.081   1.741  0.6462  0.5727  0.2465
   90MOL    H8426962   6.507   5.160   1.543 -1.2820 -0.3512 -0.3499
   90MOL    H8526963   6.255   5.466   1.729  3.7667 -0.8878  0.2377
   90MOL    H8626964   6.329   5.574   1.624  1.2165 -0.3940  0.0066
   90MOL    H8726965   6.163   5.512   1.427  1.9725  1.8524  0.4491
   90MOL    H8826966   6.070   5.426   1.549  0.5399 -1.7524 -0.1269
   90MOL    H8926967   6.095   5.602   1.560 -0.4496 -0.7878  1.2768
   90MOL    H9026968   6.496   5.165   1.808  1.6717  1.9023 -1.6776
   90MOL    H9126969   6.390   5.023   1.775  1.6563  0.0297  1.9929
   90MOL    C9226970   6.612   5.006   1.712 -0.5397 -0.1283  0.6808
   90MOL    O9326971   6.602   4.914   1.603  0.1355 -0.4054 -0.0018
   90MOL    C9426972   6.632   4.785   1.625 -0.1172  0.3956 -0.4750
   90MOL    O9526973   6.684   4.743   1.735  0.4350 -0.3885  0.5492
   90MOL    C9626974   6.579   4.685   1.526  0.1100 -0.1036 -0.0324
   90MOL    C9726975   6.671   4.674   1.394 -0.2513  0.4892 -0.3190
   90MOL    C9826976   6.734   5.097   1.682  0.6646 -0.7229 -0.1932
   90MOL    H9926977   6.636   4.956   1.806 -1.7111  1.0332  1.6114
   90MOL   H10026978   6.566   4.587   1.572 -0.9229 -0.1759 -0.4713
   90MOL   H10126979   6.479   4.723   1.506  0.1074  0.2590  0.6647
   90MOL   H10226980   6.659   4.760   1.328 -0.8980  0.1172 -0.7010
   90MOL   H10326981   6.778   4.666   1.413 -0.2024  1.6376 -0.0544
   90MOL   H10426982   6.646   4.583   1.338  1.9523  0.0064 -0.5671
   90MOL   H10526983   6.817   5.038   1.645  2.8012  1.9627  0.1162
   90MOL   H10626984   6.714   5.161   1.596 -0.4017 -0.3439  0.3264
   90MOL   C10726985   6.783   5.198   1.783  0.1157 -0.6171  0.2101
   90MOL   O10826986   6.760   5.143   1.911 -0.1084  0.3871  0.1760
   90MOL   C10926987   6.717   5.213   2.012 -0.4283  0.6715  0.3209
   90MOL   O11026988   6.658   5.323   2.004  0.3224  0.3832  0.8650
   90MOL   C11126989   6.761   5.148   2.145 -0.7293 -0.1239  0.0001
   90MOL   C11226990   6.746   5.223   2.279  0.4366 -0.2566  0.1985
   90MOL   C11326991   6.927   5.253   1.758  0.1172  0.0826 -0.0998
   90MOL   H11426992   6.713   5.281   1.773 -1.9429 -2.0339  2.2449
   90MOL   H11526993   6.706   5.055   2.157  1.2027 -1.5095 -1.7871
   90MOL   H11626994   6.864   5.113   2.138 -0.6078  0.0838  0.6650
   90MOL   H11726995   6.751   5.155   2.364 -2.1631 -0.0119  0.5729
   90MOL   H11826996   6.812   5.305   2.307  0.2090  0.0156 -0.0747
   90MOL   H11926997   6.645   5.261   2.288  1.1552  1.9010 -0.5122
   90MOL   H12026998   6.982   5.277   1.848  0.6857 -1.2780 -0.0693
   90MOL   H12126999   6.992   5.170   1.731 -0.5851 -1.0159  1.4950
   90MOL   C12227000   6.959   5.361   1.648  0.0026  0.6963  0.2468
   90MOL   O12327001   6.908   5.485   1.690  0.4966 -0.3424  0.1378
   90MOL   C12427002   6.825   5.559   1.618 -0.1726  0.0541 -0.2835
   90MOL   O12527003   6.755   5.516   1.523  0.1560 -0.4084 -0.3701
   90MOL   C12627004   6.825   5.711   1.658  0.1265  0.2205  0.5614
   90MOL   C12727005   6.925   5.750   1.767 -0.5362 -0.2696  0.0684
   90MOL   C12827006   7.108   5.383   1.619 -0.2823  0.3008 -0.1258
   90MOL   H12927007   6.909   5.327   1.558 -1.8342  0.6217  1.2687
   90MOL   H13027008   6.873   5.755   1.570 -0.8325  1.4480  0.6426
   90MOL   H13127009   6.728   5.758   1.666 -0.0514  0.3964 -2.0847
   90MOL   H13227010   7.017   5.699   1.738 -0.7708 -0.0729 -1.0458
   90MOL   H13327011   6.944   5.857   1.772  4.0896 -1.0084  0.7981
   90MOL   H13427012   6.905   5.719   1.869 -0.5324  0.6877  0.3591
   90MOL   H13527013   7.148   5.454   1.690  0.4985 -1.1902  0.9436
   90MOL   H13627014   7.169   5.297   1.648  1.0640  1.6053  0.9607
   90MOL   C13727015   7.143   5.425   1.473  0.3922 -0.0356 -0.3959
   90MOL   O13827016   7.268   5.473   1.481 -0.4919  0.4209  0.3019
   90MOL   C13927017   7.285   5.610   1.490  0.0814  0.9998  0.0633
   90MOL   O14027018   7.199   5.695   1.487  0.4819 -0.3389 -0.2188
   90MOL   C14127019   7.424   5.654   1.497 -0.6011  0.0892  0.1083
   90MOL   C14227020   7.505   5.597   1.375  0.7790 -0.0879 -0.2385
   90MOL   C14327021   7.141   5.304   1.377 -0.6663  0.0246 -0.0168
   90MOL   H14427022   7.067   5.495   1.438  1.8317  2.7599  1.8727
   90MOL   H14527023   7.427   5.763   1.498 -0.5087  0.0887 -0.0497
   90MOL   H14627024   7.476   5.610   1.582  1.3514 -0.3939 -1.3004
   90MOL   H14727025   7.555   5.505   1.403  0.5118 -0.1353  0.0920
   90MOL   H14827026   7.439   5.576   1.291  1.6732  2.6929 -1.6920
   90MOL   H14927027   7.583   5.671   1.359  0.4295  0.1737 -0.7297
   90MOL   H15027028   7.194   5.344   1.291 -1.7667  0.0140 -0.6954
   90MOL   H15127029   7.207   5.233   1.427 -0.2109  1.0137  0.8140
   90MOL   C15227030   7.014   5.235   1.336  0.6017 -0.4530 -0.0544
   90MOL   O15327031   6.920   5.336   1.286 -0.4558  0.1772 -0.3812
   90MOL   C15427032   6.788   5.312   1.283 -0.1446  0.0360  0.4127
   90MOL   O15527033   6.733   5.217   1.341  0.1589 -0.0539  0.5017
   90MOL   C15627034   6.716   5.421   1.192  0.0019  0.4942 -0.0750
   90MOL   C15727035   6.752   5.407   1.042  0.1449 -1.0182 -0.7014
   90MOL   C15827036   7.047   5.132   1.228  0.7238  0.5870 -0.2716
   90MOL   H15927037   6.971   5.195   1.428  0.2439 -0.1101 -0.0694
   90MOL   H16027038   6.609   5.409   1.207  0.1859 -0.8102  0.3022
   90MOL   H16127039   6.734   5.520   1.233 -2.0109  0.6210  0.5617
   90MOL   H16227040   6.709   5.481   0.974  0.6046 -1.1069 -1.0903
   90MOL   H16327041   6.858   5.398   1.021  0.6773  2.1525  0.2670
   90MOL   H16427042   6.700   5.315   1.019  2.0132 -1.9013 -1.4782
   90MOL   H16527043   6.949   5.092   1.204 -0.0216  1.0582  1.9200
   90MOL   H16627044   7.091   5.178   1.139  0.9107 -1.7541 -1.4527
   90MOL   C16727045   7.131   5.009   1.273  0.0633 -0.7223  0.2128
   90MOL   O16827046   7.051   4.925   1.361  0.7029 -0.2109 -0.4358
   90MOL   C16927047   7.057   4.936   1.492 -0.5211  0.7357 -0.9493
   90MOL   O17027048   7.099   5.026   1.564  0.2337 -0.3342  0.4099
   90MOL   C17127049   6.991   4.817   1.560  0.2550 -0.6922  0.0978
   90MOL   C17227050   7.048   4.781   1.699  0.0685  0.2849 -0.3819
   90MOL   C17327051   7.178   4.914   1.165  0.2174 -0.0253  0.2453
   90MOL   H17427052   7.224   5.043   1.319  0.4039 -2.2073  0.6529
   90MOL   H17527053   6.882   4.828   1.563  0.2850 -0.2397 -0.3862
   90MOL   H17627054   7.020   4.736   1.494 -0.3543 -0.5590 -0.3300
   90MOL   H17727055   7.153   4.811   1.702 -0.4298  1.9724  1.3803
   90MOL   H17827056   6.981   4.828   1.772 -0.9726 -1.2080 -0.3475
   90MOL   H17927057   7.047   4.674   1.715 -0.9383  0.1836 -1.0720
   90MOL   H18027058   7.201   4.823   1.220 -1.6857 -0.8963 -0.3419
   90MOL   H18127059   7.094   4.883   1.103 -0.0739  0.3507  0.4513
   90MOL   C18227060   7.300   4.974   1.090  0.1238 -0.0747  0.0551
   90MOL   O18327061   7.406   4.990   1.183 -0.2131 -0.0175 -0.2000
   90MOL   C18427062   7.445   5.113   1.209  0.1850  0.0759  0.8807
   90MOL   O18527063   7.410   5.213   1.147 -0.3261  0.3532 -0.4823
   90MOL   C18627064   7.555   5.113   1.313 -0.2821 -0.2658  0.2776
   90MOL   C18727065   7.667   5.209   1.277  0.0966  0.2716  0.2846
   90MOL   C18827066   7.337   4.890   0.968  0.2303  0.3146  0.8343
   90MOL   H18927067   7.267   5.069   1.048 -1.6496 -1.8567 -2.8192
   90MOL   H19027068   7.517   5.155   1.406 -0.0436  2.9955 -1.0312
   90MOL   H19127069   7.600   5.016   1.333  0.3469  0.2358  1.2983
   90MOL   H19227070   7.721   5.158   1.196  0.8107  0.1705  0.8198
   90MOL   H19327071   7.639   5.304   1.232  1.1276  0.2020 -0.5331
   90MOL   H19427072   7.741   5.236   1.352  1.5440 -1.8538 -0.3155
   90MOL   H19527073   7.438   4.899   0.928 -0.6063 -2.6009 -2.1657
   90MOL   H19627074   7.348   4.794   1.020  0.8458 -0.0841 -0.0111
   90MOL   C19727075   7.229   4.896   0.855  0.0087  0.3065  0.0084
   90MOL   O19827076   7.220   5.037   0.815 -0.2420  0.3290 -0.0858
   90MOL   C19927077   7.108   5.105   0.812  0.2793  0.2500  0.2432
   90MOL   O20027078   6.998   5.053   0.835  0.1241 -0.2395  0.1171
   90MOL   C20127079   7.139   5.248   0.779  1.0337 -0.5440  0.5615
   90MOL   C20227080   7.238   5.313   0.875 -0.0889  0.0838  0.5366
   90MOL   C20327081   7.261   4.821   0.726 -0.5833  0.1297  0.8950
   90MOL   H20427082   7.141   4.852   0.902 -0.3018  1.1329  0.1996
   90MOL   H20527083   7.189   5.241   0.683  0.5465  0.3951  0.2365
   90MOL   H20627084   7.048   5.307   0.773  2.9292  2.4454  0.4447
   90MOL   H20727085   7.243   5.417   0.843 -1.6691 -0.2743 -0.9384
   90MOL   H20827086   7.198   5.309   0.977  0.7130  0.1914  0.8641
   90MOL   H20927087   7.336   5.267   0.859  0.1134  0.2936  1.1371
   90MOL   H21027088   7.183   4.845   0.654 -0.7000  1.6685  1.5228
   90MOL   H21127089   7.349   4.863   0.677 -1.3273  0.9526  0.2500
   90MOL   C21227090   7.274   4.664   0.735  0.4035 -0.5579  0.2479
   90MOL   O21327091   7.189   4.612   0.841 -0.2562  0.0310 -0.9609
   90MOL   C21427092   7.227   4.502   0.911 -0.1249  0.8604 -0.1915
   90MOL   O21527093   7.336   4.447   0.905  0.2822 -0.4701 -0.0121
   90MOL   C21627094   7.121   4.467   1.012  0.0732 -0.5437 -0.1407
   90MOL   C21727095   7.016   4.380   0.946 -0.0632 -0.0315  0.1143
   90MOL   C21827096   7.245   4.593   0.597 -0.7047  0.0306 -0.4359
   90MOL   H21927097   7.377   4.637   0.760  0.2846 -1.3341 -0.1047
   90MOL   H22027098   7.171   4.418   1.096  1.8779  1.6524  0.1071
   90MOL   H22127099   7.079   4.561   1.047  1.0800 -0.4789  0.9499
   90MOL   H22227100   7.074   4.304   0.893 -1.3322 -0.1285 -1.1491
   90MOL   H22327101   6.953   4.327   1.018  0.1088 -0.5151 -0.0852
   90MOL   H22427102   6.956   4.441   0.879  2.3381  0.6331 -1.4921
   90MOL   H22527103   7.294   4.653   0.520 -0.4177 -2.0149 -1.9029
   90MOL   H22627104   7.300   4.499   0.598 -1.1035 -0.1994  0.9690
   90MOL   C22727105   7.102   4.569   0.562 -0.1551  0.3893  0.5000
   90MOL   O22827106   7.036   4.688   0.541  0.0997 -0.1301  0.2287
   90MOL   C22927107   6.916   4.712   0.609  0.4249 -0.5398 -0.8375
   90MOL   O23027108   6.870   4.638   0.692  0.6220  0.3429 -0.1982
   90MOL   C23127109   6.846   4.849   0.582  0.7071  0.3736  0.1128
   90MOL   C23227110   6.935   4.961   0.522 -0.1431  0.5906  0.3654
   90MOL   C23327111   7.076   4.489   0.438 -0.2642  0.7966 -0.0800
   90MOL   H23427112   7.060   4.507   0.642 -0.0462 -0.9227 -0.4351
   90MOL   H23527113   6.772   4.828   0.504  0.0253 -4.1271  1.7931
   90MOL   H23627114   6.799   4.885   0.674 -1.9088  1.2274 -1.5072
   90MOL   H23727115   6.876   5.049   0.496 -1.4591 -0.2797  0.3858
   90MOL   H23827116   7.020   4.990   0.584  0.0122  0.5079  0.1940
   90MOL   H23927117   6.973   4.935   0.423  1.2643  1.5635  0.6263
   90MOL   H24027118   6.968   4.483   0.431 -0.3569 -0.3463  1.9332
   90MOL   H24127119   7.105   4.549   0.352 -0.0981 -0.6738 -1.0666
   90MOL   C24227120   7.143   4.354   0.419 -0.2936  0.2734 -0.2000
   90MOL   O24327121   7.120   4.280   0.540  0.2945  0.2807  0.3019
   90MOL   C24427122   7.221   4.224   0.599 -0.5472  0.7094 -0.7564
   90MOL   O24527123   7.343   4.235   0.575  0.0477 -0.3469 -0.2251
   90MOL   C24627124   7.175   4.112   0.692  0.1281  0.2569  0.3532
   90MOL   C24727125   7.157   3.980   0.623 -0.2478  0.4259  0.3056
   90MOL   C24827126   7.087   4.267   0.305 -0.4520  0.1651  0.7799
   90MOL   H24927127   7.250   4.368   0.404  1.2750 -3.7879  5.2952
   90MOL   H25027128   7.258   4.102   0.762 -0.7853 -2.1252  1.1680
   90MOL   H25127129   7.084   4.142   0.745  1.9590  1.9222  2.6836
   90MOL   H25227130   7.091   3.994   0.538 -0.6863  1.1975  0.7673
   90MOL   H25327131   7.249   3.949   0.573  0.1493  1.5848  0.3165
   90MOL   H25427132   7.109   3.904   0.685  1.1567 -0.9258 -0.2382
   90MOL   H25527133   7.139   4.171   0.305 -0.2624  0.2517 -0.7259
   90MOL   H25627134   6.982   4.258   0.333 -0.1938 -3.0474  0.9322
   90MOL   C25727135   7.075   4.329   0.160  0.0186  0.0792 -0.4593
   90MOL   O25827136   7.208   4.367   0.108  0.2614  0.3209  0.4724
   90MOL   C25927137   7.238   4.491   0.101  0.5235  0.0309 -0.2417
   90MOL   O26027138   7.157   4.584   0.094 -0.1560 -0.4677 -0.3393
   90MOL   C26127139   7.387   4.519   0.105 -0.9699 -0.0325 -0.3186
   90MOL   C26227140   7.446   4.553   7.911 -0.0009  0.3294  0.0031
   90MOL   C26327141   7.031   4.223   0.063 -0.5814 -0.1789 -0.1774
   90MOL   H26427142   6.999   4.406   0.165 -0.6729 -0.6186 -0.0489
   90MOL   H26527143   7.413   4.600   0.173 -0.4157  0.6493 -1.3308
   90MOL   H26627144   7.431   4.427   0.143  2.3198  1.9990  1.0606
   90MOL   H26727145   7.436   4.462   7.851 -2.1892  0.5775 -0.0389
   90MOL   H26827146   7.400   4.639   7.863  1.0644  1.8861  1.7108
   90MOL   H26927147   7.549   4.587   7.915 -0.1029  0.3951  2.8402
   90MOL   H27027148   7.016   4.256   7.905  1.7101  2.8177  0.3719
   90MOL   H27127149   7.107   4.147   0.044  0.9989  1.1134  0.8310
   90MOL   C27227150   6.888   4.156   0.096  1.1100  0.1519  0.2401
   90MOL   O27327151   6.908   4.064   0.202  0.4105 -0.2430 -0.0273
   90MOL   C27427152   6.832   3.951   0.219 -0.0899 -0.3311 -0.6884
   90MOL   O27527153   6.762   3.898   0.131 -0.0686  0.2325 -0.2541
   90MOL   C27627154   6.832   3.895   0.362  0.3637  0.0918 -0.0080
   90MOL   C27727155   6.730   3.777   0.390 -0.8302 -0.1402 -0.6407
   90MOL   C27827156   6.776   4.250   0.140 -0.3166 -0.1517 -0.4121
   90MOL   H27927157   6.866   4.094   0.008  0.0500 -2.8235  2.5061
   90MOL   H28027158   6.925   3.850   0.396  0.4552 -0.5798 -1.1504
   90MOL   H28127159   6.815   3.978   0.432  2.6525  1.0654 -0.5606
   90MOL   H28227160   6.749   3.684   0.335 -2.4679 -0.7817 -0.1587
   90MOL   H28327161   6.741   3.756   0.496 -2.7250  0.1234 -0.3803
   90MOL   H28427162   6.625   3.803   0.382 -0.7805  0.3536  0.2230
   90MOL   H28527163   6.697   4.190   0.185  0.4399 -0.2335  0.8417
   90MOL   H28627164   6.806   4.314   0.223 -1.1672 -0.2217 -0.0419
   90MOL   C28727165   6.706   4.346   0.040  0.0719 -0.3863 -0.1144
   90MOL   O28827166   6.800   4.438   7.929 -0.1288  0.2398 -0.0374
   90MOL   C28927167   6.813   4.553   0.041  0.0476 -0.3405 -0.4553
   90MOL   O29027168   6.786   4.589   0.161  0.1616 -0.2832  0.4013
   90MOL   C29127169   6.881   4.654   7.896  0.1075 -0.2094 -0.9194
   90MOL   C29227170   6.914   4.791   0.020  0.2169  0.8249 -0.2231
   90MOL   C29327171   6.637   4.275   7.866 -0.2258  0.2390  1.3809
   90MOL   H29427172   6.629   4.399   0.096 -1.2422 -1.0589 -1.2233
   90MOL   H29527173   6.974   4.607   7.863  0.6084 -1.5955  2.2835
   90MOL   H29627174   6.834   4.685   7.803  1.0827 -1.2421 -1.7739
   90MOL   H29727175   6.851   4.810   0.107 -0.1191  2.4788 -0.8058
   90MOL   H29827176   7.016   4.798   0.057  0.1006 -0.1478  0.3128
   90MOL   H29927177   6.899   4.866   7.887  2.5726 -0.6582 -2.1674
   90MOL   H30027178   6.712   4.231   7.801  0.3130 -0.5856  2.5451
   90MOL   H30127179   6.573   4.193   7.897 -1.3140 -0.1394 -1.6477
   90MOL   H30227180   6.583   4.344   7.801 -0.7752 -0.8431  0.6780
   91MOL     C127181   5.047   0.769   6.593  0.1161  0.3923  0.4327
   91MOL     O227182   5.087   0.882   6.670  0.5271 -0.2014  0.2265
   91MOL     C327183   5.031   0.918   6.777  0.4646  0.6496  0.1059
   91MOL     O427184   4.944   0.858   6.836 -0.0614  0.4726  0.8069
   91MOL     C527185   5.080   1.045   6.835 -0.0159  0.3403  0.3164
   91MOL     C627186   5.058   1.157   6.734  0.2019  0.3078 -0.2293
   91MOL     C727187   5.046   0.805   6.438  0.3510 -0.1060  0.9050
   91MOL     H827188   4.953   0.725   6.627 -0.4550  0.7471 -0.6493
   91MOL     H927189   5.033   1.055   6.933 -0.7282 -1.1051  0.1256
   91MOL    H1027190   5.188   1.035   6.849 -0.3140 -3.4084  0.3432
   91MOL    H1127191   5.101   1.254   6.760  1.4968 -0.4457  0.4831
   91MOL    H1227192   5.104   1.126   6.640 -1.8516 -0.4206 -1.0210
   91MOL    H1327193   4.957   1.193   6.712  0.8652  0.7292 -2.7839
   91MOL    H1427194   5.136   0.856   6.405 -0.6753  0.3912 -1.1839
   91MOL    H1527195   5.037   0.713   6.381 -1.3565 -1.1391  2.7588
   91MOL    H1627196   5.125   0.694   6.604  0.7771  0.6578 -2.0980
   91MOL    C1727197   4.935   0.905   6.410  0.1504 -0.3505  0.0343
   91MOL    O1827198   4.947   0.957   6.272 -0.1291 -0.6403 -0.0174
   91MOL    C1927199   5.022   1.063   6.239  0.1074  0.1290  0.7962
   91MOL    O2027200   5.107   1.115   6.309  0.0106  0.2235  0.1647
   91MOL    C2127201   4.989   1.114   6.099 -0.4536 -0.0689 -0.1128
   91MOL    C2227202   5.101   1.182   6.011 -0.3851  0.2403  0.1475
   91MOL    C2327203   4.796   0.842   6.418  0.0928  0.7273 -0.0114
   91MOL    H2427204   4.926   0.985   6.484 -0.1143  0.4359 -0.8380
   91MOL    H2527205   4.970   1.023   6.043  1.2111 -1.2504  1.1970
   91MOL    H2627206   4.897   1.169   6.123 -0.2263  1.1562 -1.9353
   91MOL    H2727207   5.050   1.245   5.938 -0.7843  0.9710  1.0417
   91MOL    H2827208   5.186   1.236   6.054 -0.1315 -1.2094  1.5147
   91MOL    H2927209   5.145   1.105   5.948  1.3685  2.2377 -1.1662
   91MOL    H3027210   4.786   0.776   6.332  0.5314 -1.5377  1.6481
   91MOL    H3127211   4.789   0.770   6.499  1.3342  3.4926  2.6895
   91MOL    C3227212   4.666   0.932   6.426 -0.2599 -0.5553  0.4390
   91MOL    O3327213   4.668   1.012   6.543 -0.0526  0.4698 -0.0894
   91MOL    C3427214   4.621   0.960   6.654 -0.0071  1.0699  0.3870
   91MOL    O3527215   4.581   0.840   6.668  0.0468 -0.1255 -0.8758
   91MOL    C3627216   4.617   1.059   6.767 -0.2274  0.5173 -0.8037
   91MOL    C3727217   4.550   1.007   6.896 -0.1560  0.5878 -0.2462
   91MOL    C3827218   4.655   1.021   6.294  0.3135 -0.5823  0.0945
   91MOL    H3927219   4.575   0.871   6.428 -0.6577 -0.0191 -0.9203
   91MOL    H4027220   4.720   1.087   6.791 -0.4612  0.8299 -0.1603
   91MOL    H4127221   4.569   1.148   6.727 -0.8886 -0.0866 -1.3530
   91MOL    H4227222   4.446   0.990   6.868  0.1990  1.0054 -1.8157
   91MOL    H4327223   4.611   0.920   6.921 -2.1156  0.2945  3.9624
   91MOL    H4427224   4.555   1.080   6.977 -1.8566  1.0546 -0.5458
   91MOL    H4527225   4.728   1.101   6.306  0.6930 -0.9999  0.6173
   91MOL    H4627226   4.684   0.952   6.215  0.3197 -0.7122  0.2076
   91MOL    C4727227   4.514   1.080   6.264  0.6496  0.3686  0.0274
   91MOL    O4827228   4.472   1.178   6.363 -0.4842 -0.2437  0.3835
   91MOL    C4927229   4.364   1.159   6.433 -0.3961 -0.2365 -0.7746
   91MOL    O5027230   4.284   1.063   6.431  0.0908 -0.1385 -0.7750
   91MOL    C5127231   4.345   1.274   6.527  0.1243  0.4385 -0.3716
   91MOL    C5227232   4.218   1.258   6.605  0.6421 -0.1964  0.0772
   91MOL    C5327233   4.499   1.121   6.116  0.1238 -0.1231  0.6236
   91MOL    H5427234   4.443   0.999   6.282 -0.4443  1.9455  3.1281
   91MOL    H5527235   4.429   1.298   6.593  0.4169  0.6470 -0.8146
   91MOL    H5627236   4.339   1.364   6.465  0.5389 -0.5284 -1.8550
   91MOL    H5727237   4.231   1.171   6.669  0.1307 -1.8629 -2.0204
   91MOL    H5827238   4.227   1.349   6.665  1.8447  0.5362 -1.1769
   91MOL    H5927239   4.126   1.252   6.546  0.5431  1.4004  0.0304
   91MOL    H6027240   4.398   1.161   6.114 -1.2444 -3.4469 -0.7316
   91MOL    H6127241   4.562   1.202   6.080  0.0719 -0.7322 -0.8862
   91MOL    C6227242   4.496   1.007   6.015  1.1045 -0.8640 -0.1571
   91MOL    O6327243   4.413   0.905   6.069 -0.2082  0.1794 -0.2241
   91MOL    C6427244   4.462   0.789   6.119 -0.2266 -0.2855 -0.3811
   91MOL    O6527245   4.581   0.757   6.123  0.1404 -0.4245 -0.9315
   91MOL    C6627246   4.356   0.694   6.178 -0.0414  0.0846 -0.0763
   91MOL    C6727247   4.219   0.703   6.123  0.2069  0.3763  0.9675
   91MOL    C6827248   4.422   1.058   5.882 -0.3022  0.1053 -0.2415
   91MOL    H6927249   4.598   0.981   5.986  0.9138 -0.9754 -0.7469
   91MOL    H7027250   4.396   0.596   6.152  3.8700  1.1070  1.6516
   91MOL    H7127251   4.353   0.703   6.287  0.0716 -2.4533  0.1740
   91MOL    H7227252   4.172   0.797   6.151  2.1517  1.5743  0.2795
   91MOL    H7327253   4.223   0.709   6.014  0.7953  1.4583  1.0515
   91MOL    H7427254   4.155   0.624   6.163 -0.9514  0.0509 -1.4342
   91MOL    H7527255   4.316   1.032   5.886 -0.4337  0.4419 -1.2943
   91MOL    H7627256   4.418   1.166   5.866  1.9454 -0.1290 -2.8049
   91MOL    C7727257   4.486   0.993   5.754  0.4825 -1.1439  0.1015
   91MOL    O7827258   4.616   1.046   5.731  0.5884  0.3552 -0.6724
   91MOL    C7927259   4.636   1.119   5.619  0.0238  0.1846  0.0809
   91MOL    O8027260   4.561   1.128   5.520 -0.0514 -0.0804 -0.6336
   91MOL    C8127261   4.775   1.185   5.627  0.2865 -0.4634 -0.3375
   91MOL    C8227262   4.791   1.290   5.739  0.2826  0.3307 -0.6285
   91MOL    C8327263   4.497   0.837   5.758  0.3519 -0.5515 -0.2883
   91MOL    H8427264   4.410   1.012   5.678  0.6168 -2.1461 -0.2977
   91MOL    H8527265   4.857   1.115   5.639 -0.2448 -1.0668 -0.2359
   91MOL    H8627266   4.789   1.232   5.529  0.9428  0.4296  0.1854
   91MOL    H8727267   4.738   1.268   5.832  2.2283 -1.6433  0.0643
   91MOL    H8827268   4.898   1.297   5.760 -0.0583  1.1108  0.9565
   91MOL    H8927269   4.750   1.384   5.701  0.2864  0.8453  0.6216
   91MOL    H9027270   4.574   0.813   5.830  1.9685  1.6663 -1.2146
   91MOL    H9127271   4.416   0.783   5.808  1.3148 -0.5489  1.2847
   91MOL    C9227272   4.525   0.775   5.622 -0.4961 -0.0955  0.0667
   91MOL    O9327273   4.481   0.851   5.511 -0.4363 -0.5029  0.1705
   91MOL    C9427274   4.359   0.835   5.462 -0.2573  0.0471  0.3119
   91MOL    O9527275   4.291   0.746   5.501  0.2645  0.0489 -0.4319
   91MOL    C9627276   4.320   0.941   5.356  0.0903  0.6683 -0.2579
   91MOL    C9727277   4.259   1.076   5.426 -0.0996 -0.4578 -0.1195
   91MOL    C9827278   4.677   0.747   5.611 -0.2003 -0.1634 -0.5859
   91MOL    H9927279   4.478   0.677   5.620 -1.1274  0.2165 -0.7247
   91MOL   H10027280   4.407   0.957   5.293  1.4096 -1.0404  1.1028
   91MOL   H10127281   4.245   0.890   5.294  0.1148 -1.2905  1.2745
   91MOL   H10227282   4.176   1.058   5.494 -0.1622 -1.1823 -0.3868
   91MOL   H10327283   4.336   1.147   5.456 -0.9086  0.4850 -0.2615
   91MOL   H10427284   4.215   1.133   5.344 -0.2673  0.0405  0.3169
   91MOL   H10527285   4.730   0.842   5.604 -0.9932  0.4139  0.9720
   91MOL   H10627286   4.717   0.695   5.697 -0.8540  0.9583  0.4132
   91MOL   C10727287   4.711   0.672   5.480  0.1242 -0.2279  0.0103
   91MOL   O10827288   4.853   0.639   5.484  0.0693  0.2921  0.7133
   91MOL   C10927289   4.952   0.731   5.458 -0.3043 -0.7498  0.3534
   91MOL   O11027290   4.930   0.848   5.421  0.0110 -0.1324 -0.0407
   91MOL   C11127291   5.092   0.673   5.460  0.7850  0.0535 -0.7230
   91MOL   C11227292   5.157   0.629   5.596  0.1524 -0.3832  0.9313
   91MOL   C11327293   4.635   0.544   5.440  0.6802  0.5089 -0.7547
   91MOL   H11427294   4.702   0.745   5.400  1.0624  1.2483  1.2456
   91MOL   H11527295   5.081   0.582   5.400 -1.6924  0.9754 -1.7352
   91MOL   H11627296   5.166   0.729   5.403  2.3662 -0.2249  1.0200
   91MOL   H11727297   5.261   0.599   5.581  0.7590  2.4144 -0.9553
   91MOL   H11827298   5.164   0.716   5.662 -1.5782  0.9593 -0.6247
   91MOL   H11927299   5.093   0.558   5.648  0.3539 -0.4085  1.1500
   91MOL   H12027300   4.535   0.581   5.416  0.8548  1.0838 -0.5838
   91MOL   H12127301   4.676   0.525   5.341  0.8149 -0.1745 -0.5754
   91MOL   C12227302   4.657   0.416   5.530 -0.0273  0.1084  0.1672
   91MOL   O12327303   4.538   0.393   5.602 -0.2578  0.5354  0.0448
   91MOL   C12427304   4.555   0.383   5.738  0.0557 -0.6942  0.5262
   91MOL   O12527305   4.661   0.365   5.794  0.2747 -0.4112  0.2774
   91MOL   C12627306   4.430   0.416   5.812 -0.3550 -0.2243  0.1336
   91MOL   C12727307   4.414   0.348   5.953  0.3748  0.2321  0.9568
   91MOL   C12827308   4.707   0.293   5.453 -0.3243  0.2842  0.5770
   91MOL   H12927309   4.737   0.451   5.594  0.3446  1.2835 -0.9104
   91MOL   H13027310   4.413   0.523   5.826  1.8971  0.1127  0.4987
   91MOL   H13127311   4.347   0.409   5.741  0.6328 -1.4494 -0.9136
   91MOL   H13227312   4.484   0.408   6.012  1.4773  0.7763 -0.8550
   91MOL   H13327313   4.314   0.359   5.995 -0.1291  1.6994 -0.5581
   91MOL   H13427314   4.459   0.251   5.972 -0.7890 -0.7255 -1.1047
   91MOL   H13527315   4.621   0.248   5.405 -0.0920  2.4813 -1.9589
   91MOL   H13627316   4.784   0.331   5.386  1.7485 -1.5635  1.7906
   91MOL   C13727317   4.773   0.175   5.539  0.5211  0.3379 -0.0819
   91MOL   O13827318   4.810   0.073   5.449  0.2207  0.2158 -0.0336
   91MOL   C13927319   4.719   7.921   5.427 -0.8896 -0.6236  0.5236
   91MOL   O14027320   4.606   7.920   5.479 -0.5599  0.1349  0.0652
   91MOL   C14127321   4.747   7.813   5.326  0.5304  0.3995 -0.0624
   91MOL   C14227322   4.625   7.800   5.226  0.0541 -1.0564  0.0578
   91MOL   C14327323   4.904   0.216   5.605 -0.4516  0.1093 -0.6415
   91MOL   H14427324   4.708   0.144   5.620  0.3013  2.6914  0.7012
   91MOL   H14527325   4.827   7.860   5.268  1.9381 -1.6956  0.1439
   91MOL   H14627326   4.784   7.719   5.366 -2.8569 -0.1148  1.9811
   91MOL   H14727327   4.653   7.744   5.137 -2.3369 -0.3101 -1.1815
   91MOL   H14827328   4.540   7.750   5.272  0.3430  0.8194  2.7450
   91MOL   H14927329   4.588   7.896   5.192 -0.3445 -1.0370  0.5375
   91MOL   H15027330   4.976   0.232   5.525 -1.3552 -2.5757 -2.0488
   91MOL   H15127331   4.889   0.317   5.642  1.1888  0.7316 -1.6013
   91MOL   C15227332   4.962   0.112   5.699  0.2487 -0.0746 -0.4715
   91MOL   O15327333   5.033   0.011   5.623 -0.1650  0.5429 -0.2994
   91MOL   C15427334   5.008   7.827   5.645  0.5234  0.1218  0.2793
   91MOL   O15527335   4.972   7.781   5.751 -0.0120 -0.6033 -0.0900
   91MOL   C15627336   5.026   7.740   5.522  0.1108 -0.9536 -0.5583
   91MOL   C15727337   5.171   7.703   5.510  0.9238  0.0674  0.8383
   91MOL   C15827338   5.068   0.159   5.795 -0.2675 -0.0518 -0.1525
   91MOL   H15927339   4.881   0.073   5.762 -0.0736 -0.5406 -1.1593
   91MOL   H16027340   4.979   7.645   5.548 -1.5432 -0.3782 -1.3323
   91MOL   H16127341   4.985   7.779   5.428 -0.5147  1.2620  0.6003
   91MOL   H16227342   5.222   7.779   5.451 -0.1878  1.4346  1.5981
   91MOL   H16327343   5.225   7.716   5.604  0.8402 -0.1070  0.9112
   91MOL   H16427344   5.187   7.605   5.465 -0.1809  0.2463  0.0544
   91MOL   H16527345   5.142   0.082   5.819 -0.4636 -0.0919  0.3386
   91MOL   H16627346   5.128   0.225   5.732  1.0122 -0.8079  0.2480
   91MOL   C16727347   5.017   0.243   5.923 -1.0584 -0.4733 -0.1416
   91MOL   O16827348   4.955   0.360   5.871 -0.3071  0.3559  0.0467
   91MOL   C16927349   4.987   0.485   5.913 -0.2136 -0.4248 -0.0535
   91MOL   O17027350   5.084   0.515   5.981  0.0634 -0.3262 -0.1888
   91MOL   C17127351   4.885   0.593   5.880  0.3555 -0.1095  0.2271
   91MOL   C17227352   4.934   0.738   5.918 -0.3219 -0.6935  0.5490
   91MOL   C17327353   4.921   0.181   6.022 -0.2226  0.2596 -0.0158
   91MOL   H17427354   5.102   0.282   5.979 -0.7246 -1.0903 -0.2236
   91MOL   H17527355   4.884   0.593   5.771 -0.4388  0.1611  0.2318
   91MOL   H17627356   4.782   0.576   5.911  0.2133 -3.5434 -1.8962
   91MOL   H17727357   4.904   0.810   5.842  0.6354 -0.2367  0.5990
   91MOL   H17827358   4.899   0.778   6.013  0.7743 -2.2213  1.6290
   91MOL   H17927359   5.043   0.747   5.913 -0.4874  0.6141 -1.2805
   91MOL   H18027360   4.918   0.245   6.110 -0.3445  0.2460 -0.0099
   91MOL   H18127361   4.829   0.181   5.963 -0.1092 -1.2592 -0.2300
   91MOL   C18227362   4.951   0.032   6.061 -0.6430 -0.4446  0.1891
   91MOL   O18327363   5.052   0.032   6.159  0.1953  0.1355 -0.4307
   91MOL   C18427364   5.171   7.919   6.131  0.2655  0.1648  0.8470
   91MOL   O18527365   5.200   7.840   6.038 -0.0953  0.1184  0.4438
   91MOL   C18627366   5.283   0.010   6.225  0.0228 -0.9088  0.6855
   91MOL   C18727367   5.350   0.142   6.192 -0.2440 -0.4610  1.0276
   91MOL   C18827368   4.824   7.919   6.123  0.8226 -0.4872 -0.3483
   91MOL   H18927369   4.977   7.925   5.969 -0.6082 -0.0446 -0.0265
   91MOL   H19027370   5.243   0.020   6.327  0.1207 -1.1908  0.7490
   91MOL   H19127371   5.349   7.869   6.226  2.3323  0.7853 -0.7108
   91MOL   H19227372   5.406   0.148   6.098  1.6743 -0.9642  2.1003
   91MOL   H19327373   5.274   0.219   6.182  0.7791  0.6360  1.5485
   91MOL   H19427374   5.423   0.162   6.271  1.6172  0.7632 -0.9372
   91MOL   H19527375   4.805   0.035   6.211  2.0752  0.8202 -0.9654
   91MOL   H19627376   4.741   0.007   6.061 -0.9193 -1.4307  1.4158
   91MOL   C19727377   4.824   7.768   6.154 -0.3707 -0.5526  0.0055
   91MOL   O19827378   4.688   7.734   6.192  0.0714  0.0370 -0.2506
   91MOL   C19927379   4.656   7.683   6.316 -0.5505 -0.3022  0.1783
   91MOL   O20027380   4.742   7.664   6.406  0.2022  0.2167  0.1070
   91MOL   C20127381   4.509   7.647   6.327 -0.2328  0.5564 -0.1024
   91MOL   C20227382   4.487   7.519   6.412 -0.2047  0.3558 -0.4243
   91MOL   C20327383   4.854   7.680   6.029 -0.3157 -0.8381  0.1499
   91MOL   H20427384   4.898   7.754   6.233 -0.2027 -0.3664 -0.1164
   91MOL   H20527385   4.449   7.733   6.356 -0.5834  0.5389 -0.7557
   91MOL   H20627386   4.498   7.614   6.224  2.3053  1.1809 -0.6100
   91MOL   H20727387   4.502   7.538   6.518  2.2227 -1.2165 -0.4376
   91MOL   H20827388   4.386   7.481   6.392  0.9627 -1.5269 -3.0865
   91MOL   H20927389   4.549   7.435   6.380 -2.7945 -0.8940 -2.3734
   91MOL   H21027390   4.786   7.701   5.946 -0.3515 -2.8050 -0.3407
   91MOL   H21127391   4.956   7.697   5.994 -0.4049 -1.0788 -0.2305
   91MOL   C21227392   4.850   7.529   6.056  0.0598  0.2568  0.8647
   91MOL   O21327393   4.829   7.445   5.933  0.0252 -0.3660 -0.1095
   91MOL   C21427394   4.715   7.442   5.875 -0.5805  0.2145  0.5847
   91MOL   O21527395   4.615   7.500   5.909  0.4404 -0.1260 -0.6874
   91MOL   C21627396   4.715   7.358   5.745 -0.2825  0.0086  0.7462
   91MOL   C21727397   4.794   7.421   5.627  0.1002  0.6116 -0.0247
   91MOL   C21827398   4.964   7.471   6.142  0.5403  0.4182 -0.3200
   91MOL   H21927399   4.755   7.513   6.107 -0.6893 -0.8025 -0.7994
   91MOL   H22027400   4.752   7.259   5.774  1.4470  0.3391 -0.3101
   91MOL   H22127401   4.611   7.345   5.715  0.0715  1.4122 -1.1584
   91MOL   H22227402   4.883   7.472   5.663 -1.2557  1.0841  2.8735
   91MOL   H22327403   4.831   7.345   5.559  1.4501  0.8616  0.4254
   91MOL   H22427404   4.731   7.494   5.576 -1.5791 -1.4162 -0.9705
   91MOL   H22527405   4.964   7.521   6.239  1.3059  1.3910 -0.8114
   91MOL   H22627406   4.938   7.366   6.156  1.8395  0.0922 -0.3226
   91MOL   C22727407   5.104   7.492   6.079 -0.0999  0.5459  0.4463
   91MOL   O22827408   5.197   7.427   6.169 -0.6288 -0.2961 -1.0587
   91MOL   C22927409   5.259   7.503   6.257  0.8291 -0.3819  0.2054
   91MOL   O23027410   5.254   7.623   6.257 -1.0355  0.0639 -0.3840
   91MOL   C23127411   5.352   7.437   6.357 -0.1064 -0.0345 -0.0294
   91MOL   C23227412   5.459   7.338   6.297 -0.1540  0.2542  0.3337
   91MOL   C23327413   5.131   7.441   5.941  0.4742  0.0650 -0.3237
   91MOL   H23427414   5.127   7.598   6.074  0.6348  0.3188 -1.6432
   91MOL   H23527415   5.411   7.513   6.408  0.6033 -0.6293  0.0512
   91MOL   H23627416   5.292   7.399   6.439 -0.0714  1.9140  0.9201
   91MOL   H23727417   5.527   7.307   6.376  0.3145 -0.4607 -0.3481
   91MOL   H23827418   5.409   7.248   6.262 -0.7049  0.7650 -0.2048
   91MOL   H23927419   5.511   7.377   6.210  0.1277  0.1448  0.4522
   91MOL   H24027420   5.098   7.339   5.922 -0.9355  0.6139 -0.8789
   91MOL   H24127421   5.082   7.508   5.871  1.7594 -1.1906 -2.4738
   91MOL   C24227422   5.272   7.445   5.870  0.1923 -0.4214  0.9733
   91MOL   O24327423   5.265   7.422   5.731  0.0248  0.5947 -0.0855
   91MOL   C24427424   5.275   7.311   5.672  0.4630 -0.2001 -0.2556
   91MOL   O24527425   5.293   7.204   5.722 -0.1818 -0.1659 -0.3271
   91MOL   C24627426   5.262   7.326   5.521 -0.2618 -0.5871  0.4645
   91MOL   C24727427   5.124   7.348   5.472  0.3525 -0.5128 -0.6523
   91MOL   C24827428   5.350   7.579   5.892  0.3613 -0.6237 -0.0210
   91MOL   H24927429   5.335   7.370   5.918  1.6341  0.3308  0.3129
   91MOL   H25027430   5.327   7.406   5.486 -1.9949  1.2075  1.2493
   91MOL   H25127431   5.307   7.234   5.481  1.0005  0.0444  0.4017
   91MOL   H25227432   5.133   7.359   5.364 -0.6933 -1.6802 -0.8803
   91MOL   H25327433   5.056   7.263   5.482  0.3426 -0.2058  2.2190
   91MOL   H25427434   5.076   7.436   5.515  2.1243 -0.6501  1.6893
   91MOL   H25527435   5.297   7.667   5.855  0.5464 -0.9827 -1.1490
   91MOL   H25627436   5.352   7.582   6.001  3.9769  0.1317 -0.0265
   91MOL   C25727437   5.502   7.581   5.855  0.2449 -0.8785 -0.2495
   91MOL   O25827438   5.496   7.600   5.714  0.3620  0.4805  0.4098
   91MOL   C25927439   5.589   7.526   5.640  0.0303  0.7563 -0.5732
   91MOL   O26027440   5.676   7.452   5.682  0.1333  0.0834  0.4509
   91MOL   C26127441   5.578   7.562   5.488  0.0034 -0.4267 -0.3369
   91MOL   C26227442   5.709   7.613   5.424  0.0657  0.1029 -0.0098
   91MOL   C26327443   5.563   7.714   5.922  0.1580  0.0055  0.5556
   91MOL   H26427444   5.540   7.493   5.908  1.2656 -0.8154 -0.8612
   91MOL   H26527445   5.555   7.467   5.441 -2.6265  1.0038 -2.0215
   91MOL   H26627446   5.493   7.630   5.484  1.0807  1.0745  0.9567
   91MOL   H26727447   5.685   7.630   5.319  1.2276 -2.5082 -0.7271
   91MOL   H26827448   5.747   7.709   5.459  0.7543 -0.6996  1.4797
   91MOL   H26927449   5.795   7.547   5.410  1.4559  2.1822 -1.6235
   91MOL   H27027450   5.562   7.793   5.848 -1.2295 -0.5756 -0.0733
   91MOL   H27127451   5.492   7.765   5.987 -1.1185 -1.6955  0.5490
   91MOL   C27227452   5.698   7.698   6.002 -0.3413 -0.2285 -0.0856
   91MOL   O27327453   5.684   7.616   6.118 -0.2968  0.1195  0.8978
   91MOL   C27427454   5.693   7.672   6.242 -0.3042 -0.7241  0.3876
   91MOL   O27527455   5.687   7.794   6.266 -0.1267  0.5730 -0.2232
   91MOL   C27627456   5.727   7.577   6.354  0.5207  0.8661  0.4232
   91MOL   C27727457   5.792   7.651   6.471 -0.3917  0.0708 -0.6338
   91MOL   C27827458   5.815   7.645   5.912 -1.0611 -0.2291 -0.0085
   91MOL   H27927459   5.719   7.800   6.035  1.2321  0.0915 -1.9783
   91MOL   H28027460   5.631   7.542   6.391 -0.7211  1.9715 -1.6932
   91MOL   H28127461   5.781   7.494   6.308  1.0487  2.3140 -1.5931
   91MOL   H28227462   5.890   7.692   6.447  0.4424 -0.6588  1.4136
   91MOL   H28327463   5.727   7.733   6.502 -0.9427 -0.2799 -0.8378
   91MOL   H28427464   5.800   7.600   6.568 -0.0958  1.5222  0.1129
   91MOL   H28527465   5.905   7.633   5.973 -1.0627  0.8759  0.2076
   91MOL   H28627466   5.780   7.550   5.871 -1.0002  0.0168 -0.6363
   91MOL   C28727467   5.844   7.737   5.792  0.3098  0.3039 -0.7090
   91MOL   O28827468   5.873   7.868   5.847  0.3552 -0.4947  0.3451
   91MOL   C28927469   5.796   0.033   5.818 -0.0487  0.4476 -0.7529
   91MOL   O29027470   5.686   0.027   5.762 -0.1287 -0.1324 -0.2271
   91MOL   C29127471   5.858   0.165   5.867 -0.1168  0.9155  0.2324
   91MOL   C29227472   5.861   0.175   6.018  0.0478 -0.6440 -0.2411
   91MOL   C29327473   5.951   7.668   5.709  0.1518 -0.0305  0.0802
   91MOL   H29427474   5.757   7.744   5.726  0.1738  2.8838 -0.3148
   91MOL   H29527475   5.959   0.179   5.826  0.5938 -1.4699  1.0804
   91MOL   H29627476   5.802   0.248   5.823 -1.0753 -0.8138 -1.8561
   91MOL   H29727477   5.865   0.283   6.032 -0.7985 -0.5171 -0.9764
   91MOL   H29827478   5.774   0.132   6.068  0.6658 -1.5439  0.0658
   91MOL   H29927479   5.952   0.120   6.043  0.3542  0.5671  1.4128
   91MOL   H30027480   5.983   7.730   5.625 -2.5812  1.1787 -0.1504
   91MOL   H30127481   6.039   7.661   5.772  0.9379  0.6092 -0.9358
   91MOL   H30227482   5.928   7.576   5.655 -1.0904  0.3833 -0.1352
   92MOL     C127483   0.190   2.515   2.070 -0.1793  0.2177  0.1328
   92MOL     O227484   0.181   2.508   2.213  0.3874 -0.0689  0.0447
   92MOL     C327485   0.271   2.565   2.289  0.0045  0.1300  0.2470
   92MOL     O427486   0.381   2.601   2.246 -0.5195 -0.0769 -0.3776
   92MOL     C527487   0.227   2.581   2.436 -0.1570  0.3827  0.5441
   92MOL     C627488   0.215   2.450   2.511 -0.7975  0.3865 -0.4928
   92MOL     C727489   0.077   2.445   1.995  0.5390 -0.1633 -0.8091
   92MOL     H827490   0.280   2.467   2.031 -1.7086 -0.9059 -2.1581
   92MOL     H927491   0.305   2.640   2.483  0.4809  0.5483 -0.7048
   92MOL    H1027492   0.139   2.643   2.453 -0.7753 -0.1751 -0.5654
   92MOL    H1127493   0.253   2.368   2.449 -1.9288  1.0017 -2.0472
   92MOL    H1227494   0.269   2.437   2.605  0.1024 -0.2720 -1.0944
   92MOL    H1327495   0.108   2.436   2.527 -0.3007 -0.5922  2.3571
   92MOL    H1427496   0.083   2.338   2.017 -0.5985  0.0352  0.4803
   92MOL    H1527497   7.922   2.471   2.028  0.4306 -0.3038 -1.0241
   92MOL    H1627498   0.181   2.616   2.031  1.1201 -0.3595 -1.7613
   92MOL    C1727499   0.084   2.452   1.835  0.8675  0.5651 -0.8820
   92MOL    O1827500   0.004   2.341   1.781  0.0182 -0.6601  0.3197
   92MOL    C1927501   0.074   2.226   1.751  0.0917  0.1585 -0.3352
   92MOL    O2027502   0.195   2.212   1.781 -0.6824 -0.1949  0.3040
   92MOL    C2127503   7.926   2.123   1.694  0.1436  0.4591  0.3913
   92MOL    C2227504   0.056   1.997   1.663  0.1845  0.4171 -0.6774
   92MOL    C2327505   0.034   2.585   1.786  0.0850 -0.5490 -0.1025
   92MOL    H2427506   0.190   2.441   1.808  0.3823  0.5321 -2.8865
   92MOL    H2527507   7.845   2.100   1.764 -0.8010  1.7080 -0.2666
   92MOL    H2627508   7.868   2.164   1.611  0.8161  3.5588  1.4210
   92MOL    H2727509   0.088   1.938   1.749  0.4076 -0.4490 -1.3395
   92MOL    H2827510   7.941   1.937   1.594  1.4909  1.5324 -2.8333
   92MOL    H2927511   0.151   2.013   1.613  0.4768 -0.6155 -0.4772
   92MOL    H3027512   7.871   2.571   1.783 -0.2684  2.0809 -0.9566
   92MOL    H3127513   0.066   2.668   1.850  0.2801 -1.3326  0.8295
   92MOL    C3227514   0.087   2.618   1.638  0.2145  0.0220  0.0540
   92MOL    O3327515   7.942   2.715   1.584 -0.0209  0.1944  0.5423
   92MOL    C3427516   7.883   2.696   1.472 -0.4501  0.3070  0.0597
   92MOL    O3527517   7.896   2.603   1.393 -0.2452 -0.4299  0.1377
   92MOL    C3627518   7.787   2.808   1.442 -0.0941 -0.3908  0.3054
   92MOL    C3727519   7.808   2.886   1.308  0.1873  0.2223  0.4596
   92MOL    C3827520   0.235   2.665   1.640 -0.0067 -0.3505 -0.0112
   92MOL    H3927521   0.091   2.530   1.573  0.4439  0.9332 -1.1995
   92MOL    H4027522   7.689   2.763   1.424 -1.1422  2.3230 -0.9197
   92MOL    H4127523   7.782   2.875   1.527  1.3247  2.5184 -1.8458
   92MOL    H4227524   7.835   2.809   1.235  1.1518  0.5890  0.4181
   92MOL    H4327525   7.719   2.932   1.267  0.9464  0.2711 -1.1671
   92MOL    H4427526   7.885   2.960   1.330 -0.1588  0.9887 -0.9154
   92MOL    H4527527   0.244   2.772   1.661 -0.5164  0.1261 -2.1001
   92MOL    H4627528   0.295   2.624   1.721 -0.5420 -1.3640 -0.1266
   92MOL    C4727529   0.307   2.641   1.502 -0.6141 -0.4670 -0.0508
   92MOL    O4827530   0.393   2.750   1.468 -0.0949 -0.1778  0.3765
   92MOL    C4927531   0.340   2.865   1.420  0.3975 -0.4398 -0.2031
   92MOL    O5027532   0.224   2.894   1.403  0.7230  0.1131  0.3219
   92MOL    C5127533   0.451   2.964   1.376  0.0928  0.3144  0.1531
   92MOL    C5227534   0.530   2.914   1.259  0.3084  0.5281  0.1248
   92MOL    C5327535   0.394   2.521   1.501 -0.3568  0.1001  0.2957
   92MOL    H5427536   0.234   2.637   1.422 -0.9104  0.1520  0.1826
   92MOL    H5527537   0.401   3.055   1.345 -0.1260  0.4874  1.0241
   92MOL    H5627538   0.521   2.979   1.458 -1.3584 -2.3736  1.9763
   92MOL    H5727539   0.547   2.807   1.264 -0.1608  0.3868 -1.1143
   92MOL    H5827540   0.484   2.930   1.161 -0.9669  2.3820  0.9938
   92MOL    H5927541   0.627   2.964   1.257  0.8020 -0.4051  0.5433
   92MOL    H6027542   0.459   2.535   1.415 -0.0885  0.9028  0.6165
   92MOL    H6127543   0.462   2.532   1.586  0.0968 -1.5681  0.1570
   92MOL    C6227544   0.316   2.384   1.493  0.6846 -0.2863  0.1759
   92MOL    O6327545   0.268   2.380   1.359 -0.0225  0.0879 -0.1975
   92MOL    C6427546   0.146   2.322   1.327 -0.4050 -0.2486 -0.3441
   92MOL    O6527547   0.070   2.276   1.407 -0.5852  0.2298  0.7151
   92MOL    C6627548   0.109   2.328   1.182  0.4341 -0.9494  0.5487
   92MOL    C6727549   0.170   2.202   1.100 -0.2742  0.0550 -0.0656
   92MOL    C6827550   0.405   2.261   1.526  0.0862 -0.1304 -0.1257
   92MOL    H6927551   0.243   2.392   1.573  0.8425 -0.0420  0.2974
   92MOL    H7027552   0.000   2.324   1.179  0.3926  0.2360  0.0709
   92MOL    H7127553   0.139   2.429   1.154  0.6317 -0.6413  1.8599
   92MOL    H7227554   0.128   2.112   1.144 -1.7116  0.2454 -1.0161
   92MOL    H7327555   0.133   2.197   0.998  1.7128 -0.9223 -0.7585
   92MOL    H7427556   0.277   2.204   1.124  0.2794  2.6585 -2.4379
   92MOL    H7527557   0.462   2.277   1.617  0.3391 -0.0876 -0.2919
   92MOL    H7627558   0.342   2.176   1.552 -0.9216  0.8472  0.6867
   92MOL    C7727559   0.508   2.225   1.419 -0.0977  0.2889 -0.3882
   92MOL    O7827560   0.608   2.336   1.414 -0.2499 -0.2149 -0.0058
   92MOL    C7927561   0.665   2.372   1.300 -0.3826  0.6946  1.0459
   92MOL    O8027562   0.658   2.306   1.193 -0.2194 -0.1244 -0.1946
   92MOL    C8127563   0.751   2.498   1.310 -0.2521  0.3696 -0.0065
   92MOL    C8227564   0.882   2.460   1.373 -0.4315 -0.5460 -0.3712
   92MOL    C8327565   0.602   2.101   1.436  0.1124 -0.1069 -0.1405
   92MOL    H8427566   0.444   2.219   1.330 -0.3278  1.8972 -0.3573
   92MOL    H8527567   0.767   2.547   1.214 -0.0982  1.4047  0.5439
   92MOL    H8627568   0.703   2.567   1.379 -0.4772  0.1759  0.0310
   92MOL    H8727569   0.878   2.407   1.468  1.5885 -1.2958 -0.6858
   92MOL    H8827570   0.954   2.416   1.304  0.4013  0.8697 -0.4260
   92MOL    H8927571   0.934   2.550   1.407 -1.1578 -0.5197  0.7052
   92MOL    H9027572   0.674   2.086   1.356 -1.5944 -2.6710 -1.2623
   92MOL    H9127573   0.662   2.116   1.526 -0.7970  0.3464  0.3909
   92MOL    C9227574   0.519   1.967   1.445 -0.4121 -0.4363  0.3996
   92MOL    O9327575   0.507   1.946   1.306  0.1901  0.2413  0.3198
   92MOL    C9427576   0.397   1.888   1.251  1.0520 -0.0259 -0.4407
   92MOL    O9527577   0.297   1.853   1.308 -0.1649 -0.0448 -0.0463
   92MOL    C9627578   0.426   1.855   1.102  0.4542  0.0071  0.3931
   92MOL    C9727579   0.490   1.719   1.073  0.4973 -0.7153  0.1794
   92MOL    C9827580   0.595   1.858   1.515 -0.3214 -0.3341  0.3607
   92MOL    H9927581   0.420   1.976   1.489 -1.6452 -4.1361 -1.3958
   92MOL   H10027582   0.332   1.845   1.047  1.1878  1.2633 -1.1045
   92MOL   H10127583   0.481   1.931   1.047 -0.5744  0.6440  0.2313
   92MOL   H10227584   0.593   1.723   1.107 -0.1227  0.7626  2.0558
   92MOL   H10327585   0.432   1.642   1.124 -2.5371  2.2586  1.4905
   92MOL   H10427586   0.488   1.696   0.967  0.7725  2.9402 -0.7075
   92MOL   H10527587   0.692   1.845   1.466 -0.1533  0.5098  0.4517
   92MOL   H10627588   0.627   1.895   1.613  0.1155 -0.3660  0.2328
   92MOL   C10727589   0.528   1.720   1.534  0.3889 -0.0902 -0.1017
   92MOL   O10827590   0.623   1.616   1.532  0.3982  1.6027 -0.0863
   92MOL   C10927591   0.630   1.549   1.414  0.3678 -0.7181 -0.0483
   92MOL   O11027592   0.573   1.586   1.313  0.0990  0.3479  0.5919
   92MOL   C11127593   0.712   1.424   1.425 -0.1844 -0.1274 -0.3449
   92MOL   C11227594   0.672   1.336   1.545  0.1532 -0.1521  0.2224
   92MOL   C11327595   0.457   1.701   1.672 -0.4278  0.3133  0.6003
   92MOL   H11427596   0.452   1.707   1.457 -0.0340  0.8300  0.1497
   92MOL   H11527597   0.707   1.371   1.330  1.7019 -1.6624  0.3904
   92MOL   H11627598   0.816   1.457   1.432  0.0208 -0.8434 -0.0442
   92MOL   H11727599   0.683   1.381   1.644 -0.3417 -0.8076  0.5829
   92MOL   H11827600   0.569   1.303   1.532  0.2615  0.4110 -2.2274
   92MOL   H11927601   0.724   1.240   1.542 -0.7757 -0.6230 -0.9572
   92MOL   H12027602   0.538   1.680   1.742 -0.1482  1.7609  0.7357
   92MOL   H12127603   0.402   1.791   1.701 -0.4674  1.1664 -1.9771
   92MOL   C12227604   0.350   1.584   1.668 -0.1782  0.1090 -0.4039
   92MOL   O12327605   0.349   1.521   1.792  0.3222 -0.0431  0.3393
   92MOL   C12427606   0.332   1.390   1.805  0.5797  0.4979 -0.2432
   92MOL   O12527607   0.322   1.322   1.707 -0.5552 -0.2455 -0.0983
   92MOL   C12627608   0.319   1.344   1.952 -0.1848 -0.7109 -0.5752
   92MOL   C12727609   0.457   1.313   2.023  0.1568 -0.2219  0.1490
   92MOL   C12827610   0.213   1.631   1.614  0.1008  0.7537 -0.0894
   92MOL   H12927611   0.400   1.521   1.595  0.7694 -0.1757  0.4860
   92MOL   H13027612   0.266   1.424   2.005 -0.3771 -0.6545 -0.8514
   92MOL   H13127613   0.250   1.260   1.965 -0.1413 -0.4062  1.8542
   92MOL   H13227614   0.498   1.413   2.034  0.3832 -0.3483  0.4466
   92MOL   H13327615   0.440   1.265   2.119 -0.5183 -2.0790 -0.8642
   92MOL   H13427616   0.524   1.263   1.954  0.2927 -0.1328  0.2166
   92MOL   H13527617   0.136   1.581   1.673 -0.1149  4.4474  2.9119
   92MOL   H13627618   0.190   1.736   1.631 -0.4568  0.7319 -0.7322
   92MOL   C13727619   0.176   1.585   1.473  0.7948  0.3564  0.9990
   92MOL   O13827620   0.152   1.448   1.476 -0.3827 -0.2092 -1.3965
   92MOL   C13927621   0.229   1.374   1.395  0.0004  0.5429  0.2051
   92MOL   O14027622   0.318   1.401   1.314  0.3042 -0.3979 -0.5282
   92MOL   C14127623   0.187   1.230   1.396 -0.9148 -0.1595  0.3025
   92MOL   C14227624   0.062   1.205   1.310  0.5595  0.3109 -0.3164
   92MOL   C14327625   0.046   1.646   1.415  0.5625 -1.1283  0.1196
   92MOL   H14427626   0.254   1.620   1.404 -0.7212  0.7472 -0.5667
   92MOL   H14527627   0.273   1.173   1.363  0.7555  2.2420  0.4055
   92MOL   H14627628   0.164   1.206   1.500 -2.9976 -0.9883 -0.3347
   92MOL   H14727629   7.915   1.258   1.334  0.6206 -0.8245  2.5813
   92MOL   H14827630   0.082   1.225   1.204  0.4817  2.1419 -0.0083
   92MOL   H14927631   0.032   1.104   1.336  2.4344 -0.1117  0.2878
   92MOL   H15027632   7.913   1.613   1.485  0.7277  2.7171  2.2257
   92MOL   H15127633   0.050   1.754   1.427 -1.2229 -1.1815  1.4376
   92MOL   C15227634   0.004   1.600   1.277 -0.2094 -0.6264  0.3202
   92MOL   O15327635   7.809   1.626   1.253  0.1634 -0.1758 -0.6488
   92MOL   C15427636   7.709   1.531   1.233 -0.0232  0.0705 -0.7795
   92MOL   O15527637   7.720   1.410   1.255 -0.3705  0.2553  0.1141
   92MOL   C15627638   7.583   1.597   1.175  0.1659 -0.6889  0.1193
   92MOL   C15727639   7.582   1.615   1.019 -0.4161 -0.3235 -0.5973
   92MOL   C15827640   0.088   1.671   1.167  0.0011  0.6897  0.2791
   92MOL   H15927641   0.033   1.496   1.267  0.5850 -0.4541  0.7072
   92MOL   H16027642   7.504   1.535   1.219 -0.1548 -0.0629  0.4220
   92MOL   H16127643   7.571   1.697   1.216 -2.4195 -0.5542 -0.8724
   92MOL   H16227644   7.584   1.524   0.959 -0.8293  0.0902 -1.2565
   92MOL   H16327645   7.496   1.678   0.997  0.7867  2.2871  1.8369
   92MOL   H16427646   7.663   1.674   0.976 -0.3323 -2.1588 -3.0826
   92MOL   H16527647   0.082   1.779   1.180  1.4742  0.7963  0.1783
   92MOL   H16627648   0.191   1.637   1.172  0.6700  2.3885 -1.3266
   92MOL   C16727649   0.061   1.640   1.016 -0.7149  0.0520  0.2405
   92MOL   O16827650   0.134   1.727   0.929 -0.7698  0.6312  0.5145
   92MOL   C16927651   0.071   1.810   0.840  0.1325  0.6697  0.7488
   92MOL   O17027652   7.893   1.823   0.825 -0.3206 -0.1674 -0.5805
   92MOL   C17127653   0.169   1.901   0.766  0.0273 -0.4288 -0.0045
   92MOL   C17227654   0.237   1.823   0.652  0.2708 -0.1821 -0.3740
   92MOL   C17327655   0.098   1.492   0.988  1.3806  0.3066 -0.2095
   92MOL   H17427656   7.899   1.659   1.006 -0.9419 -1.1674  0.2576
   92MOL   H17527657   0.117   1.987   0.724 -0.6341 -1.2090 -0.8194
   92MOL   H17627658   0.236   1.938   0.844 -2.0414 -0.7821  2.0058
   92MOL   H17727659   0.166   1.765   0.593  0.9463 -1.6771  0.2839
   92MOL   H17827660   0.283   1.894   0.583 -0.3807 -0.9863 -1.6661
   92MOL   H17927661   0.316   1.758   0.689  0.0303 -0.6119 -0.6125
   92MOL   H18027662   0.199   1.474   1.023  1.0712 -0.8444  0.1077
   92MOL   H18127663   0.038   1.423   1.047 -1.3001  1.7778 -1.0999
   92MOL   C18227664   0.082   1.438   0.847  0.0995  0.0951 -0.1611
   92MOL   O18327665   0.154   1.314   0.830  0.1065 -0.0187  0.0734
   92MOL   C18427666   0.236   1.289   0.722  0.0574 -0.5685 -0.1106
   92MOL   O18527667   0.229   1.347   0.621 -0.0580  0.6766  0.5022
   92MOL   C18627668   0.332   1.177   0.746  0.3982 -0.5053 -0.0312
   92MOL   C18727669   0.254   1.044   0.760 -0.0968 -0.2419  0.1790
   92MOL   C18827670   7.884   1.431   0.805 -0.1706 -0.3161  0.0720
   92MOL   H18927671   0.126   1.507   0.775 -2.5459  1.5740 -0.4375
   92MOL   H19027672   0.394   1.177   0.656  1.0643  0.8046  0.4039
   92MOL   H19127673   0.398   1.194   0.831 -0.1761 -0.2640  0.3724
   92MOL   H19227674   0.316   0.963   0.798  0.4662 -0.1085 -0.4551
   92MOL   H19327675   0.169   1.065   0.825 -0.2633  0.0839 -0.1398
   92MOL   H19427676   0.220   1.012   0.661  0.4711  0.2411 -0.1764
   92MOL   H19527677   7.849   1.350   0.869 -1.4330  0.6733  0.6483
   92MOL   H19627678   7.845   1.524   0.847  2.1737 -0.1097  1.8942
   92MOL   C19727679   7.840   1.419   0.661 -0.3159 -0.0612  0.4967
   92MOL   O19827680   7.699   1.402   0.671 -0.1224  0.0249 -0.1095
   92MOL   C19927681   7.628   1.284   0.652 -0.8610  0.2732  0.2992
   92MOL   O20027682   7.665   1.179   0.598 -0.1148  1.2603  0.5971
   92MOL   C20127683   7.484   1.312   0.684 -0.3430 -0.2613 -0.2373
   92MOL   C20227684   7.402   1.375   0.572 -0.4403 -0.6420 -0.2494
   92MOL   C20327685   7.881   1.547   0.583 -0.4212 -0.0957  0.8699
   92MOL   H20427686   7.885   1.330   0.617  0.4244  0.4531  0.2047
   92MOL   H20527687   7.435   1.225   0.727  2.1271 -1.6380 -0.1740
   92MOL   H20627688   7.488   1.388   0.762 -0.9745  0.0311 -0.4797
   92MOL   H20727689   7.443   1.468   0.535 -1.0345 -0.5287 -0.6326
   92MOL   H20827690   7.384   1.309   0.487 -0.2397  2.4491 -2.7727
   92MOL   H20927691   7.306   1.414   0.608  0.9802  1.0271  1.8501
   92MOL   H21027692   7.835   1.632   0.633  0.5378  0.0021  1.5939
   92MOL   H21127693   0.043   1.560   0.599  0.1063 -0.7410 -1.8710
   92MOL   C21227694   7.873   1.533   0.428 -0.4014  0.4550 -0.4850
   92MOL   O21327695   7.939   1.413   0.390 -0.1425 -0.7233 -0.6461
   92MOL   C21427696   0.106   1.403   0.330  0.0772  0.0250  0.3838
   92MOL   O21527697   0.164   1.498   0.291  0.1417 -0.0333 -0.5246
   92MOL   C21627698   0.156   1.262   0.302 -0.2078 -0.5060  0.5983
   92MOL   C21727699   0.068   1.150   0.364 -0.4289  0.1153 -0.8150
   92MOL   C21827700   7.733   1.534   0.370 -0.1012  0.2902  0.1644
   92MOL   H21927701   7.924   1.622   0.390 -0.3138  0.3375 -0.6460
   92MOL   H22027702   0.160   1.248   0.194  0.6229 -0.4175  0.6210
   92MOL   H22127703   0.256   1.255   0.344  1.1975 -1.6386 -2.7907
   92MOL   H22227704   0.107   1.134   0.465  0.0698  0.9347 -0.8732
   92MOL   H22327705   7.909   1.182   0.358 -0.4530 -0.0209 -1.0852
   92MOL   H22427706   0.087   1.060   0.307 -0.3809  0.4474 -1.3243
   92MOL   H22527707   7.680   1.442   0.395 -1.6932  1.5841  1.6622
   92MOL   H22627708   7.678   1.611   0.425 -2.3592 -1.6301  0.6504
   92MOL   C22727709   7.712   1.565   0.219  0.3630 -0.2432  0.3756
   92MOL   O22827710   7.762   1.459   0.137  0.2402 -0.2671  0.1416
   92MOL   C22927711   7.830   1.480   0.019 -0.8880  0.4488  0.0828
   92MOL   O23027712   7.857   1.587   7.914 -0.1903  0.0679 -0.2267
   92MOL   C23127713   7.880   1.349   7.908  0.6074 -0.1799  0.0380
   92MOL   C23227714   0.016   1.374   7.772  0.4743  0.7026  0.4419
   92MOL   C23327715   7.563   1.583   0.187  0.0161 -0.3634  0.4435
   92MOL   H23427716   7.766   1.658   0.201  0.1488 -0.4119 -1.2275
   92MOL   H23527717   0.000   1.307   0.040  3.0553  0.7476 -1.4867
   92MOL   H23627718   7.793   1.287   7.884  0.6597 -0.1676 -0.1937
   92MOL   H23727719   0.075   1.295   7.725  2.0821  2.4658 -0.5817
   92MOL   H23827720   7.886   1.407   7.699 -1.2010 -2.1369  0.7676
   92MOL   H23927721   0.085   1.457   7.786  0.3192  1.3277 -2.1867
   92MOL   H24027722   7.551   1.549   0.084 -1.5791  0.2626  0.4041
   92MOL   H24127723   7.508   1.509   0.245  0.0434 -0.5343  0.2529
   92MOL   C24227724   7.498   1.716   0.203  0.4103 -0.8111 -0.1543
   92MOL   O24327725   7.506   1.756   0.339  0.2401  0.5164 -0.4485
   92MOL   C24427726   7.398   1.763   0.424 -0.2918  1.0655 -0.6512
   92MOL   O24527727   7.281   1.741   0.393 -0.3406 -0.2250 -0.5033
   92MOL   C24627728   7.433   1.832   0.556  0.1702  0.0137  0.2850
   92MOL   C24727729   7.510   1.739   0.645  0.0691  0.1703 -0.5450
   92MOL   C24827730   7.552   1.825   0.107 -0.1091  0.5386  0.1812
   92MOL   H24927731   7.397   1.707   0.164  0.4102  0.0816 -0.3760
   92MOL   H25027732   7.490   1.918   0.521  0.6768 -0.1850  0.6134
   92MOL   H25127733   7.345   1.861   0.613 -1.3419 -0.9839 -1.4915
   92MOL   H25227734   7.594   1.682   0.604 -0.4816 -0.5952 -0.6200
   92MOL   H25327735   7.561   1.790   0.727 -1.1799 -4.1296  3.1151
   92MOL   H25427736   7.447   1.658   0.682  0.6054 -0.4732 -1.0292
   92MOL   H25527737   7.641   1.863   0.158  0.6713  0.9271 -1.4215
   92MOL   H25627738   7.588   1.783   0.013 -1.2456 -1.9422  0.8130
   92MOL   C25727739   7.442   1.932   0.062 -0.6193  0.2397  0.0826
   92MOL   O25827740   7.338   1.876   7.927  0.5369  0.0869  0.0255
   92MOL   C25927741   7.366   1.852   7.796  0.6519 -0.3641  0.0527
   92MOL   O26027742   7.480   1.862   7.746 -0.3634 -0.3084 -0.0049
   92MOL   C26127743   7.240   1.815   7.712 -0.7506 -0.5446  0.3874
   92MOL   C26227744   7.144   1.937   7.691  0.3287  0.5030 -0.2976
   92MOL   C26327745   7.376   2.003   0.182 -0.2865  0.2206 -0.3746
   92MOL   H26427746   7.488   2.016   0.011 -0.6131  0.5551  0.6037
   92MOL   H26527747   7.279   1.783   7.615  0.9531  0.6643  0.6434
   92MOL   H26627748   7.189   1.733   7.762 -2.9237  1.3758  1.3997
   92MOL   H26727749   7.188   2.033   7.661  0.6295  1.0523  1.7927
   92MOL   H26827750   7.067   1.906   7.620 -1.0100  0.8087  0.9991
   92MOL   H26927751   7.095   1.955   7.787 -1.0023 -3.0127 -0.2520
   92MOL   H27027752   7.315   1.927   0.231  1.0231 -0.9977 -0.6315
   92MOL   H27127753   7.441   2.040   0.262  0.0924  1.6491 -1.3259
   92MOL   C27227754   7.280   2.120   0.144 -1.0038 -0.4306 -0.8146
   92MOL   O27327755   7.209   2.156   0.256 -0.3961 -0.5962  0.4248
   92MOL   C27427756   7.070   2.160   0.254 -0.2005 -0.2143  0.2970
   92MOL   O27527757   6.992   2.148   0.157 -0.4579  0.1262 -0.2618
   92MOL   C27627758   7.007   2.178   0.392 -0.4987  0.0287  0.1910
   92MOL   C27727759   7.095   2.249   0.494 -0.7221 -0.0607 -0.1868
   92MOL   C27827760   7.344   2.247   0.092  0.2137 -0.1660  0.5166
   92MOL   H27927761   7.221   2.077   0.063 -1.6155 -1.1069 -0.0175
   92MOL   H28027762   6.917   2.236   0.372  0.5110  0.2042 -4.2909
   92MOL   H28127763   6.973   2.080   0.426 -2.0332  0.5608  0.2447
   92MOL   H28227764   7.203   2.241   0.484 -0.7368 -0.0131 -0.3939
   92MOL   H28327765   7.080   2.356   0.479 -1.5603 -0.3271 -1.2675
   92MOL   H28427766   7.060   2.210   0.590 -0.7851  0.2245 -0.0902
   92MOL   H28527767   7.403   2.288   0.173 -0.2505  1.3964  0.0737
   92MOL   H28627768   7.429   2.237   0.023  0.9199 -1.0470  1.4938
   92MOL   C28727769   7.256   2.368   0.042 -0.6568 -0.0807  0.5104
   92MOL   O28827770   7.303   2.499   0.073 -0.1302 -0.0278 -0.2331
   92MOL   C28927771   7.276   2.542   0.205  0.6618 -0.3731  0.5530
   92MOL   O29027772   7.237   2.476   0.297 -0.4467 -0.2682  0.0783
   92MOL   C29127773   7.303   2.689   0.236 -0.1877 -0.4268  0.2027
   92MOL   C29227774   7.321   2.786   0.113 -0.2693  0.2229 -0.7408
   92MOL   C29327775   7.240   2.364   7.832  0.2558  0.7758  0.2616
   92MOL   H29427776   7.156   2.356   0.083 -0.3692 -0.3109  1.1477
   92MOL   H29527777   7.216   2.724   0.290 -0.8080 -1.2678 -0.2372
   92MOL   H29627778   7.391   2.692   0.301  1.6758 -1.6857 -2.2058
   92MOL   H29727779   7.241   2.753   0.047 -0.9839  2.1746 -0.8992
   92MOL   H29827780   7.317   2.892   0.139  0.3465 -0.6014  2.9075
   92MOL   H29927781   7.414   2.758   0.063  0.1807 -0.5654  0.5235
   92MOL   H30027782   7.161   2.428   7.791 -1.9471 -1.1995  1.2978
   92MOL   H30127783   7.335   2.384   7.784  0.5418 -0.0223  0.4787
   92MOL   H30227784   7.213   2.261   7.805 -0.7039  1.0304  0.2214
   93MOL     C127785   7.688   6.733   6.751 -0.1118 -0.7012 -0.2061
   93MOL     O227786   7.764   6.814   6.672  0.3218 -0.5002 -0.3342
   93MOL     C327787   7.824   6.756   6.566 -1.3372 -0.6742  0.5186
   93MOL     O427788   7.818   6.640   6.534 -0.1749  0.0102 -0.2277
   93MOL     C527789   7.906   6.861   6.488 -0.4180 -0.1224  0.5719
   93MOL     C627790   0.111   6.822   6.475  0.0617  0.0981  0.4040
   93MOL     C727791   7.551   6.704   6.698 -0.0068 -0.1972  0.1246
   93MOL     H827792   7.666   6.800   6.834 -1.9816 -1.2818 -0.2117
   93MOL     H927793   7.859   6.883   6.392 -1.0064  1.3035  1.1841
   93MOL    H1027794   7.902   6.955   6.543  0.2944  0.7901 -0.9270
   93MOL    H1127795   0.121   6.723   6.431  0.6415  0.5745 -0.5523
   93MOL    H1227796   0.166   6.891   6.411  0.0677 -0.9111 -0.6857
   93MOL    H1327797   0.161   6.819   6.572 -0.6975 -0.4007  0.7836
   93MOL    H1427798   7.518   6.805   6.671  0.5649 -0.0670 -0.0896
   93MOL    H1527799   7.571   6.637   6.615 -1.3730 -0.2617 -0.1615
   93MOL    H1627800   7.742   6.649   6.792  1.5596 -0.6624 -2.2411
   93MOL    C1727801   7.448   6.634   6.793  0.4991 -0.6015  0.0963
   93MOL    O1827802   7.329   6.614   6.714 -0.0720 -0.6292  0.3106
   93MOL    C1927803   7.230   6.709   6.708  0.0658 -0.3339  0.5497
   93MOL    O2027804   7.231   6.814   6.773 -0.0743  0.1401 -0.0162
   93MOL    C2127805   7.114   6.669   6.615 -0.1104  0.2749 -0.1044
   93MOL    C2227806   7.072   6.526   6.651  0.3688 -0.4672 -0.3500
   93MOL    C2327807   7.487   6.500   6.850  0.0437 -0.3855 -0.1262
   93MOL    H2427808   7.427   6.707   6.872  1.1369  2.0492 -2.0828
   93MOL    H2527809   7.030   6.738   6.621 -0.7032 -0.3790 -0.6935
   93MOL    H2627810   7.153   6.670   6.513 -1.3667 -0.5893 -0.6079
   93MOL    H2727811   6.974   6.498   6.612 -0.2305 -0.0286  0.7921
   93MOL    H2827812   7.133   6.441   6.624  2.6764  1.0497 -0.0503
   93MOL    H2927813   7.044   6.513   6.756 -1.7124 -3.6220 -1.2331
   93MOL    H3027814   7.558   6.498   6.933  1.4435  2.2570 -1.2246
   93MOL    H3127815   7.395   6.470   6.902  0.5859 -0.4218  0.8268
   93MOL    C3227816   7.539   6.390   6.750  0.1099 -0.9194  0.9580
   93MOL    O3327817   7.606   6.285   6.825 -0.2231  0.7124 -0.1357
   93MOL    C3427818   7.727   6.244   6.811  0.5258  0.3202 -0.8986
   93MOL    O3527819   7.810   6.292   6.734  0.0163 -0.0838  0.6076
   93MOL    C3627820   7.760   6.116   6.889 -0.9217 -0.6456 -0.7077
   93MOL    C3727821   7.672   5.992   6.863  0.5975  0.8489 -0.5162
   93MOL    C3827822   7.434   6.320   6.667  0.1589  0.0737 -0.3164
   93MOL    H3927823   7.612   6.422   6.676 -0.0827 -0.4225  0.9814
   93MOL    H4027824   7.863   6.099   6.856 -0.9281  1.1533 -1.7341
   93MOL    H4127825   7.751   6.148   6.993 -1.5421  1.4046 -1.3792
   93MOL    H4227826   7.674   5.914   6.940  0.0783 -1.4445 -2.7438
   93MOL    H4327827   7.567   6.021   6.863  0.9813  2.2853  0.6512
   93MOL    H4427828   7.699   5.945   6.768 -1.5056  0.7683 -1.0975
   93MOL    H4527829   7.379   6.261   6.741  2.9446 -0.5469  1.3194
   93MOL    H4627830   7.361   6.390   6.625  1.0235  0.3947 -1.2843
   93MOL    C4727831   7.489   6.227   6.556 -0.6573 -0.9294 -0.5590
   93MOL    O4827832   7.393   6.135   6.503 -0.3320  1.3010 -0.0822
   93MOL    C4927833   7.438   6.012   6.462 -0.9409  0.0158 -0.7082
   93MOL    O5027834   7.548   5.969   6.494  0.4527  0.1261  0.3384
   93MOL    C5127835   7.328   5.926   6.396  0.3361  0.1808 -0.8540
   93MOL    C5227836   7.236   5.976   6.290 -0.5846 -0.2610  0.7967
   93MOL    C5327837   7.550   6.300   6.437  0.4888 -0.0489 -0.3683
   93MOL    H5427838   7.564   6.163   6.602  1.2153  0.4534 -1.5914
   93MOL    H5527839   7.380   5.846   6.344  0.8862 -0.7343  1.0243
   93MOL    H5627840   7.274   5.891   6.484  0.7525  1.0366 -0.2497
   93MOL    H5727841   7.162   6.047   6.327 -2.8177 -1.0105 -1.9923
   93MOL    H5827842   7.292   6.020   6.207 -0.9527  0.7597  1.0820
   93MOL    H5927843   7.166   5.900   6.255 -1.5909  0.2054  1.7803
   93MOL    H6027844   7.637   6.350   6.479  0.2254 -0.2723  0.4648
   93MOL    H6127845   7.603   6.230   6.372 -2.2269  0.0519 -2.8049
   93MOL    C6227846   7.453   6.398   6.361  0.3137  0.5347 -0.4403
   93MOL    O6327847   7.532   6.474   6.274  0.0574 -0.0849  0.1190
   93MOL    C6427848   7.553   6.609   6.295 -0.1471  0.1681 -0.2083
   93MOL    O6527849   7.508   6.672   6.390 -0.6243  0.0664 -0.2255
   93MOL    C6627850   7.660   6.660   6.201  0.0903  0.0846  0.9170
   93MOL    C6727851   7.668   6.816   6.201 -0.6055  0.3108  0.3000
   93MOL    C6827852   7.337   6.327   6.286 -0.3776 -0.6693 -0.0178
   93MOL    H6927853   7.399   6.470   6.423  0.1468 -1.0615  1.3213
   93MOL    H7027854   7.750   6.611   6.240 -0.3362 -0.9352  0.6187
   93MOL    H7127855   7.648   6.623   6.099  0.1737  0.2636  0.8426
   93MOL    H7227856   7.590   6.855   6.136  0.0176 -1.3318 -1.4869
   93MOL    H7327857   7.665   6.843   6.307 -2.4333 -1.9329  0.8746
   93MOL    H7427858   7.764   6.852   6.165 -0.5731 -1.1818 -1.1582
   93MOL    H7527859   7.374   6.240   6.231 -1.8628 -0.9007 -0.6614
   93MOL    H7627860   7.266   6.284   6.356 -1.4015  0.4588 -0.3580
   93MOL    C7727861   7.264   6.410   6.175  0.3794 -0.5516 -0.9008
   93MOL    O7827862   7.173   6.329   6.100  0.2762  0.0109 -0.4279
   93MOL    C7927863   7.209   6.278   5.983 -0.0610  0.0999 -0.6455
   93MOL    O8027864   7.299   6.307   5.909 -0.1951 -0.2751  0.7949
   93MOL    C8127865   7.105   6.174   5.945 -0.0673  0.1230 -0.1827
   93MOL    C8227866   7.166   6.045   5.886  0.5079 -0.5550 -0.6743
   93MOL    C8327867   7.183   6.531   6.235  0.1310  0.6776 -0.5053
   93MOL    H8427868   7.339   6.457   6.112  0.1320  1.6669  0.4158
   93MOL    H8527869   7.032   6.166   6.026  0.0350  0.6466 -0.0410
   93MOL    H8627870   7.049   6.217   5.862  2.7114  2.7269 -0.7806
   93MOL    H8727871   7.093   5.966   5.871 -0.4344  0.0973  0.4020
   93MOL    H8827872   7.220   6.050   5.791  0.4240 -0.7220 -0.7301
   93MOL    H8927873   7.245   6.014   5.955 -0.6101 -2.5087 -0.2509
   93MOL    H9027874   7.097   6.492   6.290  0.9250  0.2975  0.4908
   93MOL    H9127875   7.243   6.594   6.301  2.7982 -1.6733 -0.5679
   93MOL    C9227876   7.132   6.635   6.134  0.1874  0.5161  0.5237
   93MOL    O9327877   7.060   6.739   6.202  0.2345 -0.1992  0.3044
   93MOL    C9427878   6.934   6.720   6.242  0.4204 -0.2040 -1.3789
   93MOL    O9527879   6.880   6.613   6.241 -0.1497 -0.3117 -0.5216
   93MOL    C9627880   6.894   6.842   6.319  0.7733 -0.3202  0.3167
   93MOL    C9727881   6.746   6.863   6.337 -0.5806 -0.1915 -0.3943
   93MOL    C9827882   7.245   6.699   6.050  0.2623 -0.0798 -0.4369
   93MOL    H9927883   7.066   6.585   6.063  1.6829 -1.2235  0.3180
   93MOL   H10027884   6.935   6.827   6.419  0.1881 -0.2437  0.5721
   93MOL   H10127885   6.944   6.931   6.282 -1.4615  1.3669  1.2395
   93MOL   H10227886   6.708   6.770   6.378 -0.8272  0.1676  0.1853
   93MOL   H10327887   6.720   6.942   6.408 -0.3219  1.7740 -2.4156
   93MOL   H10427888   6.709   6.892   6.238  0.7896 -3.6899 -2.0353
   93MOL   H10527889   7.306   6.746   6.127  1.4084 -1.6239 -0.3944
   93MOL   H10627890   7.299   6.620   5.999  1.3157 -1.0499  2.1201
   93MOL   C10727891   7.205   6.789   5.932 -0.6370  0.0138  0.2055
   93MOL   O10827892   7.174   6.918   5.980  0.4589  0.0659  0.4569
   93MOL   C10927893   7.048   6.979   5.970 -0.8645 -0.0291  0.2955
   93MOL   O11027894   6.943   6.936   5.921 -0.6531  0.0226 -0.0291
   93MOL   C11127895   7.036   7.119   6.032 -0.2755 -0.9296 -0.0193
   93MOL   C11227896   7.124   7.227   5.963  0.3273 -0.5710 -1.0493
   93MOL   C11327897   7.319   6.828   5.830 -0.4129  0.0249  0.0295
   93MOL   H11427898   7.117   6.747   5.884 -0.1151 -0.5785 -0.2427
   93MOL   H11527899   6.934   7.157   6.023  0.2662  0.3318 -1.0625
   93MOL   H11627900   7.056   7.120   6.140  1.5254  0.6329 -0.3431
   93MOL   H11727901   7.225   7.187   5.950 -0.4650 -1.6411 -4.3012
   93MOL   H11827902   7.091   7.255   5.863 -0.5151  0.6153 -0.4545
   93MOL   H11927903   7.127   7.318   6.023 -1.8504 -0.4354 -1.0998
   93MOL   H12027904   7.277   6.909   5.771 -0.8776 -0.1305  0.1446
   93MOL   H12127905   7.409   6.850   5.888  0.7947 -2.9755 -0.6222
   93MOL   C12227906   7.367   6.728   5.729  0.0542  0.0489  0.2547
   93MOL   O12327907   7.472   6.650   5.789 -0.5457  0.1353  0.3179
   93MOL   C12427908   7.580   6.606   5.713 -0.3525  0.6837 -0.1632
   93MOL   O12527909   7.611   6.657   5.609  0.6785  0.2581 -0.4096
   93MOL   C12627910   7.644   6.472   5.766  0.0473 -0.0935  0.9546
   93MOL   C12727911   7.743   6.401   5.673  0.4262  0.3594  0.5185
   93MOL   C12827912   7.259   6.630   5.661  0.7390  0.1819  0.3653
   93MOL   H12927913   7.407   6.788   5.647 -2.5560 -1.4689 -2.2138
   93MOL   H13027914   7.686   6.491   5.865 -0.9121  3.4000  0.7607
   93MOL   H13127915   7.560   6.407   5.785  1.2011 -1.4603  1.4581
   93MOL   H13227916   7.844   6.433   5.700 -0.0807  1.0182  1.6902
   93MOL   H13327917   7.747   6.298   5.711  0.6458  0.0672 -0.2944
   93MOL   H13427918   7.720   6.411   5.567 -0.5652 -0.7839  0.6229
   93MOL   H13527919   7.313   6.578   5.582  1.9902  1.7134  0.1941
   93MOL   H13627920   7.208   6.565   5.732 -1.0489 -0.3822 -1.3823
   93MOL   C13727921   7.151   6.713   5.587 -0.3395  0.3450  0.5943
   93MOL   O13827922   7.217   6.789   5.478 -0.2829 -0.1993 -0.0838
   93MOL   C13927923   7.211   6.922   5.472 -0.5282  0.2170 -0.5083
   93MOL   O14027924   7.154   7.002   5.553  0.0543  0.5690 -0.1549
   93MOL   C14127925   7.280   6.975   5.341  0.3445 -0.7985 -0.6769
   93MOL   C14227926   7.206   6.950   5.212 -0.2896  0.6607  0.5233
   93MOL   C14327927   7.035   6.627   5.528 -0.1642  0.0783 -0.3027
   93MOL   H14427928   7.123   6.781   5.667 -0.6242 -0.2490  0.9974
   93MOL   H14527929   7.309   7.081   5.343  0.2521 -0.8006  1.3846
   93MOL   H14627930   7.375   6.921   5.337 -0.0557 -1.5589  0.3094
   93MOL   H14727931   7.258   6.881   5.146  0.0342 -1.1285  2.5922
   93MOL   H14827932   7.102   6.920   5.228 -0.8915  0.0698 -3.8210
   93MOL   H14927933   7.200   7.039   5.150 -1.5197  0.7838  0.8010
   93MOL   H15027934   7.056   6.588   5.428 -0.1685  1.7076 -0.9577
   93MOL   H15127935   7.030   6.544   5.597 -0.8672 -1.7353 -2.4766
   93MOL   C15227936   6.894   6.692   5.506 -0.7509 -0.4636 -0.0360
   93MOL   O15327937   6.889   6.780   5.388  0.3195 -0.8767  0.0420
   93MOL   C15427938   6.801   6.891   5.388 -0.3420  0.1205  0.3052
   93MOL   O15527939   6.738   6.932   5.490 -0.1124 -0.1906 -0.1184
   93MOL   C15627940   6.771   6.948   5.252  0.0193 -0.2572  1.0045
   93MOL   C15727941   6.686   6.857   5.164 -0.2012  0.3513 -0.0749
   93MOL   C15827942   6.790   6.583   5.478  0.6646  0.3993  0.3107
   93MOL   H15927943   6.874   6.755   5.592 -1.0956 -1.6373  0.7615
   93MOL   H16027944   6.727   7.048   5.257 -0.5938 -0.3945 -1.3448
   93MOL   H16127945   6.869   6.965   5.208  0.1808 -0.4847  1.2734
   93MOL   H16227946   6.687   6.909   5.068 -0.0199 -0.3201 -0.4381
   93MOL   H16327947   6.742   6.765   5.146  0.9225  0.9817  0.1012
   93MOL   H16427948   6.589   6.843   5.211 -0.4742  1.2962 -0.3377
   93MOL   H16527949   6.693   6.627   5.455  1.8078  2.4489 -0.7403
   93MOL   H16627950   6.823   6.524   5.392 -0.7657 -0.4083  0.2907
   93MOL   C16727951   6.769   6.504   5.601 -0.5562  0.7998  0.7406
   93MOL   O16827952   6.725   6.574   5.714 -0.3587  0.1600 -0.1738
   93MOL   C16927953   6.800   6.602   5.818 -1.5524 -0.1424 -0.3168
   93MOL   O17027954   6.919   6.576   5.824  0.2539 -0.5675  0.2390
   93MOL   C17127955   6.734   6.691   5.920 -0.0061 -0.9509 -0.3019
   93MOL   C17227956   6.625   6.607   5.993  0.9489  0.3478 -0.9794
   93MOL   C17327957   6.662   6.386   5.586 -0.5574 -0.3727 -0.2100
   93MOL   H17427958   6.858   6.450   5.633 -0.1410  0.6583 -0.6079
   93MOL   H17527959   6.803   6.715   6.001  2.8520  3.7081 -3.8413
   93MOL   H17627960   6.688   6.786   5.893  0.4715  0.7838  4.5474
   93MOL   H17727961   6.561   6.653   6.068  1.5797  0.6287 -0.6118
   93MOL   H17827962   6.556   6.557   5.925  0.6403  0.7432 -0.9514
   93MOL   H17927963   6.679   6.537   6.057 -1.9557  0.0658  1.2231
   93MOL   H18027964   6.568   6.422   5.546 -0.6498 -0.9417 -0.5080
   93MOL   H18127965   6.706   6.321   5.509  0.9460  0.1289  0.1976
   93MOL   C18227966   6.635   6.312   5.716 -0.1596 -0.2971  0.3948
   93MOL   O18327967   6.526   6.223   5.688 -0.2945  0.2190  0.3698
   93MOL   C18427968   6.411   6.232   5.762 -0.1813  0.5155  0.0451
   93MOL   O18527969   6.407   6.268   5.883 -0.7737  0.0426  0.3780
   93MOL   C18627970   6.299   6.149   5.695  0.0572 -0.5317  0.4620
   93MOL   C18727971   6.205   6.240   5.612 -1.1505  0.6761 -0.9268
   93MOL   C18827972   6.746   6.211   5.756 -1.0265 -0.5270  0.6258
   93MOL   H18927973   6.611   6.375   5.802  3.1871  1.6108 -0.0107
   93MOL   H19027974   6.348   6.082   5.625  0.7928  1.5072 -1.0017
   93MOL   H19127975   6.239   6.085   5.760 -1.3870  0.2232 -0.0976
   93MOL   H19227976   6.252   6.331   5.574  2.9043 -1.4300 -1.1777
   93MOL   H19327977   6.171   6.177   5.531  1.1947  0.3013 -1.6592
   93MOL   H19427978   6.116   6.252   5.675 -0.5161 -1.6489  0.4589
   93MOL   H19527979   6.751   6.130   5.683 -1.3241 -0.1773  0.2149
   93MOL   H19627980   6.843   6.260   5.762 -0.4836 -1.6054  0.7145
   93MOL   C19727981   6.723   6.140   5.890  0.3420  0.2845 -0.1250
   93MOL   O19827982   6.806   6.026   5.904 -0.0169 -0.1057 -0.0260
   93MOL   C19927983   6.754   5.899   5.917 -0.0193  0.0814 -0.2282
   93MOL   O20027984   6.635   5.871   5.893  0.1860  0.4098  0.2060
   93MOL   C20127985   6.864   5.797   5.941  0.0043  0.6926  0.9483
   93MOL   C20227986   6.921   5.824   6.078 -0.0081  0.3650  0.3751
   93MOL   C20327987   6.727   6.216   6.024 -0.1992  0.3964  1.0522
   93MOL   H20427988   6.623   6.100   5.874  0.6632 -0.4887 -0.2464
   93MOL   H20527989   6.824   5.697   5.927 -1.0225  1.2345 -0.1060
   93MOL   H20627990   6.937   5.809   5.861  2.8395 -0.6920  3.2343
   93MOL   H20727991   6.966   5.923   6.083  1.4281 -0.3069  0.9029
   93MOL   H20827992   6.838   5.818   6.149  0.0977 -3.1558  0.2845
   93MOL   H20927993   6.994   5.751   6.115 -3.4018 -3.6140 -0.3327
   93MOL   H21027994   6.830   6.250   6.028 -0.3730  1.0548  0.0781
   93MOL   H21127995   6.666   6.306   6.012 -1.2179 -0.6875 -2.8025
   93MOL   C21227996   6.684   6.139   6.149  0.4341  0.5907  0.2664
   93MOL   O21327997   6.736   6.212   6.257 -0.4444 -0.1991  0.0130
   93MOL   C21427998   6.798   6.147   6.353 -0.8471  0.5848  0.2940
   93MOL   O21527999   6.870   6.045   6.341 -0.0357 -0.3546 -0.0335
   93MOL   C21628000   6.798   6.231   6.480  0.1923 -0.0550  0.3854
   93MOL   C21728001   6.918   6.207   6.576 -0.2209  0.2964 -0.6561
   93MOL   C21828002   6.531   6.122   6.158 -0.1103 -0.2172  0.5971
   93MOL   H21928003   6.704   6.032   6.141 -0.8446  0.3681 -0.0751
   93MOL   H22028004   6.801   6.337   6.455  1.1900 -0.2377 -0.3160
   93MOL   H22128005   6.702   6.214   6.529 -0.0889 -0.4879 -0.3111
   93MOL   H22228006   6.908   6.282   6.655 -0.9435  2.9408 -3.1885
   93MOL   H22328007   6.943   6.106   6.608 -1.3494  0.7492  1.7687
   93MOL   H22428008   7.017   6.236   6.540 -0.6775  0.4367 -1.8093
   93MOL   H22528009   6.489   6.218   6.189 -1.1016 -0.7727  1.0320
   93MOL   H22628010   6.485   6.125   6.059  0.3184 -2.1287  0.3314
   93MOL   C22728011   6.475   6.012   6.251  0.3955 -0.2281 -0.3137
   93MOL   O22828012   6.397   6.078   6.343  0.3076  0.1632 -0.6380
   93MOL   C22928013   6.416   6.063   6.472  0.5042  0.3742  0.2516
   93MOL   O23028014   6.475   5.969   6.534  0.5405  0.3347  0.4194
   93MOL   C23128015   6.336   6.167   6.551  0.7893 -0.5884 -0.6745
   93MOL   C23228016   6.217   6.104   6.636 -0.1292  0.1500 -0.1699
   93MOL   C23328017   6.414   5.891   6.178 -0.8025  0.9945  0.0354
   93MOL   H23428018   6.566   5.969   6.294  1.1851  2.5478  0.9741
   93MOL   H23528019   6.397   6.217   6.627 -3.1035  1.6870  1.0970
   93MOL   H23628020   6.301   6.243   6.482  2.7855  0.6963 -0.3326
   93MOL   H23728021   6.248   6.043   6.721 -0.5535  1.2801  0.8188
   93MOL   H23828022   6.155   6.189   6.665 -1.0469 -0.7628  0.6128
   93MOL   H23928023   6.167   6.037   6.566  0.1839  0.3129 -0.5477
   93MOL   H24028024   6.316   5.917   6.137 -0.8150  0.5242 -0.2406
   93MOL   H24128025   6.465   5.852   6.090 -2.2785 -1.9851  0.4251
   93MOL   C24228026   6.391   5.770   6.273  0.4845  0.0287 -0.1902
   93MOL   O24328027   6.294   5.680   6.218  0.2192  0.2916 -0.3907
   93MOL   C24428028   6.166   5.699   6.239  0.4029  0.7706  0.0803
   93MOL   O24528029   6.119   5.774   6.324 -0.4063 -0.0037 -0.2484
   93MOL   C24628030   6.076   5.632   6.133  0.2285  0.2264 -0.0722
   93MOL   C24728031   6.065   5.727   6.014  0.0749  0.4976 -0.5769
   93MOL   C24828032   6.520   5.687   6.293  0.1401  0.3362  0.7252
   93MOL   H24928033   6.354   5.813   6.366 -1.4802  0.7755 -1.2852
   93MOL   H25028034   6.122   5.535   6.114  2.3897  1.8108 -3.5177
   93MOL   H25128035   5.977   5.621   6.177 -0.4601 -0.5522 -1.7751
   93MOL   H25228036   6.038   5.831   6.033  0.4088  0.4394  0.2627
   93MOL   H25328037   6.155   5.723   5.953  1.3652 -1.7727  1.3483
   93MOL   H25428038   5.992   5.684   5.946  0.3045 -0.7457 -0.0635
   93MOL   H25528039   6.531   5.636   6.198 -0.0612  1.8252 -0.1004
   93MOL   H25628040   6.605   5.755   6.306 -0.9610  1.6761  1.0482
   93MOL   C25728041   6.511   5.559   6.385 -0.2469  0.3135 -1.0738
   93MOL   O25828042   6.637   5.494   6.362 -0.0434 -0.2625  0.0816
   93MOL   C25928043   6.642   5.360   6.338  0.6427 -0.4700  0.2555
   93MOL   O26028044   6.552   5.269   6.346 -0.4876  0.5500  0.0119
   93MOL   C26128045   6.777   5.327   6.284 -0.1175 -0.1326  0.2378
   93MOL   C26228046   6.842   5.402   6.160  0.4167 -0.6255  0.4892
   93MOL   C26328047   6.492   5.607   6.536  0.2986 -0.1541  0.6349
   93MOL   H26428048   6.429   5.498   6.346  0.6648 -0.4894 -1.7334
   93MOL   H26528049   6.848   5.327   6.367  1.5205 -1.8343 -1.1085
   93MOL   H26628050   6.766   5.224   6.252  0.0836  0.6069 -2.2873
   93MOL   H26728051   6.858   5.510   6.169  1.0387 -0.5275 -1.6894
   93MOL   H26828052   6.935   5.359   6.124  1.5692  0.3684  2.1995
   93MOL   H26928053   6.768   5.381   6.082 -0.3156 -0.4632  1.1255
   93MOL   H27028054   6.560   5.543   6.593  1.9895 -0.9716 -2.2186
   93MOL   H27128055   6.526   5.710   6.540 -3.5690  1.3464 -1.8888
   93MOL   C27228056   6.341   5.602   6.588  0.1163  0.9703 -0.5396
   93MOL   O27328057   6.314   5.477   6.642  0.2549 -0.1066 -0.2807
   93MOL   C27428058   6.223   5.393   6.577  0.6590  0.8171 -0.2800
   93MOL   O27528059   6.163   5.417   6.468 -0.3095 -0.2760 -0.7782
   93MOL   C27628060   6.205   5.262   6.654 -0.2749  0.1652 -0.6059
   93MOL   C27728061   6.124   5.151   6.579  0.1138 -0.5617 -0.4434
   93MOL   C27828062   6.305   5.715   6.685  0.1954 -0.1917  0.9236
   93MOL   H27928063   6.280   5.612   6.498  0.2330 -0.0317 -0.7328
   93MOL   H28028064   6.304   5.222   6.677 -1.5462 -2.5491  0.2521
   93MOL   H28128065   6.167   5.273   6.755  0.0682 -1.4265 -0.2892
   93MOL   H28228066   6.157   5.119   6.480  0.6780 -4.3246  0.8775
   93MOL   H28328067   6.125   5.061   6.641  3.5069  0.2798  0.8471
   93MOL   H28428068   6.020   5.181   6.576  0.4773  0.6370 -1.3036
   93MOL   H28528069   6.375   5.709   6.769 -0.1101  0.0092  1.1963
   93MOL   H28628070   6.305   5.806   6.625 -0.4028 -1.4259 -0.9896
   93MOL   C28728071   6.166   5.708   6.749  0.1577  0.0986 -0.2919
   93MOL   O28828072   6.158   5.821   6.838 -0.2283 -0.0515 -0.9727
   93MOL   C28928073   6.200   5.815   6.964  0.4543  0.1934 -0.5988
   93MOL   O29028074   6.248   5.716   7.021  0.3947 -0.2754 -0.1355
   93MOL   C29128075   6.174   5.948   7.044 -0.6302  0.9027 -0.6114
   93MOL   C29228076   6.030   5.943   7.109  0.2136  0.0294 -0.0168
   93MOL   C29328077   6.050   5.733   6.647 -0.0640  0.6728  0.5578
   93MOL   H29428078   6.148   5.620   6.812  1.5108 -0.3201 -0.4787
   93MOL   H29528079   6.240   5.964   7.129 -1.8136  0.6947  0.3786
   93MOL   H29628080   6.188   6.033   6.978 -0.9840  0.8212 -0.7954
   93MOL   H29728081   6.027   6.034   7.168  1.3226 -0.4292  0.7619
   93MOL   H29828082   5.951   5.960   7.035 -0.4109 -0.2768  0.5769
   93MOL   H29928083   5.997   5.863   7.174 -2.2536  1.4418  0.5356
   93MOL   H30028084   6.026   5.649   6.582 -0.5393  2.3407 -1.4889
   93MOL   H30128085   5.956   5.756   6.698  0.0187  0.1425  0.9531
   93MOL   H30228086   6.068   5.816   6.578 -0.5147  0.3793  0.0813
   94MOL     C128087   6.379   2.627   4.840  0.5050  0.1340 -0.3157
   94MOL     O228088   6.293   2.539   4.779  0.2409  0.1603 -0.1329
   94MOL     C328089   6.250   2.554   4.654 -0.0626 -0.4657 -0.1429
   94MOL     O428090   6.304   2.626   4.567 -0.0568 -0.3851  0.2163
   94MOL     C528091   6.121   2.475   4.630  0.0521  0.4293 -0.9788
   94MOL     C628092   6.088   2.456   4.474  0.1613 -0.0976  0.1061
   94MOL     C728093   6.300   2.703   4.951 -0.1842  0.0771 -0.4615
   94MOL     H828094   6.418   2.690   4.760  2.1830 -0.0662  0.3257
   94MOL     H928095   6.150   2.378   4.671  0.9382  0.8903 -0.4925
   94MOL    H1028096   6.042   2.518   4.693  1.6440  1.0989  0.6132
   94MOL    H1128097   5.987   2.419   4.455  0.3328  0.2424 -1.5444
   94MOL    H1228098   6.100   2.546   4.414 -2.5305  0.7365  0.7486
   94MOL    H1328099   6.167   2.388   4.440  0.3954 -0.0916  0.6311
   94MOL    H1428100   6.197   2.721   4.922 -0.0443 -0.7555 -1.4850
   94MOL    H1528101   6.297   2.631   5.034  1.7476  0.6639  0.1443
   94MOL    H1628102   6.464   2.576   4.884  0.5459 -1.3188 -2.0073
   94MOL    C1728103   6.366   2.839   4.988  0.4688 -0.3496 -0.1679
   94MOL    O1828104   6.336   2.932   4.883 -0.0275 -0.1563  0.2692
   94MOL    C1928105   6.431   2.964   4.792 -0.2940 -0.4478  0.0321
   94MOL    O2028106   6.542   2.915   4.782 -0.2609  0.0162  0.0497
   94MOL    C2128107   6.398   3.069   4.683 -0.1458  0.0876  0.1692
   94MOL    C2228108   6.258   3.044   4.611 -0.4234  0.5062 -0.0940
   94MOL    C2328109   6.320   2.893   5.120 -0.2202 -0.4934  0.5138
   94MOL    H2428110   6.473   2.826   5.000  0.5386  0.5674  0.2534
   94MOL    H2528111   6.414   3.171   4.718  0.1357  0.0451  0.1655
   94MOL    H2628112   6.471   3.063   4.602  0.7971  1.0573  0.9285
   94MOL    H2728113   6.266   2.940   4.580  0.5788  0.5483 -0.0080
   94MOL    H2828114   6.190   3.075   4.691  0.1425 -0.0799  0.6258
   94MOL    H2928115   6.260   3.106   4.522  0.9918  1.3816  0.5237
   94MOL    H3028116   6.213   2.910   5.115 -0.0711  0.0960 -0.8497
   94MOL    H3128117   6.329   2.819   5.200  0.7382 -1.1127 -0.1572
   94MOL    C3228118   6.390   3.028   5.157  0.2860 -0.6952 -0.1921
   94MOL    O3328119   6.288   3.114   5.221  0.1404  0.4394  0.6215
   94MOL    C3428120   6.274   3.243   5.189 -0.2363  0.7178  0.0901
   94MOL    O3528121   6.342   3.309   5.112 -0.3564 -0.6001  0.0220
   94MOL    C3628122   6.154   3.317   5.253  0.2211  0.2475 -0.0788
   94MOL    C3728123   6.026   3.246   5.223  0.4311  0.2842 -0.2272
   94MOL    C3828124   6.499   3.006   5.266  0.7978 -0.7330 -0.2605
   94MOL    H3928125   6.430   3.065   5.063 -0.2990  1.3151  0.3386
   94MOL    H4028126   6.166   3.345   5.358 -1.0080 -1.3652  0.5013
   94MOL    H4128127   6.145   3.416   5.207  1.4063  1.2582  1.7958
   94MOL    H4228128   5.947   3.321   5.220  0.6093  0.4830  0.0267
   94MOL    H4328129   6.028   3.195   5.127 -0.2494 -1.0503  0.4411
   94MOL    H4428130   5.996   3.172   5.298 -1.1766  1.2452  0.0859
   94MOL    H4528131   6.543   3.102   5.296  1.6181 -1.3213  0.4511
   94MOL    H4628132   6.452   2.981   5.361  0.0084  0.1479 -0.4092
   94MOL    C4728133   6.610   2.907   5.227 -0.2892  0.4150 -0.5253
   94MOL    O4828134   6.691   2.960   5.119  0.0500  0.8251 -0.2057
   94MOL    C4928135   6.759   2.871   5.042  0.2235  0.1198 -0.1206
   94MOL    O5028136   6.754   2.750   5.049 -0.4254  0.2550 -0.2802
   94MOL    C5128137   6.841   2.943   4.938 -0.0941 -0.5858  0.8305
   94MOL    C5228138   6.921   3.073   4.976  0.2351 -0.3504 -0.3525
   94MOL    C5328139   6.705   2.876   5.345 -0.2193 -0.6960 -0.5287
   94MOL    H5428140   6.567   2.814   5.192 -0.9234  0.5383 -0.0967
   94MOL    H5528141   6.917   2.873   4.904  0.0210 -0.0627  0.0022
   94MOL    H5628142   6.788   2.964   4.845  2.6868 -0.1580 -0.7184
   94MOL    H5728143   6.997   3.062   5.053  1.2424 -2.7591 -1.6555
   94MOL    H5828144   6.969   3.102   4.883 -2.0183 -3.5677 -2.6378
   94MOL    H5928145   6.865   3.162   5.003 -0.3511 -1.5382  2.5812
   94MOL    H6028146   6.809   2.872   5.312  0.3406 -2.4714  1.3573
   94MOL    H6128147   6.700   2.955   5.419 -1.8545 -0.8104 -0.4905
   94MOL    C6228148   6.668   2.745   5.418  0.5563 -0.4226  0.7229
   94MOL    O6328149   6.711   2.631   5.340 -0.1788 -0.7452  0.2624
   94MOL    C6428150   6.620   2.553   5.269 -0.5603  0.3687 -0.3395
   94MOL    O6528151   6.499   2.580   5.263  0.3652  0.1532  0.4152
   94MOL    C6628152   6.677   2.427   5.208  0.0011  0.4711 -0.2671
   94MOL    C6728153   6.599   2.362   5.091  0.1242 -0.1605  0.5781
   94MOL    C6828154   6.748   2.731   5.550 -0.3570 -0.6013  0.6357
   94MOL    H6928155   6.560   2.744   5.434  0.0688 -0.3428 -2.2331
   94MOL    H7028156   6.774   2.441   5.161 -1.5237  0.6798 -3.5057
   94MOL    H7128157   6.695   2.344   5.277 -1.9776  0.0096 -0.2832
   94MOL    H7228158   6.632   2.263   5.057  1.5741 -0.5583  3.0523
   94MOL    H7328159   6.496   2.349   5.122  0.6696  0.5896  2.7739
   94MOL    H7428160   6.600   2.434   5.009 -0.7745  0.3668  1.0334
   94MOL    H7528161   6.854   2.718   5.529 -0.5194 -1.8652  0.5787
   94MOL    H7628162   6.744   2.823   5.610  1.7462  0.2819 -0.5319
   94MOL    C7728163   6.703   2.615   5.647  0.3792 -0.7852  1.0459
   94MOL    O7828164   6.828   2.578   5.715  0.4272  0.2783  0.4258
   94MOL    C7928165   6.902   2.483   5.665 -0.7857 -0.7763 -0.2343
   94MOL    O8028166   6.872   2.408   5.575  0.1849 -0.3695  0.0654
   94MOL    C8128167   7.030   2.460   5.741 -0.4044 -0.1038 -0.3563
   94MOL    C8228168   7.132   2.357   5.679 -0.5678  0.4905 -0.0634
   94MOL    C8328169   6.618   2.661   5.763 -0.2868  0.3324 -0.1826
   94MOL    H8428170   6.655   2.532   5.595 -1.1040  0.8510 -0.2272
   94MOL    H8528171   7.072   2.558   5.762 -0.2209  0.0036 -1.1952
   94MOL    H8628172   6.998   2.405   5.829 -3.0078  1.7008 -0.0967
   94MOL    H8728173   7.226   2.367   5.734 -0.3331 -1.3836 -0.0568
   94MOL    H8828174   7.096   2.256   5.698 -2.7155  1.5808  1.7558
   94MOL    H8928175   7.141   2.372   5.571 -0.3922  3.0713  0.2893
   94MOL    H9028176   6.619   2.572   5.827 -0.0012 -1.0060 -2.0232
   94MOL    H9128177   6.672   2.742   5.813  1.7219 -1.0834  0.0506
   94MOL    C9228178   6.476   2.709   5.729  0.2170  0.3831 -1.6200
   94MOL    O9328179   6.395   2.601   5.672 -0.5203 -0.1774 -0.2637
   94MOL    C9428180   6.317   2.634   5.564  0.8758 -0.2361 -0.6990
   94MOL    O9528181   6.306   2.748   5.519  0.5736  0.1525 -0.6950
   94MOL    C9628182   6.238   2.511   5.508 -0.7501 -0.4130  0.0746
   94MOL    C9728183   6.155   2.442   5.619  0.6764  0.5254  0.4165
   94MOL    C9828184   6.411   2.782   5.847 -0.2463  0.3220  0.1331
   94MOL    H9928185   6.497   2.772   5.643  0.2966  1.6382 -0.6863
   94MOL   H10028186   6.172   2.545   5.429 -0.1308 -1.7248 -1.0144
   94MOL   H10128187   6.313   2.441   5.472  0.0665  0.7429 -0.4727
   94MOL   H10228188   6.079   2.509   5.661 -0.6792 -1.6351  1.5387
   94MOL   H10328189   6.101   2.361   5.569  1.8114  0.4193 -0.6546
   94MOL   H10428190   6.216   2.405   5.701 -0.1448  2.4684  1.9619
   94MOL   H10528191   6.304   2.790   5.827 -0.5210 -0.7891  1.1581
   94MOL   H10628192   6.418   2.722   5.938 -1.4740 -3.0223 -1.8912
   94MOL   C10728193   6.465   2.930   5.872 -0.1912  0.0294 -0.0601
   94MOL   O10828194   6.390   3.013   5.785 -0.2800  0.0360  0.1177
   94MOL   C10928195   6.448   3.048   5.669 -0.1104  0.2484 -0.1828
   94MOL   O11028196   6.560   3.020   5.624  0.1659  0.6158 -0.4821
   94MOL   C11128197   6.355   3.128   5.583  0.3614 -0.8240  0.0137
   94MOL   C11228198   6.204   3.095   5.582 -0.1509  0.1149  0.0602
   94MOL   C11328199   6.441   2.990   6.013  0.1546 -0.6250  0.7929
   94MOL   H11428200   6.572   2.943   5.859 -0.1593  1.2102  1.3439
   94MOL   H11528201   6.360   3.233   5.615  0.1302  0.3110 -3.5127
   94MOL   H11628202   6.381   3.116   5.478 -2.7812 -0.8355 -0.8193
   94MOL   H11728203   6.148   3.181   5.547 -1.7290 -1.7794 -2.2183
   94MOL   H11828204   6.191   3.011   5.513 -1.8587 -0.2886  0.8486
   94MOL   H11928205   6.157   3.087   5.680 -1.4673  1.1680 -0.4771
   94MOL   H12028206   6.451   3.098   6.030  0.4591 -0.3429 -1.0258
   94MOL   H12128207   6.342   2.957   6.042  0.3319 -1.8692  0.0445
   94MOL   C12228208   6.533   2.928   6.119  0.1870 -0.1582  0.5454
   94MOL   O12328209   6.664   2.993   6.109 -0.5240  0.3780  0.0021
   94MOL   C12428210   6.779   2.913   6.077  0.8119 -1.0234 -0.4945
   94MOL   O12528211   6.778   2.795   6.046  0.1168 -0.2048  0.0219
   94MOL   C12628212   6.906   2.997   6.089  0.1561 -0.3141 -0.0317
   94MOL   C12728213   7.006   2.956   6.199  0.2964 -0.6515  0.1763
   94MOL   C12828214   6.484   2.943   6.267 -0.7018 -0.2499  0.5238
   94MOL   H12928215   6.548   2.823   6.094  0.9257  0.4093 -1.5567
   94MOL   H13028216   6.951   2.989   5.990  2.1574  2.1782  0.6283
   94MOL   H13128217   6.876   3.099   6.114 -2.1666 -0.8826 -0.3545
   94MOL   H13228218   7.047   2.862   6.161  1.3714  0.1869 -0.7481
   94MOL   H13328219   7.091   3.022   6.212 -0.2867  0.0490  0.5081
   94MOL   H13428220   6.950   2.924   6.287 -0.7792  1.0681  0.1288
   94MOL   H13528221   6.570   2.990   6.314  0.9671 -0.3537 -2.3125
   94MOL   H13628222   6.393   3.002   6.270  0.8049  2.2185 -0.4291
   94MOL   C13728223   6.456   2.804   6.328  0.3789 -0.8364  0.2983
   94MOL   O13828224   6.581   2.768   6.382 -0.4568 -0.9786 -0.1785
   94MOL   C13928225   6.638   2.645   6.354  0.3520 -0.1730  0.3149
   94MOL   O14028226   6.586   2.548   6.303  0.4252 -0.4782  0.7259
   94MOL   C14128227   6.784   2.639   6.395 -0.5428  0.0945  0.4679
   94MOL   C14228228   6.873   2.564   6.296  0.0796  0.1690 -0.3755
   94MOL   C14328229   6.345   2.805   6.443 -0.9499 -0.2629  0.4960
   94MOL   H14428230   6.426   2.738   6.247  2.0457  0.8549 -1.7672
   94MOL   H14528231   6.822   2.740   6.410 -0.2832  0.5273 -2.7557
   94MOL   H14628232   6.785   2.587   6.490  1.0558 -0.6170  0.0694
   94MOL   H14728233   6.972   2.550   6.339 -0.0103 -1.6386 -0.7267
   94MOL   H14828234   6.827   2.469   6.268  2.0962 -1.5880  2.0402
   94MOL   H14928235   6.894   2.628   6.211  1.5110 -0.2273 -0.3288
   94MOL   H15028236   6.349   2.703   6.483 -3.2201 -0.2172  0.9532
   94MOL   H15128237   6.366   2.869   6.529 -0.7679  0.3361  0.0049
   94MOL   C15228238   6.208   2.833   6.384  1.0366 -0.2964  0.1240
   94MOL   O15328239   6.161   2.724   6.297 -0.2730  0.0198 -0.2013
   94MOL   C15428240   6.116   2.744   6.177  0.2516 -0.6727 -0.0740
   94MOL   O15528241   6.099   2.851   6.125  0.2481 -0.1391  0.2978
   94MOL   C15628242   6.068   2.619   6.103  0.0307 -0.0100 -0.0046
   94MOL   C15728243   6.192   2.547   6.033 -0.3634 -0.3117  0.0098
   94MOL   C15828244   6.091   2.876   6.482 -0.2579 -0.3990  0.0089
   94MOL   H15928245   6.225   2.914   6.314  1.3163 -1.3081 -1.0014
   94MOL   H16028246   6.016   2.549   6.168  0.1266 -0.4718 -0.4189
   94MOL   H16128247   6.000   2.656   6.026  1.3441  3.0180  0.2027
   94MOL   H16228248   6.163   2.449   5.996  0.5224 -1.0325  1.1581
   94MOL   H16328249   6.221   2.611   5.951 -0.0144 -1.2736 -0.6308
   94MOL   H16428250   6.262   2.524   6.114  1.2565 -1.6952 -1.7353
   94MOL   H16528251   6.000   2.884   6.423  0.2460  2.1528 -0.5129
   94MOL   H16628252   6.066   2.791   6.545  0.3344 -0.7033 -0.1606
   94MOL   C16728253   6.097   3.008   6.563 -0.6566 -0.2462  0.2301
   94MOL   O16828254   6.062   3.117   6.471 -0.1747  0.4208  0.6542
   94MOL   C16928255   6.141   3.227   6.476  0.0311  0.1407  0.2356
   94MOL   O17028256   6.212   3.257   6.573 -0.4266  0.9687  0.0860
   94MOL   C17128257   6.144   3.319   6.350  0.3406 -0.0787  0.3957
   94MOL   C17228258   6.136   3.248   6.209 -0.0681  0.0969  0.1994
   94MOL   C17328259   5.998   3.003   6.679  0.2983 -0.2570  0.2170
   94MOL   H17428260   6.198   3.022   6.601 -0.9190 -0.0879  0.8695
   94MOL   H17528261   6.067   3.396   6.359 -0.4320 -0.8516  0.4283
   94MOL   H17628262   6.238   3.375   6.345  0.5200 -0.3283  0.8989
   94MOL   H17728263   6.056   3.291   6.149  1.6168  2.3171 -0.5376
   94MOL   H17828264   6.235   3.262   6.166 -0.4195  1.5465 -0.1436
   94MOL   H17928265   6.119   3.140   6.216 -0.8518  0.3279  1.9390
   94MOL   H18028266   5.964   3.103   6.706  0.0817 -0.3473  0.2754
   94MOL   H18128267   5.917   2.938   6.646  0.3274  0.7547 -1.9084
   94MOL   C18228268   6.067   2.941   6.806  0.5769 -0.3728 -0.1933
   94MOL   O18328269   6.175   3.030   6.846  0.8364 -0.0536 -0.7613
   94MOL   C18428270   6.293   2.975   6.884  0.3001  0.5314 -0.4716
   94MOL   O18528271   6.326   2.857   6.873  0.4279  0.2018 -0.4959
   94MOL   C18628272   6.391   3.083   6.922 -0.1877  0.1937  0.4570
   94MOL   C18728273   6.458   3.131   6.797  0.1067  1.3054 -0.0230
   94MOL   C18828274   5.962   2.906   6.914  0.0445  0.0182  0.7336
   94MOL   H18928275   6.104   2.842   6.777  0.5352 -0.1802 -0.9109
   94MOL   H19028276   6.344   3.165   6.976 -2.2427 -1.7447  1.7302
   94MOL   H19128277   6.467   3.041   6.988  0.6178  0.5206 -0.2567
   94MOL   H19228278   6.500   3.058   6.728 -1.0253  0.0684  0.5853
   94MOL   H19328279   6.387   3.203   6.757 -0.8903 -0.2786 -1.1554
   94MOL   H19428280   6.543   3.187   6.835  0.3322  2.7304 -2.5281
   94MOL   H19528281   6.016   2.874   7.003  3.3844 -1.9121 -1.8959
   94MOL   H19628282   5.927   3.005   6.944  1.8699  1.2514 -1.0908
   94MOL   C19728283   5.850   2.822   6.873 -0.5090  0.6278  0.3189
   94MOL   O19828284   5.918   2.706   6.850 -0.3199 -0.3404  0.1301
   94MOL   C19928285   5.895   2.637   6.735 -0.5436  0.2859  0.4307
   94MOL   O20028286   5.809   2.652   6.651  0.2991 -0.4759  0.2054
   94MOL   C20128287   5.997   2.523   6.728  0.1560  0.4914  0.1955
   94MOL   C20228288   6.150   2.561   6.741  0.4314 -0.2922 -0.3503
   94MOL   C20328289   5.753   2.791   6.992  0.4638 -0.4834 -0.5974
   94MOL   H20428290   5.801   2.852   6.780  2.1387 -0.1406 -1.3712
   94MOL   H20528291   5.988   2.451   6.810 -0.3628  0.7443  0.3617
   94MOL   H20628292   5.976   2.460   6.642  0.7903 -2.1514  1.9125
   94MOL   H20728293   6.178   2.626   6.658  1.3565 -0.8016 -0.4497
   94MOL   H20828294   6.166   2.624   6.828  1.5161 -0.8908 -0.1089
   94MOL   H20928295   6.215   2.474   6.754  1.4013  0.5774  0.6825
   94MOL   H21028296   5.689   2.709   6.958 -0.6799  0.1715 -0.0507
   94MOL   H21128297   5.810   2.755   7.078 -0.4352 -1.2520 -0.3123
   94MOL   C21228298   5.657   2.906   7.030 -0.6375  0.2156  0.0595
   94MOL   O21328299   5.576   2.943   6.921 -0.1071 -0.4109 -0.2469
   94MOL   C21428300   5.583   3.068   6.875  0.6615 -0.7537  0.2132
   94MOL   O21528301   5.656   3.160   6.925 -0.0532  0.6489 -0.8590
   94MOL   C21628302   5.493   3.081   6.752 -0.3845 -0.0525  0.0153
   94MOL   C21728303   5.542   3.004   6.628  0.5385  0.1712 -0.9224
   94MOL   C21828304   5.571   2.857   7.147 -0.0285  0.3264  0.3979
   94MOL   H21928305   5.708   2.991   7.076 -0.5394 -0.3926  1.0962
   94MOL   H22028306   5.406   3.028   6.790 -0.4855  0.2400  0.1976
   94MOL   H22128307   5.465   3.185   6.734  0.4296 -0.1270 -1.9094
   94MOL   H22228308   5.528   2.901   6.661 -1.0067  1.3032  2.1956
   94MOL   H22328309   5.478   3.032   6.545 -1.8308  0.1444  0.8268
   94MOL   H22428310   5.646   3.022   6.603  0.9722  1.5637  1.6392
   94MOL   H22528311   5.489   2.798   7.108  0.6554  0.3213 -1.0763
   94MOL   H22628312   5.627   2.785   7.206  0.4822  0.0116 -0.4635
   94MOL   C22728313   5.525   2.969   7.241  0.3494 -0.7343 -0.1364
   94MOL   O22828314   5.381   2.990   7.248 -0.5051 -0.0501  0.2223
   94MOL   C22928315   5.321   3.071   7.173  0.0321  0.3723 -0.7131
   94MOL   O23028316   5.365   3.122   7.071  0.1176 -0.0819 -0.0013
   94MOL   C23128317   5.188   3.110   7.228  0.4425  0.2469  0.6506
   94MOL   C23228318   5.100   3.192   7.132 -0.0417 -0.0912  0.2655
   94MOL   C23328319   5.586   2.962   7.381  0.1218 -0.4507  0.8490
   94MOL   H23428320   5.565   3.060   7.197  0.4007 -2.2526 -3.4050
   94MOL   H23528321   5.137   3.018   7.256  0.2583 -0.9922 -3.4626
   94MOL   H23628322   5.210   3.169   7.317  1.0238  0.5605  0.3080
   94MOL   H23728323   5.063   3.140   7.043  2.6755 -0.9840 -0.3806
   94MOL   H23828324   5.007   3.199   7.189 -0.1536  0.0995  0.0602
   94MOL   H23928325   5.133   3.291   7.103 -1.3366  0.6058  1.1029
   94MOL   H24028326   5.527   3.035   7.436 -0.8509  0.2269 -1.0441
   94MOL   H24128327   5.571   2.864   7.425 -1.0208 -0.2612  0.8905
   94MOL   C24228328   5.741   2.986   7.382 -0.0357  0.2599 -0.0949
   94MOL   O24328329   5.777   3.117   7.330 -0.5929  0.3207  0.3852
   94MOL   C24428330   5.882   3.135   7.259  0.8896 -0.0153 -0.0821
   94MOL   O24528331   5.947   3.051   7.199 -0.7394 -0.1280 -0.2223
   94MOL   C24628332   5.914   3.278   7.240  0.2797 -0.3492  0.1342
   94MOL   C24728333   5.924   3.317   7.090 -0.3621 -0.4185  0.0082
   94MOL   C24828334   5.806   2.985   7.524  0.2489 -0.2592  0.4812
   94MOL   H24928335   5.793   2.914   7.319 -0.1698  0.4105 -0.3795
   94MOL   H25028336   5.837   3.344   7.278 -0.4613 -0.8139 -0.5330
   94MOL   H25128337   6.009   3.303   7.288  1.2380 -0.1556 -1.7895
   94MOL   H25228338   6.006   3.270   7.036 -1.0733  0.2855 -1.7350
   94MOL   H25328339   5.838   3.279   7.035 -0.0513 -1.5393  0.2938
   94MOL   H25428340   5.916   3.424   7.069 -0.0962 -0.5173 -0.6311
   94MOL   H25528341   5.852   3.082   7.542 -0.7421  1.0013 -3.3207
   94MOL   H25628342   5.719   2.993   7.590 -0.5750 -2.8185 -0.2251
   94MOL   C25728343   5.903   2.878   7.548  0.0048  0.1673 -0.1040
   94MOL   O25828344   6.019   2.910   7.480  0.3928 -0.2715 -0.1927
   94MOL   C25928345   6.071   2.825   7.387 -0.5262 -0.2311 -0.0796
   94MOL   O26028346   6.029   2.717   7.358  0.5313  0.5816 -0.2694
   94MOL   C26128347   6.207   2.871   7.332  0.2529 -0.3116 -1.0235
   94MOL   C26228348   6.297   2.763   7.260 -0.3855  0.3021  0.1846
   94MOL   C26328349   5.941   2.861   7.696  0.1505  0.1606  0.4986
   94MOL   H26428350   5.868   2.779   7.522 -0.9189  0.1566  1.0992
   94MOL   H26528351   6.177   2.955   7.269 -0.8388 -1.8348 -2.5474
   94MOL   H26628352   6.260   2.916   7.416  0.6714  0.8614 -1.8971
   94MOL   H26728353   6.233   2.703   7.196  0.9208 -1.1096  0.1595
   94MOL   H26828354   6.379   2.814   7.210  0.2424 -0.2189  0.6684
   94MOL   H26928355   6.339   2.696   7.335 -1.8820 -0.7192  0.1280
   94MOL   H27028356   6.032   2.804   7.713 -1.2544 -1.4968  2.7243
   94MOL   H27128357   5.958   2.963   7.732 -1.6974 -0.0589  2.0696
   94MOL   C27228358   5.831   2.789   7.782  0.0321 -0.5127 -0.0943
   94MOL   O27328359   5.823   2.652   7.740 -0.5366 -0.0577  0.9377
   94MOL   C27428360   5.726   2.608   7.659 -0.3398  0.0882 -0.2192
   94MOL   O27528361   5.651   2.682   7.594  0.5724 -0.0096 -0.0622
   94MOL   C27628362   5.730   2.457   7.647  1.9073 -0.0700  0.2573
   94MOL   C27728363   5.598   2.370   7.649 -0.0637 -0.5085  0.0296
   94MOL   C27828364   5.842   2.799   7.934 -0.8877 -0.4941 -0.3757
   94MOL   H27928365   5.733   2.835   7.766 -0.8925 -2.6647 -0.8726
   94MOL   H28028366   5.800   2.431   7.567  2.2835  0.0357  0.5548
   94MOL   H28128367   5.777   2.417   7.737  1.6293  1.7138  1.2106
   94MOL   H28228368   5.633   2.266   7.653  0.0730 -0.4972 -0.9678
   94MOL   H28328369   5.551   2.389   7.746  1.8069 -0.0341  0.8695
   94MOL   H28428370   5.522   2.382   7.572 -0.8357  0.3758  0.9151
   94MOL   H28528371   5.830   2.905   0.013  3.2345 -0.2971  1.2336
   94MOL   H28628372   5.756   2.744   0.027 -1.6235  1.5066  0.9336
   94MOL   C28728373   5.974   2.744   0.048 -0.6293  0.2713  0.0898
   94MOL   O28828374   6.013   2.848   0.142 -0.6640  0.3335  0.5817
   94MOL   C28928375   6.081   2.958   0.103 -0.4441 -0.2404 -0.5657
   94MOL   O29028376   6.142   2.972   7.941  0.5920  0.5013 -0.3968
   94MOL   C29128377   6.079   3.077   0.203 -0.3205  0.4352  0.8287
   94MOL   C29228378   5.956   3.174   0.172  0.2839  0.4104  0.0326
   94MOL   C29328379   5.955   2.615   0.132 -0.1829 -0.6797 -0.1208
   94MOL   H29428380   6.050   2.733   7.915  0.1283  1.0888  0.7058
   94MOL   H29528381   6.095   3.034   0.303  2.2002  0.6989  0.5671
   94MOL   H29628382   6.163   3.145   0.186  0.2403 -0.1880  1.0466
   94MOL   H29728383   5.922   3.254   0.237 -0.6556  0.8657 -1.0002
   94MOL   H29828384   5.989   3.229   0.084  1.5694  0.8142  0.7530
   94MOL   H29928385   5.879   3.106   0.134  1.0473 -0.6788  0.4026
   94MOL   H30028386   5.912   2.634   0.230  0.8441  1.0561  0.0083
   94MOL   H30128387   5.886   2.548   0.082 -2.1727  1.1150  0.1739
   94MOL   H30228388   6.053   2.568   0.148  1.6083  3.1691  0.8218
   95MOL     C128389   3.201   4.231   0.083  0.3265 -1.3389 -0.1640
   95MOL     O228390   3.157   4.145   7.928 -0.2262 -0.2996  0.9154
   95MOL     C328391   3.119   4.199   7.813 -0.1401 -0.5776 -0.1265
   95MOL     O428392   3.128   4.317   7.785  0.4643  0.4219 -0.0212
   95MOL     C528393   3.058   4.098   7.724 -0.0925  0.3591  0.6378
   95MOL     C628394   3.023   4.158   7.584  0.2528 -0.3871  0.1927
   95MOL     C728395   3.174   4.172   0.215 -0.2637 -0.1003  0.2186
   95MOL     H828396   3.158   4.330   0.072 -0.6548 -1.8742 -1.1615
   95MOL     H928397   3.142   4.028   7.718 -1.3069 -1.0159 -0.8120
   95MOL    H1028398   2.965   4.049   7.752  0.5397 -0.8486  0.7014
   95MOL    H1128399   3.110   4.173   7.520 -0.7265 -2.4356 -1.6852
   95MOL    H1228400   2.957   4.096   7.524 -0.9798  1.6749 -0.6305
   95MOL    H1328401   2.979   4.257   7.594  1.3738  0.0413  0.9778
   95MOL    H1428402   3.204   4.241   0.294  1.2056 -1.1174  0.5657
   95MOL    H1528403   3.068   4.149   0.230 -0.7262  2.1956  0.6529
   95MOL    H1628404   3.308   4.252   0.075 -0.1322  0.6596 -1.4768
   95MOL    C1728405   3.255   4.037   0.232  0.3617  0.2471  0.1592
   95MOL    O1828406   3.391   4.078   0.254  0.4584  0.7988 -0.2006
   95MOL    C1928407   3.493   3.997   0.215  0.0543 -0.6814  0.3737
   95MOL    O2028408   3.480   3.880   0.177  0.2208 -0.4820 -0.4890
   95MOL    C2128409   3.631   4.055   0.243  0.3772 -0.3461  0.1183
   95MOL    C2228410   3.633   4.199   0.183 -0.2469  0.2287 -0.6497
   95MOL    C2328411   3.219   3.968   0.365 -0.4050  0.8290 -0.9617
   95MOL    H2428412   3.251   3.962   0.153 -1.5284 -0.0214  0.4890
   95MOL    H2528413   3.673   4.061   0.343 -1.6444  0.3290  0.9423
   95MOL    H2628414   3.696   3.991   0.184  0.0589 -0.4247 -0.1446
   95MOL    H2728415   3.722   4.245   0.139 -0.4882  0.8704 -0.4615
   95MOL    H2828416   3.574   4.202   0.091 -2.7639  0.2913  0.9348
   95MOL    H2928417   3.582   4.262   0.255  0.9522  0.6008 -0.1149
   95MOL    H3028418   3.299   3.902   0.400  0.7081  1.6458 -1.9391
   95MOL    H3128419   3.209   4.060   0.422  0.9273  1.9748 -2.5317
   95MOL    C3228420   3.079   3.896   0.363 -0.4772 -0.3909  0.1229
   95MOL    O3328421   3.089   3.775   0.286  0.4499 -0.3956 -0.8764
   95MOL    C3428422   3.063   3.774   0.154 -0.0026  0.0731  0.0192
   95MOL    O3528423   3.049   3.862   0.078 -0.4088 -0.4995  0.2389
   95MOL    C3628424   3.066   3.627   0.098  0.0591 -0.3388 -0.4708
   95MOL    C3728425   2.955   3.527   0.138  0.6283 -0.2159 -1.0101
   95MOL    C3828426   3.036   3.838   0.503 -0.2483 -0.3829  0.6409
   95MOL    H3928427   3.005   3.963   0.319 -0.8325 -0.4378  0.6438
   95MOL    H4028428   3.063   3.638   7.934 -3.5351  2.5262 -0.1793
   95MOL    H4128429   3.162   3.580   0.120 -0.5342 -1.5347 -0.3967
   95MOL    H4228430   2.992   3.425   0.126  0.8298 -0.3018  0.2315
   95MOL    H4328431   2.922   3.536   0.242 -0.7579 -1.2145 -1.3466
   95MOL    H4428432   2.869   3.537   0.072  0.0865  0.5853 -0.2015
   95MOL    H4528433   2.943   3.784   0.482  0.1382  0.6387 -4.2998
   95MOL    H4628434   3.114   3.766   0.527 -0.0176 -1.0029 -1.8087
   95MOL    C4728435   3.009   3.949   0.608  0.2012 -0.1718 -0.7836
   95MOL    O4828436   2.899   4.037   0.588 -0.0038  0.0102  0.0530
   95MOL    C4928437   2.920   4.157   0.529  0.2277 -0.3894 -0.1678
   95MOL    O5028438   3.024   4.218   0.512 -0.2287  0.3201  0.7503
   95MOL    C5128439   2.793   4.233   0.497 -0.0905 -0.3075  0.1153
   95MOL    C5228440   2.732   4.288   0.628  0.6044  0.5589  0.2550
   95MOL    C5328441   2.974   3.891   0.747  0.1977 -0.0123  0.3047
   95MOL    H5428442   3.104   4.003   0.617 -0.2853  0.3070  2.1618
   95MOL    H5528443   2.820   4.308   0.422  0.2283 -0.2393  0.2988
   95MOL    H5628444   2.726   4.166   0.443  1.0350  1.0521 -3.0855
   95MOL    H5728445   2.800   4.333   0.700  1.3938 -1.0134  0.5260
   95MOL    H5828446   2.650   4.356   0.607 -0.5408 -0.8306  0.1542
   95MOL    H5928447   2.680   4.205   0.675 -0.1313 -0.2495 -1.9338
   95MOL    H6028448   2.893   3.820   0.733  0.6723 -0.5258  0.1097
   95MOL    H6128449   3.057   3.824   0.768  0.0236  0.1986  1.6749
   95MOL    C6228450   2.946   3.996   0.860  0.1250  0.1028 -0.7001
   95MOL    O6328451   2.894   3.931   0.979 -0.5304 -0.4960  0.1486
   95MOL    C6428452   2.763   3.908   0.992  1.1680  0.1666  0.3360
   95MOL    O6528453   2.682   3.955   0.917 -0.9918  0.0414  0.4344
   95MOL    C6628454   2.719   3.805   1.097 -0.1090  0.0892 -0.6357
   95MOL    C6728455   2.760   3.663   1.063 -0.2119  0.5824  0.9478
   95MOL    C6828456   3.071   4.061   0.910 -0.0900 -0.7288 -0.2737
   95MOL    H6928457   2.884   4.083   0.839  1.0077  0.9367  0.0866
   95MOL    H7028458   2.765   3.836   1.191 -0.9146  1.8597 -0.8092
   95MOL    H7128459   2.612   3.809   1.116  0.1751  1.1489  0.8665
   95MOL    H7228460   2.853   3.649   1.118  0.1566 -1.4884 -0.1417
   95MOL    H7328461   2.699   3.581   1.101  1.6577 -0.6445  1.3344
   95MOL    H7428462   2.759   3.643   0.956 -0.6933 -1.4422  1.3067
   95MOL    H7528463   3.125   3.995   0.978  0.4420 -0.0190 -0.0097
   95MOL    H7628464   3.140   4.068   0.826 -0.5563  0.1296 -0.5871
   95MOL    C7728465   3.049   4.204   0.973 -0.2433 -0.0983 -0.3299
   95MOL    O7828466   2.943   4.207   1.062  0.4239  0.1784 -0.5293
   95MOL    C7928467   2.858   4.309   1.057  0.6239 -0.2162  0.7459
   95MOL    O8028468   2.890   4.419   1.014  0.0807  0.2294  0.3856
   95MOL    C8128469   2.716   4.289   1.112 -0.1840  0.0452  0.3551
   95MOL    C8228470   2.656   4.408   1.179  0.2434 -0.4307  0.4626
   95MOL    C8328471   3.178   4.267   1.044  0.2890 -0.9170 -0.2081
   95MOL    H8428472   3.014   4.259   0.886 -0.8134 -0.3088 -0.2357
   95MOL    H8528473   2.648   4.285   1.027  1.1331  1.7636 -0.8015
   95MOL    H8628474   2.729   4.201   1.175 -1.3574 -0.6938 -0.4235
   95MOL    H8728475   2.549   4.406   1.163 -0.0452 -0.1992  2.2182
   95MOL    H8828476   2.671   4.405   1.287 -0.2381  1.7459  0.6287
   95MOL    H8928477   2.689   4.504   1.138 -0.6243  0.1528  1.1257
   95MOL    H9028478   3.154   4.367   1.082  1.9389 -1.5952  2.6905
   95MOL    H9128479   3.202   4.211   1.133  1.5616 -0.1681 -0.0709
   95MOL    C9228480   3.306   4.269   0.959  0.5892 -0.2907 -0.0808
   95MOL    O9328481   3.279   4.357   0.847 -0.4406  0.3082 -0.4996
   95MOL    C9428482   3.279   4.320   0.720 -0.7178  0.5516 -0.8260
   95MOL    O9528483   3.293   4.205   0.678 -0.5120 -0.0335  0.2054
   95MOL    C9628484   3.260   4.433   0.626 -0.3473  0.7079 -1.0284
   95MOL    C9728485   3.317   4.573   0.670  0.5423  0.2113  0.0251
   95MOL    C9828486   3.439   4.317   1.029  1.0684  0.1976  0.0909
   95MOL    H9928487   3.322   4.170   0.916  0.9857 -0.8761  1.3857
   95MOL   H10028488   3.299   4.407   0.528  0.9913 -2.5227  0.2839
   95MOL   H10128489   3.153   4.449   0.615 -0.2597  2.6021  0.5061
   95MOL   H10228490   3.421   4.568   0.639  0.9921 -0.9216  1.6278
   95MOL   H10328491   3.271   4.651   0.609  0.0315  0.1674  0.3524
   95MOL   H10428492   3.306   4.611   0.772 -2.4828  1.5562 -0.7268
   95MOL   H10528493   3.432   4.425   1.047 -0.4211 -0.4155  3.6173
   95MOL   H10628494   3.435   4.274   1.129  1.1776 -0.3187 -0.1234
   95MOL   C10728495   3.570   4.263   0.970 -0.1849 -0.0640  0.1813
   95MOL   O10828496   3.600   4.322   0.848  0.2772 -0.3301 -0.1623
   95MOL   C10928497   3.633   4.249   0.737 -0.8152  0.6486  0.0476
   95MOL   O11028498   3.648   4.123   0.731 -0.3437  0.1277  0.2062
   95MOL   C11128499   3.632   4.317   0.611 -0.2848  0.4467  0.5280
   95MOL   C11228500   3.777   4.322   0.553  0.4269  0.8267  0.0800
   95MOL   C11328501   3.691   4.277   1.068 -0.3259 -0.0080 -0.8686
   95MOL   H11428502   3.545   4.157   0.961 -0.7635  0.2741 -2.5242
   95MOL   H11528503   3.566   4.264   0.542 -0.0299  1.3584 -0.4456
   95MOL   H11628504   3.590   4.418   0.606  0.7619  0.7764 -3.2626
   95MOL   H11728505   3.849   4.344   0.632 -1.3551  1.4317  1.5695
   95MOL   H11828506   3.805   4.224   0.515 -2.7073 -0.2165  0.3112
   95MOL   H11928507   3.768   4.392   0.470 -4.0679 -0.6551 -0.8517
   95MOL   H12028508   3.696   4.382   1.098  1.7068 -0.3430  0.0230
   95MOL   H12128509   3.660   4.213   1.150 -0.4376  1.1849  0.0394
   95MOL   C12228510   3.840   4.233   1.026 -0.4251  0.2698 -0.5904
   95MOL   O12328511   3.927   4.280   1.121  0.2663 -0.7355 -0.7345
   95MOL   C12428512   4.028   4.361   1.090  0.1647 -0.0168 -0.2968
   95MOL   O12528513   4.067   4.402   0.982  0.4918  0.6450 -0.2005
   95MOL   C12628514   4.108   4.408   1.212 -0.4993  0.9434  0.5916
   95MOL   C12728515   4.139   4.291   1.300  0.4051 -0.6990 -0.2229
   95MOL   C12828516   3.858   4.079   1.010  0.3600 -0.1847 -0.1390
   95MOL   H12928517   3.864   4.277   0.929  0.2646  1.8877  0.2983
   95MOL   H13028518   4.204   4.454   1.186  1.1884 -1.4056  2.4541
   95MOL   H13128519   4.061   4.487   1.271  0.9608  1.3603  1.2176
   95MOL   H13228520   4.188   4.214   1.241  1.8522  0.3395 -0.4084
   95MOL   H13328521   4.222   4.314   1.367  0.7512  0.3891 -1.0066
   95MOL   H13428522   4.060   4.241   1.356  1.4681 -0.4421  1.5611
   95MOL   H13528523   3.862   4.029   1.107 -0.5651 -0.7459 -0.3821
   95MOL   H13628524   3.781   4.037   0.946  1.1170 -1.7569 -0.0432
   95MOL   C13728525   3.990   4.041   0.942 -0.9188 -0.5411  0.0043
   95MOL   O13828526   4.038   3.910   0.975  0.2622 -0.0146  0.0937
   95MOL   C13928527   4.109   3.893   1.087 -0.3429 -0.0393 -0.2148
   95MOL   O14028528   4.123   3.979   1.167 -0.1774 -0.5416 -0.0598
   95MOL   C14128529   4.162   3.751   1.105  1.1487  0.3428 -0.6792
   95MOL   C14228530   4.055   3.639   1.094 -0.3914  0.1823 -0.4245
   95MOL   C14328531   3.977   4.035   0.791 -0.1219 -0.0977  0.1075
   95MOL   H14428532   4.067   4.111   0.974 -0.8485 -1.2358  1.4125
   95MOL   H14528533   4.239   3.736   1.029 -0.4130  0.7561 -2.3833
   95MOL   H14628534   4.216   3.741   1.199 -1.4363  0.8996  0.9074
   95MOL   H14728535   4.013   3.638   0.994 -0.7421  0.6801 -0.2868
   95MOL   H14828536   4.105   3.543   1.105  1.9461  1.6350  2.3290
   95MOL   H14928537   3.967   3.646   1.159 -0.8861  0.2792 -1.1001
   95MOL   H15028538   3.927   3.944   0.761 -1.1428  1.3189 -2.5992
   95MOL   H15128539   3.909   4.114   0.759  0.5027  2.1064  3.8188
   95MOL   C15228540   4.111   4.037   0.724 -0.8496 -0.4218  0.3433
   95MOL   O15328541   4.090   3.997   0.592 -0.7781 -0.0819  0.0458
   95MOL   C15428542   4.091   3.860   0.553  0.4398 -0.0483  0.2135
   95MOL   O15528543   4.107   3.757   0.625  0.3090  0.1605 -0.2318
   95MOL   C15628544   4.073   3.851   0.400  0.3216 -0.3835 -0.2972
   95MOL   C15728545   3.938   3.903   0.346 -0.4016  0.1488  0.2289
   95MOL   C15828546   4.170   4.178   0.733 -0.3983 -0.7265  0.1315
   95MOL   H15928547   4.181   3.964   0.766 -1.2108 -0.7096  0.4443
   95MOL   H16028548   4.165   3.890   0.357  1.7444 -1.6635  1.5016
   95MOL   H16128549   4.075   3.745   0.372  2.3253 -0.4477  0.0511
   95MOL   H16228550   3.847   3.863   0.391 -0.5425  1.6958  1.3646
   95MOL   H16328551   3.932   4.011   0.360  1.8341  0.3676 -0.3705
   95MOL   H16428552   3.936   3.876   0.241  1.2571 -0.2719  0.2886
   95MOL   H16528553   4.104   4.247   0.680 -0.4609 -0.8973 -0.0135
   95MOL   H16628554   4.188   4.206   0.837 -0.8243 -0.6859  0.1978
   95MOL   C16728555   4.299   4.191   0.657 -0.2813 -0.4687 -0.4305
   95MOL   O16828556   4.262   4.214   0.516  0.5261  0.1583  0.0326
   95MOL   C16928557   4.353   4.202   0.407 -0.3676  0.3116  0.3323
   95MOL   O17028558   4.464   4.155   0.421  0.4054 -0.3591 -0.0681
   95MOL   C17128559   4.295   4.235   0.269  0.5506  0.5269  0.2010
   95MOL   C17228560   4.143   4.217   0.263  0.7466  0.2978 -0.0473
   95MOL   C17328561   4.386   4.299   0.720 -0.4635 -0.0416  0.5907
   95MOL   H17428562   4.351   4.095   0.655  1.6110  0.5582 -2.5161
   95MOL   H17528563   4.318   4.338   0.243 -0.4281  0.3360 -1.4861
   95MOL   H17628564   4.328   4.162   0.195 -1.1807 -1.3172  1.2185
   95MOL   H17728565   4.098   4.238   0.166 -0.5510  1.4519  0.7778
   95MOL   H17828566   4.120   4.114   0.290 -1.3510  0.9496  0.7663
   95MOL   H17928567   4.093   4.272   0.343  0.7952  0.2648  0.0057
   95MOL   H18028568   4.459   4.326   0.644 -2.1854 -0.0662 -1.0985
   95MOL   H18128569   4.330   4.392   0.727 -1.1112 -0.3913  0.1317
   95MOL   C18228570   4.447   4.252   0.855  0.2700 -0.1813  0.0920
   95MOL   O18328571   4.536   4.144   0.847  0.3200  0.1606 -0.1970
   95MOL   C18428572   4.495   4.023   0.880  0.3749  0.3124 -1.4255
   95MOL   O18528573   4.383   4.001   0.925 -0.3648  0.3118 -0.3281
   95MOL   C18628574   4.594   3.913   0.852  0.2764  0.0126 -0.1219
   95MOL   C18728575   4.534   3.771   0.871  0.0340  0.4415  0.2121
   95MOL   C18828576   4.527   4.374   0.916  0.0058  0.3347 -0.0459
   95MOL   H18928577   4.363   4.237   0.923 -1.4723  1.2865 -1.6578
   95MOL   H19028578   4.621   3.925   0.747  2.3661  1.8958  0.5936
   95MOL   H19128579   4.687   3.914   0.909 -0.5158 -0.1325  1.1901
   95MOL   H19228580   4.507   3.729   0.968  2.2212  0.0141  0.6641
   95MOL   H19328581   4.456   3.762   0.796 -0.6970  2.5234  0.6836
   95MOL   H19428582   4.607   3.698   0.835  0.2915  2.1121 -2.8176
   95MOL   H19528583   4.616   4.401   0.860 -0.5815  2.2441 -0.0952
   95MOL   H19628584   4.470   4.467   0.912  0.3000  0.5745  1.0262
   95MOL   C19728585   4.568   4.354   1.061 -0.3381 -0.7128  0.3008
   95MOL   O19828586   4.681   4.265   1.060 -0.5433 -0.2446 -0.5571
   95MOL   C19928587   4.695   4.176   1.157 -1.1452  0.1375 -0.7294
   95MOL   O20028588   4.627   4.164   1.260 -0.3512  0.1777  0.0137
   95MOL   C20128589   4.820   4.094   1.142 -0.5963 -0.0284 -0.6672
   95MOL   C20228590   4.948   4.172   1.172 -0.3722  0.2226  0.1916
   95MOL   C20328591   4.609   4.493   1.131 -0.0383 -0.0077 -0.6910
   95MOL   H20428592   4.476   4.323   1.110 -0.8130 -0.7922 -0.6346
   95MOL   H20528593   4.809   4.009   1.210 -0.6562 -0.3856 -1.1194
   95MOL   H20628594   4.828   4.059   1.039  0.8394 -1.6995 -0.0162
   95MOL   H20728595   4.986   4.224   1.085 -0.1351  1.4068  0.9990
   95MOL   H20828596   4.940   4.227   1.265 -1.3518 -2.4340  1.7360
   95MOL   H20928597   5.030   4.103   1.192 -1.5945 -1.2196  0.3172
   95MOL   H21028598   4.707   4.481   1.177 -0.0945  1.4146 -0.1675
   95MOL   H21128599   4.626   4.566   1.052 -0.5534  0.0221 -0.7753
   95MOL   C21228600   4.512   4.561   1.230 -0.0603  1.0213  0.1410
   95MOL   O21328601   4.384   4.595   1.170 -0.1169 -0.2573  0.0253
   95MOL   C21428602   4.372   4.714   1.107 -0.6176  0.3295 -0.3056
   95MOL   O21528603   4.454   4.797   1.081 -0.2089 -0.4740 -0.0334
   95MOL   C21628604   4.229   4.728   1.041  0.1450 -0.3600  0.3229
   95MOL   C21728605   4.236   4.724   0.895 -0.1139  0.0857  0.4519
   95MOL   C21828606   4.479   4.472   1.356  0.5693  0.0906 -0.0332
   95MOL   H21928607   4.556   4.649   1.276  1.8839  0.9402 -1.5188
   95MOL   H22028608   4.164   4.651   1.082  0.7581 -0.1428  1.7320
   95MOL   H22128609   4.189   4.819   1.086 -3.0126 -1.5415  0.0489
   95MOL   H22228610   4.280   4.627   0.873  0.0526 -0.1843  1.9228
   95MOL   H22328611   4.129   4.726   0.873 -0.1325  0.7067  0.5803
   95MOL   H22428612   4.288   4.816   0.868 -0.8196 -0.1366 -1.7031
   95MOL   H22528613   4.394   4.510   1.413 -0.6665  0.2916 -1.9725
   95MOL   H22628614   4.439   4.381   1.310  1.6856  0.5850 -2.0361
   95MOL   C22728615   4.599   4.438   1.441 -0.6456 -0.2477 -0.1541
   95MOL   O22828616   4.622   4.558   1.517  0.1682  0.2916 -0.0308
   95MOL   C22928617   4.743   4.629   1.510 -0.1142  0.0456 -1.1446
   95MOL   O23028618   4.846   4.592   1.448 -0.2695 -0.2827  0.6248
   95MOL   C23128619   4.739   4.765   1.580 -0.7841  0.3464 -0.1272
   95MOL   C23228620   4.638   4.865   1.517  0.4392 -0.1521 -0.3602
   95MOL   C23328621   4.572   4.320   1.547  0.0213  0.0061 -0.0631
   95MOL   H23428622   4.684   4.403   1.382 -1.9554  1.0476 -2.9376
   95MOL   H23528623   4.724   4.749   1.687 -0.4070  1.1543  0.0476
   95MOL   H23628624   4.833   4.812   1.554 -1.6944  1.4850 -1.4133
   95MOL   H23728625   4.569   4.911   1.588 -0.4972  0.4680 -1.6556
   95MOL   H23828626   4.693   4.939   1.457 -0.6373  0.6084 -0.4273
   95MOL   H23928627   4.578   4.813   1.443 -2.1014 -0.0963  1.5864
   95MOL   H24028628   4.482   4.349   1.602 -0.3477 -1.1227 -0.0613
   95MOL   H24128629   4.547   4.232   1.489  0.3546 -0.9345  1.1827
   95MOL   C24228630   4.696   4.285   1.633  0.0551  0.0726  0.3062
   95MOL   O24328631   4.663   4.226   1.756 -0.3393 -0.2008 -0.6594
   95MOL   C24428632   4.707   4.262   1.879 -0.5388  0.0809 -0.4433
   95MOL   O24528633   4.813   4.328   1.899 -0.2299 -0.1211  0.3736
   95MOL   C24628634   4.624   4.195   1.992  0.2993  0.5830  0.0419
   95MOL   C24728635   4.695   4.185   2.122  0.0974 -0.0502 -0.2266
   95MOL   C24828636   4.801   4.201   1.555  0.0718 -0.5506  0.5429
   95MOL   H24928637   4.740   4.382   1.659  1.8060 -0.6026 -0.0427
   95MOL   H25028638   4.541   4.265   2.000  0.0147  0.4028 -1.2773
   95MOL   H25128639   4.580   4.099   1.966 -1.4512  0.7183  2.3839
   95MOL   H25228640   4.773   4.254   2.153 -0.6670  0.9594 -0.5201
   95MOL   H25328641   4.623   4.194   2.203 -1.0900  1.5270 -1.4266
   95MOL   H25428642   4.737   4.084   2.127  0.2503  0.0956  2.0926
   95MOL   H25528643   4.755   4.105   1.534 -0.0913 -0.6186  1.1838
   95MOL   H25628644   4.819   4.249   1.459 -2.6280  1.2492  0.8743
   95MOL   C25728645   4.936   4.171   1.632  0.1771  0.2495  0.0148
   95MOL   O25828646   5.019   4.078   1.559  0.1881  0.7418  0.1266
   95MOL   C25928647   5.015   3.948   1.600  0.0052 -0.0497  0.1568
   95MOL   O26028648   4.933   3.906   1.682 -0.0048  0.2703  0.3209
   95MOL   C26128649   5.107   3.860   1.522  0.3189  0.2487  0.8873
   95MOL   C26228650   5.142   3.885   1.373  0.2255 -0.3512 -0.1894
   95MOL   C26328651   5.019   4.294   1.650 -0.2440  0.3410  0.2741
   95MOL   H26428652   4.904   4.130   1.728 -3.8616 -1.2325 -1.8737
   95MOL   H26528653   5.197   3.857   1.584  0.6918 -1.3681  0.3064
   95MOL   H26628654   5.076   3.756   1.536  0.2013  0.0538 -0.7442
   95MOL   H26728655   5.222   3.822   1.337  1.7096  0.7055  1.1874
   95MOL   H26828656   5.059   3.870   1.304  0.3422 -1.7363 -0.0341
   95MOL   H26928657   5.185   3.985   1.370  1.3877 -0.8791 -1.0639
   95MOL   H27028658   5.059   4.334   1.557  0.2442  0.8006  0.6842
   95MOL   H27128659   4.955   4.370   1.696 -1.9726  0.0730 -1.6229
   95MOL   C27228660   5.129   4.274   1.754  0.3861 -0.0844 -0.3738
   95MOL   O27328661   5.248   4.232   1.690  0.4440  0.6647  0.0906
   95MOL   C27428662   5.327   4.132   1.735  0.1520  0.0104  0.0360
   95MOL   O27528663   5.315   4.072   1.847 -0.4333  0.8842  0.0492
   95MOL   C27628664   5.444   4.106   1.643  0.2122 -0.0221 -0.2386
   95MOL   C27728665   5.578   4.119   1.715  0.3080 -0.4159  0.2916
   95MOL   C27828666   5.161   4.409   1.830  0.2557  0.4350 -0.5075
   95MOL   H27928667   5.100   4.204   1.832  1.0876  0.0808  0.0428
   95MOL   H28028668   5.436   4.009   1.594 -0.9467  0.8780 -1.8729
   95MOL   H28128669   5.438   4.177   1.561 -0.3165  0.4862  0.2394
   95MOL   H28228670   5.660   4.121   1.643 -0.1978  1.1067 -0.2788
   95MOL   H28328671   5.575   4.220   1.756 -1.3761 -1.4804  2.9207
   95MOL   H28428672   5.595   4.037   1.784 -0.4624 -0.9277 -0.1066
   95MOL   H28528673   5.216   4.475   1.763  2.6084 -0.9203  0.0211
   95MOL   H28628674   5.072   4.460   1.865  0.4689  0.5377 -0.1063
   95MOL   C28728675   5.236   4.390   1.961 -0.2395 -0.6397 -0.0589
   95MOL   O28828676   5.272   4.523   2.006 -0.3130  0.2263 -0.4964
   95MOL   C28928677   5.397   4.560   2.013 -0.1717 -0.4705 -0.2471
   95MOL   O29028678   5.494   4.495   1.965 -0.2318 -0.1777  0.2849
   95MOL   C29128679   5.420   4.689   2.084 -0.4267  0.1837  0.3829
   95MOL   C29228680   5.410   4.811   1.986  0.8378  0.6406 -0.1090
   95MOL   C29328681   5.153   4.329   2.074 -0.0493  0.0390 -0.1015
   95MOL   H29428682   5.319   4.321   1.946 -0.6835 -1.1790 -0.0420
   95MOL   H29528683   5.361   4.709   2.173 -0.1313  0.5179  0.5046
   95MOL   H29628684   5.522   4.695   2.124  0.6526  1.7133 -2.4252
   95MOL   H29728685   5.471   4.780   1.902  0.6096 -0.0584 -0.0209
   95MOL   H29828686   5.312   4.829   1.942  0.0748  0.5659  1.5108
   95MOL   H29928687   5.451   4.907   2.018 -2.3590  2.2238 -0.5716
   95MOL   H30028688   5.064   4.391   2.079  0.0519  0.1041  1.1059
   95MOL   H30128689   5.115   4.230   2.051 -0.5830 -0.0517  1.1282
   95MOL   H30228690   5.205   4.331   2.169 -0.7676 -3.1573  0.4288
   96MOL     C128691   7.382   1.037   3.309 -0.3107  0.5135 -0.3407
   96MOL     O228692   7.293   0.928   3.310 -0.0563  0.1966 -0.1928
   96MOL     C328693   7.291   0.839   3.214  0.4982 -0.2684  0.3538
   96MOL     O428694   7.373   0.823   3.127 -0.6450 -0.6720  0.0372
   96MOL     C528695   7.162   0.751   3.216  0.3332 -0.0334  0.0345
   96MOL     C628696   7.054   0.797   3.121 -0.2178  0.2467  0.0772
   96MOL     C728697   7.528   0.996   3.345 -0.6667  0.0591  0.2470
   96MOL     H828698   7.337   1.116   3.369  0.4603 -0.2734  1.2932
   96MOL     H928699   7.201   0.661   3.169 -0.8443 -0.4011 -0.2369
   96MOL    H1028700   7.128   0.731   3.318  1.3779 -2.4464 -0.0550
   96MOL    H1128701   7.099   0.808   3.023 -2.9753 -2.0060 -1.5107
   96MOL    H1228702   6.970   0.730   3.105 -0.6378  0.2580  2.0529
   96MOL    H1328703   7.018   0.898   3.143 -1.3843 -0.2914  0.6684
   96MOL    H1428704   7.531   0.937   3.436 -1.1195 -0.2949  0.0316
   96MOL    H1528705   7.567   0.941   3.259  0.1428 -0.1545  0.7465
   96MOL    H1628706   7.383   1.089   3.213  0.3835  1.4908  0.1835
   96MOL    C1728707   7.626   1.114   3.367 -0.9442 -0.3309 -0.1293
   96MOL    O1828708   7.626   1.201   3.257  0.2973 -0.2668  0.2601
   96MOL    C1928709   7.740   1.240   3.192  0.3071  0.2281  0.1443
   96MOL    O2028710   7.850   1.220   3.224 -0.2725  0.1489 -0.0717
   96MOL    C2128711   7.713   1.337   3.078 -0.5016 -0.5408  0.9425
   96MOL    C2228712   7.640   1.264   2.961 -0.2828  0.1741 -0.3347
   96MOL    C2328713   7.594   1.195   3.492  0.1116 -0.1133  0.1891
   96MOL    H2428714   7.719   1.059   3.387 -1.1641 -0.7337 -0.2049
   96MOL    H2528715   7.653   1.420   3.116 -0.2318 -0.8136  1.9748
   96MOL    H2628716   7.802   1.384   3.035 -0.6140  0.3015  1.5941
   96MOL    H2728717   7.703   1.270   2.872  1.5501  1.0599  1.0141
   96MOL    H2828718   7.634   1.155   2.967  0.8367  0.2490  2.8426
   96MOL    H2928719   7.557   1.326   2.926 -0.2277 -0.7328 -2.1471
   96MOL    H3028720   7.494   1.233   3.473 -0.4383 -0.9560  1.2970
   96MOL    H3128721   7.572   1.135   3.580 -1.3327  1.9686  1.2838
   96MOL    C3228722   7.672   1.329   3.525 -0.3636 -0.7404  1.1277
   96MOL    O3328723   7.611   1.410   3.625 -0.2988 -0.2092 -0.8905
   96MOL    C3428724   7.519   1.498   3.587 -0.4280  0.0378 -0.7712
   96MOL    O3528725   7.475   1.517   3.473  0.7963  0.3790  0.1683
   96MOL    C3628726   7.462   1.567   3.707 -0.2550 -0.4524  0.6934
   96MOL    C3728727   7.557   1.652   3.789  0.0200  0.9704  0.3587
   96MOL    C3828728   7.823   1.308   3.566 -1.0388  0.6059  0.1776
   96MOL    H3928729   7.671   1.390   3.434  0.6755 -0.8326  1.0535
   96MOL    H4028730   7.395   1.635   3.653  0.7046 -0.0755 -0.0383
   96MOL    H4128731   7.394   1.506   3.766 -2.1261  0.0663 -0.8728
   96MOL    H4228732   7.506   1.671   3.884  1.6675 -0.3170  1.5263
   96MOL    H4328733   7.651   1.602   3.810  0.4110  0.5154 -2.3100
   96MOL    H4428734   7.588   1.744   3.739  0.8708  1.0211  0.9660
   96MOL    H4528735   7.829   1.261   3.664  0.5299  2.1445  0.8350
   96MOL    H4628736   7.862   1.240   3.489  0.0319  3.1903 -1.6287
   96MOL    C4728737   7.900   1.436   3.553  0.5477  0.2405  0.6647
   96MOL    O4828738   0.083   1.427   3.613  0.1996  0.4308  0.0538
   96MOL    C4928739   0.092   1.468   3.741 -0.5983 -0.5324  0.0155
   96MOL    O5028740   7.941   1.488   3.821 -0.5463  0.3016 -0.2614
   96MOL    C5128741   0.237   1.479   3.790 -0.6912  0.0774  0.0963
   96MOL    C5228742   0.257   1.437   3.938 -0.3426 -0.2350 -0.2100
   96MOL    C5328743   7.917   1.483   3.401  0.3278  1.0175  0.3976
   96MOL    H5428744   7.835   1.510   3.599  0.2993  0.6687 -0.3504
   96MOL    H5528745   0.298   1.416   3.726  0.6936  1.6167 -0.1221
   96MOL    H5628746   0.264   1.583   3.776  0.0249 -0.0256  0.6264
   96MOL    H5728747   0.361   1.448   3.969 -1.3332  0.2639  3.0889
   96MOL    H5828748   0.196   1.494   4.008  4.0949  1.6005  2.3566
   96MOL    H5928749   0.230   1.331   3.937  1.3733 -0.6869 -0.0601
   96MOL    H6028750   0.031   1.410   3.345  1.9653  3.5528 -1.2760
   96MOL    H6128751   7.824   1.485   3.344  1.6552  1.6658 -1.8300
   96MOL    C6228752   0.039   1.614   3.378 -0.1628 -1.1204 -0.2053
   96MOL    O6328753   0.035   1.634   3.236  0.1629  0.2974 -0.0650
   96MOL    C6428754   0.153   1.637   3.170  0.4100 -0.1099 -0.8787
   96MOL    O6528755   0.262   1.597   3.225 -0.4381 -0.2122 -0.1173
   96MOL    C6628756   0.143   1.690   3.025 -0.4981  0.3478  0.8009
   96MOL    C6728757   0.040   1.615   2.940 -0.6830 -0.0056  0.0665
   96MOL    C6828758   7.911   1.738   3.441 -0.3183  0.0267 -0.3532
   96MOL    H6928759   0.139   1.613   3.420 -0.6453  0.3880  0.9998
   96MOL    H7028760   0.116   1.795   3.037  0.6621  0.5579  1.7177
   96MOL    H7128761   0.241   1.695   2.977  0.3615 -1.6527  2.2579
   96MOL    H7228762   0.058   1.508   2.931  0.1123  0.2003 -0.8214
   96MOL    H7328763   7.882   1.632   2.972  0.3754  3.8949  1.7147
   96MOL    H7428764   0.057   1.656   2.840 -0.6316  0.1366  0.1326
   96MOL    H7528765   7.826   1.772   3.381 -0.5602  0.8334  0.4443
   96MOL    H7628766   7.880   1.706   3.540  0.1898  0.5905 -0.0094
   96MOL    C7728767   0.070   1.855   3.446  0.0768  0.3468 -0.0397
   96MOL    O7828768   0.006   1.976   3.414 -0.6982 -0.3147 -0.3672
   96MOL    C7928769   7.930   2.014   3.287  0.7981 -0.0589 -0.8108
   96MOL    O8028770   0.039   1.965   3.189  0.3451 -0.3292  0.4915
   96MOL    C8128771   7.846   2.140   3.262 -0.1808  0.4173 -0.0465
   96MOL    C8228772   7.785   2.197   3.391 -0.4489 -0.5541 -0.5146
   96MOL    C8328773   0.126   1.863   3.587 -0.6115 -0.0760 -0.0929
   96MOL    H8428774   0.154   1.829   3.381  0.2251 -0.5081  0.4865
   96MOL    H8528775   7.911   2.205   3.203  0.7196 -1.9431 -1.7063
   96MOL    H8628776   7.758   2.117   3.202 -0.3720  0.3364  0.2640
   96MOL    H8728777   7.711   2.275   3.378 -2.0972 -2.0101 -0.0571
   96MOL    H8828778   7.727   2.126   3.450  0.0284  0.1522  0.8283
   96MOL    H8928779   7.861   2.228   3.463  0.1852 -0.9596 -1.0084
   96MOL    H9028780   0.063   1.918   3.657 -0.7321  0.3755 -0.5550
   96MOL    H9128781   0.148   1.761   3.619 -0.4082 -0.0679 -0.2049
   96MOL    C9228782   0.261   1.938   3.604 -0.1230 -0.6137  0.9806
   96MOL    O9328783   0.291   1.920   3.746  0.3182 -0.0943 -0.3599
   96MOL    C9428784   0.293   2.021   3.825  0.4001 -0.3088  0.1147
   96MOL    O9528785   0.285   2.138   3.793 -0.0610  0.2791 -0.4880
   96MOL    C9628786   0.309   1.971   3.969  0.3723  0.3170 -0.3047
   96MOL    C9728787   0.443   1.906   4.007  0.5335  0.0930 -0.1811
   96MOL    C9828788   0.373   1.892   3.514 -0.3204 -0.5995  0.7691
   96MOL    H9928789   0.244   2.044   3.586 -1.8532 -0.6767  2.0582
   96MOL   H10028790   0.300   2.062   4.029 -0.5563  0.9898 -1.4266
   96MOL   H10128791   0.231   1.902   4.001  0.0106 -0.6587 -3.1151
   96MOL   H10228792   0.465   1.900   4.113  0.4952  1.8454 -0.0596
   96MOL   H10328793   0.448   1.804   3.970 -1.0550  0.3025 -1.0125
   96MOL   H10428794   0.506   1.964   3.939  0.0886 -0.8340 -1.3990
   96MOL   H10528795   0.375   1.784   3.529 -0.4375 -0.9253 -1.4067
   96MOL   H10628796   0.361   1.909   3.407 -0.7946 -3.8141  0.2391
   96MOL   C10728797   0.513   1.951   3.555  0.1792  0.0881  0.0060
   96MOL   O10828798   0.612   1.886   3.482 -0.2939  0.4151 -0.1134
   96MOL   C10928799   0.659   1.766   3.524  0.3471  0.7642  0.7422
   96MOL   O11028800   0.623   1.701   3.623 -0.6440 -0.1701  0.0499
   96MOL   C11128801   0.771   1.723   3.435  0.3777  0.7692 -0.4561
   96MOL   C11228802   0.818   1.580   3.441 -0.3386 -0.3208 -0.9891
   96MOL   C11328803   0.541   2.105   3.540 -0.3279 -0.0460 -0.1965
   96MOL   H11428804   0.534   1.931   3.660 -2.0872  0.8573  0.6369
   96MOL   H11528805   0.733   1.746   3.335  0.3427  2.1694 -0.1381
   96MOL   H11628806   0.843   1.803   3.454 -1.8235  2.6212  0.2443
   96MOL   H11728807   0.854   1.560   3.542  1.1390  0.6750 -1.3079
   96MOL   H11828808   0.742   1.509   3.408 -1.1304  0.5607 -1.0803
   96MOL   H11928809   0.901   1.572   3.371  1.3472 -0.7195  1.0085
   96MOL   H12028810   0.591   2.126   3.446 -1.0572  2.0852 -0.1409
   96MOL   H12128811   0.446   2.157   3.529 -0.8289 -1.2056 -1.3987
   96MOL   C12228812   0.620   2.168   3.657 -0.1105 -0.2357  0.1852
   96MOL   O12328813   0.741   2.087   3.671 -0.0098 -0.9046  0.4927
   96MOL   C12428814   0.789   2.040   3.791  0.5269 -0.5339 -0.5527
   96MOL   O12528815   0.752   2.064   3.907 -0.3599  0.1103  0.4078
   96MOL   C12628816   0.894   1.936   3.774 -0.5886 -0.8283 -0.0459
   96MOL   C12728817   1.027   1.984   3.747  0.8750  0.6728 -0.2294
   96MOL   C12828818   0.666   2.307   3.624 -0.3267  0.1696 -0.0464
   96MOL   H12928819   0.563   2.166   3.750 -0.5934 -1.0514 -0.1302
   96MOL   H13028820   0.875   1.881   3.866 -1.2715  1.2710  1.1008
   96MOL   H13128821   0.868   1.877   3.686  0.8261 -0.9929 -0.3707
   96MOL   H13228822   1.060   2.060   3.818  0.0477  0.5190  0.3270
   96MOL   H13328823   1.090   1.897   3.765 -0.8872 -0.1738  1.9454
   96MOL   H13428824   1.036   2.024   3.646 -2.2534  2.0123 -0.0260
   96MOL   H13528825   0.749   2.327   3.692 -0.6533 -1.3334  0.8239
   96MOL   H13628826   0.684   2.315   3.517  1.5098 -0.7596  0.1722
   96MOL   C13728827   0.560   2.416   3.656  0.5681  0.6935  0.0859
   96MOL   O13828828   0.549   2.426   3.796 -0.1859  0.3040  0.2090
   96MOL   C13928829   0.440   2.469   3.857  0.2207  0.2396  0.3696
   96MOL   O14028830   0.334   2.485   3.800 -0.1518 -0.0405 -0.6618
   96MOL   C14128831   0.447   2.487   4.011 -0.0460  0.2349 -0.2145
   96MOL   C14228832   0.345   2.586   4.068  0.4223 -0.0111  0.3625
   96MOL   C14328833   0.595   2.554   3.593 -0.9529  1.1766  0.1605
   96MOL   H14428834   0.471   2.372   3.610  0.5137  0.7723  0.1154
   96MOL   H14528835   0.435   2.390   4.059 -0.7845 -0.2212 -1.3065
   96MOL   H14628836   0.549   2.517   4.033  0.9111 -1.8431 -1.7158
   96MOL   H14728837   0.380   2.683   4.034  0.2636 -0.1072 -0.0750
   96MOL   H14828838   0.251   2.564   4.017  0.6612 -0.3219  0.0533
   96MOL   H14928839   0.331   2.593   4.176 -0.6995  0.4073  0.2018
   96MOL   H15028840   0.672   2.594   3.659  0.7359 -2.0940  0.2399
   96MOL   H15128841   0.648   2.536   3.499 -0.7609  1.6752  0.1687
   96MOL   C15228842   0.469   2.646   3.557 -0.8225 -0.1146  0.6144
   96MOL   O15328843   0.458   2.741   3.661  0.3943  0.6282  0.0645
   96MOL   C15428844   0.341   2.803   3.683  0.0902 -0.5005 -0.3805
   96MOL   O15528845   0.244   2.791   3.607 -0.1040 -0.2614 -0.0320
   96MOL   C15628846   0.333   2.899   3.804 -0.1455  0.2792 -0.4921
   96MOL   C15728847   0.196   2.920   3.867 -0.6496 -0.1700  0.3784
   96MOL   C15828848   0.481   2.707   3.414 -0.2263  0.1900 -0.6464
   96MOL   H15928849   0.384   2.578   3.552 -2.1254  1.5058  0.0350
   96MOL   H16028850   0.402   2.869   3.883 -0.8762  1.9660  0.8209
   96MOL   H16128851   0.368   3.001   3.788 -0.3572  0.1370 -1.9131
   96MOL   H16228852   0.125   2.935   3.786 -0.7168  1.1021  0.6664
   96MOL   H16328853   0.166   2.844   3.939  0.9568  0.1912  1.4591
   96MOL   H16428854   0.191   3.014   3.921 -0.8573 -0.3619  0.6970
   96MOL   H16528855   0.410   2.788   3.397 -0.2506  0.3881  0.3934
   96MOL   H16628856   0.578   2.755   3.414 -0.2250  0.2947  2.3110
   96MOL   C16728857   0.473   2.596   3.303  0.0988  0.2828 -0.2674
   96MOL   O16828858   0.336   2.558   3.312  0.6867  0.0821 -0.2098
   96MOL   C16928859   0.300   2.425   3.310  0.4014 -0.0610 -0.3863
   96MOL   O17028860   0.372   2.323   3.311 -0.2593 -0.2653  0.5978
   96MOL   C17128861   0.151   2.394   3.302 -0.2337  0.1032 -0.0429
   96MOL   C17228862   0.069   2.497   3.383  0.5717 -0.1795 -0.4100
   96MOL   C17328863   0.504   2.642   3.159 -0.1560 -0.3752 -0.0872
   96MOL   H17428864   0.537   2.514   3.334  0.1727 -0.1402 -1.5301
   96MOL   H17528865   0.130   2.395   3.195  2.3569  5.7012 -0.6466
   96MOL   H17628866   0.135   2.288   3.326 -3.1906  1.0364  2.4161
   96MOL   H17728867   0.089   2.601   3.357 -2.4129  0.4091 -0.4749
   96MOL   H17828868   7.911   2.481   3.351  1.7946 -2.0509 -3.6538
   96MOL   H17928869   0.094   2.499   3.489  0.2852 -2.4103 -0.2799
   96MOL   H18028870   0.449   2.569   3.099  1.6945 -2.2573  0.4704
   96MOL   H18128871   0.443   2.729   3.131 -2.8915 -1.8178  1.1766
   96MOL   C18228872   0.644   2.693   3.114  0.2416  0.7518 -0.6116
   96MOL   O18328873   0.745   2.592   3.128  0.3814 -0.2545 -0.4477
   96MOL   C18428874   0.839   2.606   3.220 -0.2579 -0.5162 -0.1375
   96MOL   O18528875   0.836   2.693   3.306  0.2544 -0.1097 -0.3532
   96MOL   C18628876   0.950   2.502   3.204  0.0182  0.6151  0.0221
   96MOL   C18728877   0.939   2.414   3.329  0.2402  0.1933 -0.2308
   96MOL   C18828878   0.661   2.738   2.966  0.5499  0.3390 -0.1204
   96MOL   H18928879   0.658   2.780   3.177 -1.0604  0.5835 -0.0665
   96MOL   H19028880   0.920   2.458   3.109 -0.8950  0.7660  0.2347
   96MOL   H19128881   1.045   2.551   3.187  1.7513 -2.6889 -0.1555
   96MOL   H19228882   0.864   2.335   3.327 -1.2345  1.4942  1.8290
   96MOL   H19328883   1.036   2.373   3.360  1.1807  1.3655 -1.5577
   96MOL   H19428884   0.913   2.474   3.416  0.9273 -1.0001  0.8290
   96MOL   H19528885   0.623   2.840   2.959  0.6435  0.2918 -1.3833
   96MOL   H19628886   0.765   2.767   2.952  0.9546 -1.4165 -0.8734
   96MOL   C19728887   0.604   2.644   2.857  0.1387 -0.3191  0.7465
   96MOL   O19828888   0.466   2.693   2.838  0.3289  0.2526 -0.5268
   96MOL   C19928889   0.366   2.602   2.846 -0.2587 -0.0758 -0.8717
   96MOL   O20028890   0.371   2.480   2.852 -0.5673  0.0532 -0.3773
   96MOL   C20128891   0.234   2.669   2.850 -0.4668  0.9740 -1.0903
   96MOL   C20228892   0.146   2.610   2.960 -0.0766 -0.1080  0.3452
   96MOL   C20328893   0.691   2.642   2.730 -0.0766  1.2195  0.3899
   96MOL   H20428894   0.618   2.540   2.886 -0.6044  0.0503  2.4641
   96MOL   H20528895   0.252   2.773   2.875  0.7345  0.6304 -0.4806
   96MOL   H20628896   0.193   2.659   2.750 -1.0810 -0.2956 -0.7210
   96MOL   H20728897   0.166   2.646   3.061 -0.6117 -2.1068  1.1966
   96MOL   H20828898   0.041   2.635   2.945 -0.1599 -0.3908  0.4496
   96MOL   H20928899   0.155   2.501   2.967 -1.9999 -0.1783  2.5930
   96MOL   H21028900   0.668   2.730   2.671 -1.9295 -0.1605 -0.9981
   96MOL   H21128901   0.796   2.654   2.758 -0.2980  2.0754  0.8610
   96MOL   C21228902   0.674   2.516   2.647 -0.0175 -0.0948 -0.1787
   96MOL   O21328903   0.770   2.520   2.536  0.4050 -0.1340 -0.3768
   96MOL   C21428904   0.724   2.496   2.414 -0.2558 -0.2697 -0.1923
   96MOL   O21528905   0.613   2.455   2.381 -0.5089  0.2081  0.3573
   96MOL   C21628906   0.832   2.522   2.315 -0.3756  0.3294  0.1496
   96MOL   C21728907   0.931   2.403   2.300  0.3062  0.1881 -0.4427
   96MOL   C21828908   0.698   2.377   2.726 -0.0935 -0.2475 -0.0155
   96MOL   H21928909   0.572   2.505   2.611  0.5779 -2.9213 -1.1116
   96MOL   H22028910   0.786   2.550   2.220 -0.9018 -0.7394  0.0779
   96MOL   H22128911   0.900   2.603   2.342  2.1526 -0.1620 -4.1382
   96MOL   H22228912   0.999   2.388   2.383 -0.7287  0.5661  0.4837
   96MOL   H22328913   0.874   2.310   2.303 -0.3541  0.6267  1.0750
   96MOL   H22428914   0.996   2.413   2.213 -0.9077 -1.9170 -1.6507
   96MOL   H22528915   0.805   2.375   2.746  0.0478 -2.0807 -0.8536
   96MOL   H22628916   0.656   2.376   2.826 -0.3720 -0.4913 -0.1349
   96MOL   C22728917   0.651   2.245   2.657  0.0849 -0.0090 -0.8099
   96MOL   O22828918   0.725   2.142   2.712  0.7044  0.2774 -0.3885
   96MOL   C22928919   0.802   2.064   2.637 -0.8145  0.6347  0.1238
   96MOL   O23028920   0.820   2.071   2.519 -0.1280 -0.2625  0.0270
   96MOL   C23128921   0.850   1.945   2.718 -0.1154 -0.6792  0.2871
   96MOL   C23228922   0.871   1.819   2.635 -0.8432  1.0733  0.5781
   96MOL   C23328923   0.503   2.231   2.677 -0.9265 -0.1002 -0.0744
   96MOL   H23428924   0.661   2.247   2.548 -3.1423 -1.7742 -1.2043
   96MOL   H23528925   0.931   1.975   2.785  1.0563  1.6637 -2.0901
   96MOL   H23628926   0.762   1.921   2.777 -0.8848 -1.8470 -1.3094
   96MOL   H23728927   0.976   1.796   2.613 -1.9238 -2.8340 -0.8763
   96MOL   H23828928   0.836   1.731   2.687 -1.3822  1.4722  0.8881
   96MOL   H23928929   0.823   1.829   2.537 -2.3010  0.0001  1.1766
   96MOL   H24028930   0.484   2.226   2.785 -1.8097 -0.1687 -0.2306
   96MOL   H24128931   0.449   2.318   2.643  0.4494  1.1139  0.7825
   96MOL   C24228932   0.441   2.106   2.621  0.7459  0.2367 -0.5332
   96MOL   O24328933   0.304   2.104   2.671  1.3017  0.4603  0.0299
   96MOL   C24428934   0.248   1.989   2.722  0.3915 -0.4107 -0.1336
   96MOL   O24528935   0.295   1.875   2.712  0.0169 -0.1699 -0.2620
   96MOL   C24628936   0.111   2.024   2.786  0.1652 -0.0560 -0.8156
   96MOL   C24728937   0.106   2.121   2.906 -0.5617 -0.8782 -0.0303
   96MOL   C24828938   0.430   2.102   2.471  0.3335 -0.3367  0.0520
   96MOL   H24928939   0.492   2.023   2.669  1.0273 -0.4920 -2.0792
   96MOL   H25028940   0.049   2.063   2.706 -2.0688 -0.3286  0.7612
   96MOL   H25128941   0.077   1.925   2.816  0.5152  0.4331  1.2644
   96MOL   H25228942   0.190   2.112   2.975  0.4784  1.6992 -0.9078
   96MOL   H25328943   0.097   2.222   2.867  1.8177 -0.3882  0.5925
   96MOL   H25428944   0.014   2.106   2.963  0.4489 -1.9063  1.3653
   96MOL   H25528945   0.364   2.186   2.447 -0.5760 -0.8208  0.8134
   96MOL   H25628946   0.525   2.127   2.424  0.7436  1.3533  1.7248
   96MOL   C25728947   0.391   1.964   2.418  0.6901  0.7854 -0.3889
   96MOL   O25828948   0.329   1.989   2.288 -0.3178 -0.2686 -0.0110
   96MOL   C25928949   0.226   1.917   2.242  0.0923 -0.6920  0.2772
   96MOL   O26028950   0.160   1.832   2.307  0.0308 -0.0518  0.0322
   96MOL   C26128951   0.186   1.958   2.102  0.1469 -0.1776  0.0907
   96MOL   C26228952   0.295   1.904   2.004 -0.2927 -0.3453 -0.0481
   96MOL   C26328953   0.502   1.864   2.407  0.1910 -0.0813 -0.7067
   96MOL   H26428954   0.317   1.915   2.482 -0.0882  0.6402 -1.4010
   96MOL   H26528955   0.089   1.928   2.062  0.4419  0.8030 -1.4175
   96MOL   H26628956   0.184   2.067   2.094  2.6930 -0.2235 -2.1056
   96MOL   H26728957   0.313   1.798   2.017 -0.7797 -0.4549 -0.2648
   96MOL   H26828958   0.275   1.919   1.897 -0.6738 -0.9324 -0.0557
   96MOL   H26928959   0.390   1.955   2.025 -0.0822 -1.1198  0.8890
   96MOL   H27028960   0.583   1.906   2.348 -0.6423  0.8269 -1.2049
   96MOL   H27128961   0.559   1.846   2.498 -0.9092  0.5249  0.1091
   96MOL   C27228962   0.468   1.727   2.346  0.6269 -0.0906 -0.3125
   96MOL   O27328963   0.586   1.653   2.324  0.6087  0.2438 -0.1179
   96MOL   C27428964   0.636   1.623   2.209 -0.1064 -0.6076  0.4670
   96MOL   O27528965   0.598   1.658   2.095  0.8875 -0.3069 -0.0735
   96MOL   C27628966   0.760   1.531   2.219 -0.4971  0.3462 -0.2125
   96MOL   C27728967   0.861   1.586   2.322 -0.2237 -0.0840  0.2170
   96MOL   C27828968   0.376   1.652   2.446  0.0721 -0.2888 -0.3379
   96MOL   H27928969   0.426   1.739   2.247  0.1436  2.2762  0.1545
   96MOL   H28028970   0.725   1.435   2.256 -0.6550  0.8069  0.8578
   96MOL   H28128971   0.805   1.526   2.119 -0.1925  0.4519 -0.0815
   96MOL   H28228972   0.937   1.513   2.351  0.9740  0.5645 -1.3134
   96MOL   H28328973   0.916   1.671   2.285  1.3405 -1.0681  0.2448
   96MOL   H28428974   0.825   1.622   2.419 -0.1052  0.0988  0.1928
   96MOL   H28528975   0.425   1.626   2.539  0.3352  1.6180  0.0719
   96MOL   H28628976   0.280   1.701   2.462  1.4772  2.8153 -0.9933
   96MOL   C28728977   0.325   1.514   2.403  0.3908  0.2912 -0.3867
   96MOL   O28828978   0.241   1.462   2.509  0.0997 -0.4755  0.2991
   96MOL   C28928979   0.271   1.341   2.571  0.2060 -0.5374  0.0851
   96MOL   O29028980   0.355   1.260   2.531  0.2198  0.5979  0.6122
   96MOL   C29128981   0.179   1.332   2.694 -0.1517  0.2974  0.7424
   96MOL   C29228982   0.047   1.266   2.674 -0.5241 -0.0376 -0.7887
   96MOL   C29328983   0.246   1.505   2.275 -0.0071  0.5053  0.0692
   96MOL   H29428984   0.409   1.446   2.387  0.9837  1.3010 -1.6660
   96MOL   H29528985   0.241   1.274   2.762  0.3698 -0.3438 -0.2731
   96MOL   H29628986   0.167   1.431   2.737  1.0289  0.0543  1.6688
   96MOL   H29728987   7.923   1.251   2.757 -3.0770  1.0092 -2.6528
   96MOL   H29828988   7.927   1.323   2.608  0.1939 -0.0956 -1.5536
   96MOL   H29928989   0.068   1.169   2.627  1.0971  2.2090 -4.9262
   96MOL   H30028990   0.147   1.550   2.287 -0.8519 -1.6829  1.5162
   96MOL   H30128991   0.306   1.561   2.203  0.4760 -0.1655 -0.0490
   96MOL   H30228992   0.219   1.406   2.238 -0.1917  0.2267  0.9571
   97MOL     C128993   3.126   2.061   7.839 -0.9169 -0.2747  0.2820
   97MOL     O228994   3.256   2.115   7.824 -0.5481  0.0346 -0.1197
   97MOL     C328995   3.356   2.068   7.900 -0.3937  0.6451  0.4700
   97MOL     O428996   3.345   1.970   0.029  0.0314  0.0473  0.8820
   97MOL     C528997   3.487   2.151   7.891  0.6772 -0.4062  0.1278
   97MOL     C628998   3.490   2.286   0.022  0.4411 -0.3706  0.7899
   97MOL     C728999   3.037   2.124   7.735  1.0702  0.3360  0.5272
   97MOL     H829000   3.088   2.088   7.937  0.9766  2.9123  0.2312
   97MOL     H929001   3.562   2.081   7.927  0.6733 -0.3245  0.2952
   97MOL    H1029002   3.511   2.178   7.788  1.6713 -1.7236  0.0074
   97MOL    H1129003   3.467   2.262   0.126 -0.2010 -0.1261  0.7084
   97MOL    H1229004   3.583   2.343   0.017 -0.2796  0.6889 -0.8843
   97MOL    H1329005   3.410   2.343   7.919  1.3638  1.5202  1.4414
   97MOL    H1429006   3.019   2.230   7.751 -0.1233 -0.1351  2.4359
   97MOL    H1529007   3.087   2.128   7.638  2.3195 -3.8097  0.8771
   97MOL    H1629008   3.120   1.952   7.843  1.6133 -0.5034 -1.0408
   97MOL    C1729009   2.905   2.042   7.734  0.0121  0.3376 -0.0156
   97MOL    O1829010   2.840   2.043   7.864  0.0681  0.4877 -0.0218
   97MOL    C1929011   2.818   1.931   7.930 -0.1931  0.2953  0.1965
   97MOL    O2029012   2.853   1.822   7.889 -0.2255 -0.0006 -0.3979
   97MOL    C2129013   2.727   1.962   0.102 -0.5497 -0.3149  0.5083
   97MOL    C2229014   2.634   1.846   0.152 -0.4352 -0.2975  0.3702
   97MOL    C2329015   2.802   2.106   7.637 -0.0136 -0.0993  0.1621
   97MOL    H2429016   2.926   1.943   7.693 -0.8883  0.7524 -1.4940
   97MOL    H2529017   2.794   1.995   0.181 -0.2946 -3.7680  1.8188
   97MOL    H2629018   2.657   2.038   0.069 -1.2473 -1.1257  0.1122
   97MOL    H2729019   2.682   1.789   0.232 -1.2447 -0.6352  0.6163
   97MOL    H2829020   2.544   1.888   0.196 -1.5616 -2.3867  0.1028
   97MOL    H2929021   2.598   1.779   0.075 -0.4557  0.4012 -0.2318
   97MOL    H3029022   2.757   2.193   7.685 -1.8131 -1.2301  0.5934
   97MOL    H3129023   2.859   2.145   7.552  1.3720  1.1395  1.6235
   97MOL    C3229024   2.677   2.019   7.604 -0.8307 -0.6882 -0.4336
   97MOL    O3329025   2.587   2.114   7.537 -0.2371  0.3095  0.0604
   97MOL    C3429026   2.450   2.088   7.518  0.1055 -0.2278  0.3801
   97MOL    O3529027   2.399   1.975   7.542 -0.2426  0.2515  0.0143
   97MOL    C3629028   2.363   2.202   7.466 -0.6615 -0.2098 -0.0724
   97MOL    C3729029   2.219   2.192   7.518  0.4737 -0.1521 -0.6062
   97MOL    C3829030   2.717   1.891   7.526 -0.3829 -0.1464  0.2165
   97MOL    H3929031   2.621   1.986   7.692 -3.0823  2.1379 -0.7449
   97MOL    H4029032   2.416   2.292   7.495  1.0017 -0.6928 -1.5040
   97MOL    H4129033   2.368   2.180   7.359  0.9240 -2.8428  0.4993
   97MOL    H4229034   2.215   2.243   7.614 -4.5401 -0.6487 -0.4184
   97MOL    H4329035   2.154   2.241   7.445  1.8723  0.5008 -1.4311
   97MOL    H4429036   2.173   2.095   7.535 -0.4032  0.2075 -0.8432
   97MOL    H4529037   2.716   1.906   7.418 -0.9920 -0.3989  0.1863
   97MOL    H4629038   2.821   1.861   7.540 -0.7347 -0.4384  2.5019
   97MOL    C4729039   2.625   1.769   7.545 -0.3226  0.1478 -0.1722
   97MOL    O4829040   2.666   1.675   7.444  0.2648 -0.1548  0.5214
   97MOL    C4929041   2.620   1.668   7.316 -0.2142  0.0027 -0.2439
   97MOL    O5029042   2.509   1.707   7.282 -0.3670  0.5811 -0.1436
   97MOL    C5129043   2.711   1.591   7.225 -0.7404 -0.0776  0.2301
   97MOL    C5229044   2.668   1.579   7.074  0.3305  0.2834 -0.1325
   97MOL    C5329045   2.631   1.698   7.681 -0.2707  0.3306  0.2552
   97MOL    H5429046   2.520   1.786   7.522 -0.4201 -1.3288 -0.8927
   97MOL    H5529047   2.812   1.630   7.241  0.4244 -3.0869  0.4970
   97MOL    H5629048   2.722   1.489   7.262  0.7581  0.1649  0.5101
   97MOL    H5729049   2.718   1.495   7.027  1.0713 -1.4728  3.5726
   97MOL    H5829050   2.561   1.557   7.065 -0.2861  2.1054  2.0372
   97MOL    H5929051   2.691   1.664   7.011 -2.4644 -0.2088 -1.9080
   97MOL    H6029052   2.734   1.662   7.687 -0.1996  0.5473  0.3767
   97MOL    H6129053   2.613   1.765   7.765 -1.6683 -1.2724  1.2575
   97MOL    C6229054   2.540   1.569   7.681 -0.1079  0.7416  0.6596
   97MOL    O6329055   2.571   1.506   7.806 -0.1125  0.4099  0.8119
   97MOL    C6429056   2.647   1.390   7.800 -0.4912 -0.2580 -0.5371
   97MOL    O6529057   2.708   1.347   7.701  0.9635 -0.9317 -0.0328
   97MOL    C6629058   2.642   1.311   7.929 -0.0724 -0.5453 -0.8431
   97MOL    C6729059   2.718   1.377   0.111 -0.0035 -0.5183  0.1755
   97MOL    C6829060   2.387   1.597   7.661  0.7748  0.3319 -0.0328
   97MOL    H6929061   2.571   1.516   7.591 -1.1086  1.8993 -0.3922
   97MOL    H7029062   2.539   1.292   0.012  1.0237 -1.1261  3.0304
   97MOL    H7129063   2.677   1.210   7.906  0.1139 -0.2980 -1.7005
   97MOL    H7229064   2.652   1.386   0.198 -2.5315 -1.4342 -1.5902
   97MOL    H7329065   2.812   1.328   0.137  0.4773  0.5870  0.5644
   97MOL    H7429066   2.731   1.483   0.089 -1.2437 -0.4923 -0.4929
   97MOL    H7529067   2.343   1.551   7.750  1.6201  0.2616  0.3617
   97MOL    H7629068   2.380   1.705   7.672 -1.5303  0.0480  1.4683
   97MOL    C7729069   2.318   1.545   7.535 -0.5089  0.3000 -0.4090
   97MOL    O7829070   2.317   1.401   7.533  0.0416  0.2284  0.3404
   97MOL    C7929071   2.399   1.333   7.460  0.3229 -0.4076  0.2705
   97MOL    O8029072   2.491   1.370   7.386  0.0567 -0.1663  0.2354
   97MOL    C8129073   2.381   1.185   7.471  0.6416 -0.3305  0.3660
   97MOL    C8229074   2.467   1.137   7.590  0.5972  0.0136 -0.1131
   97MOL    C8329075   2.169   1.581   7.530 -0.0838  0.2629 -0.6088
   97MOL    H8429076   2.361   1.586   7.443  0.8729  1.5708  0.7736
   97MOL    H8529077   2.276   1.164   7.492  0.6606 -1.8927 -1.0137
   97MOL    H8629078   2.397   1.142   7.372 -0.9173  2.2932 -1.1019
   97MOL    H8729079   2.456   1.028   7.596  3.9016 -0.4574 -1.5997
   97MOL    H8829080   2.569   1.146   7.553  0.0465  1.5121 -1.3298
   97MOL    H8929081   2.472   1.193   7.683  0.7130  0.6924 -0.5269
   97MOL    H9029082   2.147   1.540   7.431  0.0168  1.8113 -1.2943
   97MOL    H9129083   2.105   1.525   7.598  1.1006 -1.5709 -0.9677
   97MOL    C9229084   2.122   1.732   7.522  0.0151 -0.5272 -0.7255
   97MOL    O9329085   2.169   1.806   7.632 -0.3327 -0.0062 -0.4540
   97MOL    C9429086   2.084   1.892   7.687  1.1502  0.5686 -0.0405
   97MOL    O9529087   1.985   1.937   7.625  0.3314 -0.2079 -0.5999
   97MOL    C9629088   2.131   1.935   7.833 -0.1168 -0.5966  0.0581
   97MOL    C9729089   2.212   1.826   7.909 -0.1477  0.3698 -0.0801
   97MOL    C9829090   2.152   1.807   7.390  0.7918  0.7228 -0.6496
   97MOL    H9929091   2.014   1.715   7.526 -0.1943  1.0405  1.0616
   97MOL   H10029092   2.205   2.011   7.809 -1.0011  0.2701  0.0023
   97MOL   H10129093   2.044   1.968   7.890 -0.2451 -2.3621  0.9129
   97MOL   H10229094   2.162   1.730   7.898  0.8236 -0.3406  1.4354
   97MOL   H10329095   2.313   1.811   7.870 -0.0228  0.5510  0.1688
   97MOL   H10429096   2.220   1.854   0.069 -0.1530 -0.0600  0.0381
   97MOL   H10529097   2.127   1.913   7.402  0.1448  0.5835 -0.7248
   97MOL   H10629098   2.257   1.791   7.369  0.6575 -2.8205  0.8859
   97MOL   C10729099   2.070   1.756   7.277 -0.5507 -0.7289 -0.1086
   97MOL   O10829100   1.929   1.775   7.304  0.3827 -0.0735 -0.4197
   97MOL   C10929101   1.844   1.667   7.281  0.8347 -0.1860 -1.0103
   97MOL   O11029102   1.877   1.555   7.240 -0.0869 -0.7537 -0.1555
   97MOL   C11129103   1.699   1.703   7.323 -1.0024  0.2195  0.1450
   97MOL   C11229104   1.690   1.698   7.474 -0.3665 -0.3710 -0.3530
   97MOL   C11329105   2.093   1.830   7.146  0.1499  0.2590  0.2314
   97MOL   H11429106   2.101   1.652   7.267  1.6905 -0.4028  2.6178
   97MOL   H11529107   1.667   1.797   7.278  0.9015  0.6437 -0.3628
   97MOL   H11629108   1.631   1.629   7.279 -2.1468 -0.2079  2.5485
   97MOL   H11729109   1.725   1.794   7.513  3.7544 -1.6822 -0.6348
   97MOL   H11829110   1.585   1.694   7.502  0.3438 -1.7022  2.3110
   97MOL   H11929111   1.733   1.608   7.519 -0.7694 -1.2336 -1.6547
   97MOL   H12029112   2.002   1.808   7.089 -0.4333 -0.9556  1.6099
   97MOL   H12129113   2.092   1.935   7.172 -0.3548  1.3363 -3.7242
   97MOL   C12229114   2.222   1.794   7.074 -0.4407  0.1655 -0.4686
   97MOL   O12329115   2.238   1.651   7.049 -0.0264  0.8540 -0.5794
   97MOL   C12429116   2.148   1.579   6.977  1.4487  0.2464 -0.4424
   97MOL   O12529117   2.065   1.629   6.903 -0.1815 -0.1572  0.3274
   97MOL   C12629118   2.177   1.425   6.977 -0.7539  0.0465 -0.1300
   97MOL   C12729119   2.251   1.380   6.851  0.0920  0.1283 -0.0101
   97MOL   C12829120   2.255   1.876   6.945  0.1027  0.0181 -0.0928
   97MOL   H12929121   2.292   1.809   7.155 -1.4108 -0.6311  0.5364
   97MOL   H13029122   2.236   1.381   7.058  0.4511 -1.6814 -1.8986
   97MOL   H13129123   2.083   1.369   6.979 -1.9963  2.1026 -0.2030
   97MOL   H13229124   2.271   1.273   6.856  2.1655  0.4951  0.1459
   97MOL   H13329125   2.197   1.405   6.760  0.3977  0.6842 -0.0450
   97MOL   H13429126   2.349   1.427   6.859  0.1885  0.0207 -0.5495
   97MOL   H13529127   2.302   1.810   6.872  0.5008  0.0966  0.0916
   97MOL   H13629128   2.162   1.911   6.901  1.7697  0.7608 -3.1948
   97MOL   C13729129   2.327   2.011   6.967 -0.5710  0.4434 -0.0408
   97MOL   O13829130   2.467   1.986   6.974  0.5476  0.1495  0.0854
   97MOL   C13929131   2.536   2.005   7.091 -0.2649  0.8730 -0.9470
   97MOL   O14029132   2.494   2.025   7.206  0.5073 -0.2219 -0.1581
   97MOL   C14129133   2.690   1.974   7.069  0.3456 -0.3626 -0.0197
   97MOL   C14229134   2.782   2.102   7.068  0.6860 -0.0731 -0.3584
   97MOL   C14329135   2.309   2.089   6.833  0.6913 -0.8694  0.5535
   97MOL   H14429136   2.289   2.073   7.049 -2.6237 -0.6037 -0.1756
   97MOL   H14529137   2.731   1.905   7.142 -1.7858 -0.0727  1.4879
   97MOL   H14629138   2.707   1.918   6.977  0.9458 -0.9394  0.4332
   97MOL   H14729139   2.865   2.094   6.999 -0.4086 -2.7596 -1.4397
   97MOL   H14829140   2.724   2.192   7.048 -0.3458 -0.9034 -1.1640
   97MOL   H14929141   2.835   2.117   7.162 -1.8095  0.3826  1.0260
   97MOL   H15029142   2.385   2.166   6.817  1.2834 -1.5740 -0.0052
   97MOL   H15129143   2.306   2.042   6.735 -2.6429  2.7177 -1.2416
   97MOL   C15229144   2.174   2.167   6.842  0.2642  0.9768  0.4165
   97MOL   O15329145   2.182   2.305   6.874 -0.1576  0.5392 -0.0673
   97MOL   C15429146   2.167   2.350   7.004 -0.4133 -0.6091 -0.4953
   97MOL   O15529147   2.153   2.285   7.107  0.0371 -0.1664 -0.0585
   97MOL   C15629148   2.184   2.504   7.013 -0.8964  0.2975  0.0480
   97MOL   C15729149   2.329   2.554   7.039  0.4311 -0.2597  0.4998
   97MOL   C15829150   2.090   2.160   6.709 -0.3098  0.5532 -0.0028
   97MOL   H15929151   2.118   2.127   6.926  1.5916  0.4604  1.0544
   97MOL   H16029152   2.127   2.544   6.929 -2.9288 -2.0972  0.2319
   97MOL   H16129153   2.121   2.515   7.101 -1.6648  1.4453 -0.6276
   97MOL   H16229154   2.392   2.498   7.108  0.9541 -0.2224  0.0621
   97MOL   H16329155   2.386   2.531   6.949 -1.5416 -2.9325 -0.1265
   97MOL   H16429156   2.334   2.662   7.054  2.5164 -0.2716  0.0915
   97MOL   H16529157   2.084   2.059   6.669  2.0464  0.6936 -0.7820
   97MOL   H16629158   1.990   2.185   6.745  0.8060  1.0764  2.8765
   97MOL   C16729159   2.119   2.264   6.597 -0.2290  0.3097  0.0820
   97MOL   O16829160   2.235   2.240   6.524  0.2001 -0.7629  0.0982
   97MOL   C16929161   2.344   2.329   6.546 -0.3372 -0.2524 -0.4896
   97MOL   O17029162   2.354   2.413   6.633 -0.0849  0.4223  0.8697
   97MOL   C17129163   2.459   2.312   6.449 -0.9661  0.5411 -0.2335
   97MOL   C17229164   2.544   2.192   6.488 -0.5537 -0.0255  0.2118
   97MOL   C17329165   2.004   2.252   6.489  0.1770  0.8251  0.6919
   97MOL   H17429166   2.121   2.366   6.636  0.5482  0.6086 -0.7183
   97MOL   H17529167   2.426   2.302   6.345 -0.0741 -0.8525 -0.3967
   97MOL   H17629168   2.520   2.402   6.446  1.4000 -0.8933  2.1632
   97MOL   H17729169   2.627   2.191   6.417 -0.8519 -1.0711 -0.1327
   97MOL   H17829170   2.591   2.205   6.585  0.9765 -2.0303 -0.2116
   97MOL   H17929171   2.490   2.097   6.488 -0.0143 -0.3579  2.6175
   97MOL   H18029172   2.018   2.163   6.427 -1.3246  0.5468  0.7311
   97MOL   H18129173   1.911   2.243   6.545 -0.1458 -0.5994 -0.0516
   97MOL   C18229174   2.000   2.369   6.390  0.3850 -0.5586 -0.2011
   97MOL   O18329175   1.918   2.324   6.282 -0.0408 -0.0902 -0.8880
   97MOL   C18429176   1.948   2.338   6.154 -0.0518 -0.6917  0.4237
   97MOL   O18529177   2.047   2.393   6.113  0.1155 -0.3253 -0.2889
   97MOL   C18629178   1.839   2.292   6.063  0.6572  0.4495 -0.8668
   97MOL   C18729179   1.773   2.158   6.106  0.0900  0.7556  0.3834
   97MOL   C18829180   1.946   2.497   6.451 -0.4590  0.7098  0.2923
   97MOL   H18929181   2.102   2.386   6.356 -0.4368 -1.2841 -3.1612
   97MOL   H19029182   1.760   2.366   6.053  0.4951  0.5235  0.7363
   97MOL   H19129183   1.882   2.275   5.964  1.2334 -0.9412 -0.3922
   97MOL   H19229184   1.850   2.102   6.158 -1.2551  0.2685  1.9149
   97MOL   H19329185   1.679   2.164   6.162 -0.7992  0.2165 -1.0267
   97MOL   H19429186   1.761   2.107   6.010  0.7523 -0.4884  0.9516
   97MOL   H19529187   1.858   2.465   6.507 -0.3278  1.2137  0.7934
   97MOL   H19629188   2.019   2.522   6.528 -2.3112  1.4250  1.8694
   97MOL   C19729189   1.914   2.605   6.343 -0.5130 -0.3331 -0.8545
   97MOL   O19829190   1.780   2.592   6.288 -0.1182 -0.0528 -0.0524
   97MOL   C19929191   1.747   2.625   6.158  0.3718  1.1471  0.1681
   97MOL   O20029192   1.836   2.648   6.075 -0.1416  0.1094 -0.1688
   97MOL   C20129193   1.593   2.633   6.119  0.5998  0.1252 -0.1372
   97MOL   C20229194   1.557   2.738   6.008  0.1006 -0.2779  0.5885
   97MOL   C20329195   1.916   2.742   6.410 -0.6760  0.1795 -0.4592
   97MOL   H20429196   1.986   2.607   6.261  0.1464 -1.0758 -0.2932
   97MOL   H20529197   1.566   2.537   6.075  1.4645  0.1053 -0.6321
   97MOL   H20629198   1.530   2.650   6.206 -2.0751 -1.8987 -1.6084
   97MOL   H20729199   1.476   2.700   5.947  0.0302  0.9509 -0.0772
   97MOL   H20829200   1.547   2.833   6.060  0.9568  0.6649 -0.9390
   97MOL   H20929201   1.637   2.761   5.938 -1.2911 -0.0346 -0.9531
   97MOL   H21029202   1.871   2.812   6.340 -2.1602 -0.4730 -0.1864
   97MOL   H21129203   1.854   2.735   6.499  1.1341  1.8025  0.9785
   97MOL   C21229204   2.058   2.792   6.447 -0.3615  0.0784  0.3451
   97MOL   O21329205   2.136   2.796   6.326  0.2374  0.0563 -0.2806
   97MOL   C21429206   2.231   2.697   6.294 -0.1585 -0.1649  0.8767
   97MOL   O21529207   2.276   2.608   6.362  0.0195  0.2369 -0.2336
   97MOL   C21629208   2.262   2.699   6.139  0.5443 -0.6397 -0.0970
   97MOL   C21729209   2.372   2.602   6.091  0.4650  0.6679 -0.3856
   97MOL   C21829210   2.054   2.941   6.504 -0.1670  0.2236 -0.2018
   97MOL   H21929211   2.103   2.722   6.517 -2.0113 -0.5511  0.8076
   97MOL   H22029212   2.167   2.688   6.086  0.6907  2.8555 -1.2164
   97MOL   H22129213   2.294   2.799   6.110 -0.4311 -0.5479 -0.9213
   97MOL   H22229214   2.352   2.505   6.136 -0.6039 -0.2223 -2.6686
   97MOL   H22329215   2.389   2.580   5.985  0.2947 -3.5730  0.3700
   97MOL   H22429216   2.466   2.636   6.134 -0.8621  0.4219  2.8642
   97MOL   H22529217   2.058   3.001   6.414  2.5447  0.5389  0.0692
   97MOL   H22629218   1.962   2.948   6.561 -0.6883 -0.9446 -0.8803
   97MOL   C22729219   2.177   2.967   6.592 -0.1867  0.1833 -0.1465
   97MOL   O22829220   2.218   3.103   6.589  0.2087  0.2166  0.1180
   97MOL   C22929221   2.342   3.135   6.571  0.5332 -0.1046  0.1916
   97MOL   O23029222   2.438   3.051   6.555  0.4855  0.0176 -0.1988
   97MOL   C23129223   2.369   3.285   6.560  0.6348 -0.2080 -0.4327
   97MOL   C23229224   2.510   3.324   6.518 -0.2455 -0.0178  0.0579
   97MOL   C23329225   2.155   2.912   6.738 -0.3884 -0.1206 -0.3371
   97MOL   H23429226   2.257   2.905   6.551 -0.4902 -1.6788  1.9695
   97MOL   H23529227   2.299   3.348   6.506  0.1333  0.9293  1.4895
   97MOL   H23629228   2.362   3.319   6.663  0.3603 -1.7340  0.0682
   97MOL   H23729229   2.527   3.430   6.500 -2.3345  0.4029  0.4378
   97MOL   H23829230   2.582   3.291   6.593  0.8557  2.4524  0.1171
   97MOL   H23929231   2.544   3.280   6.425  0.3717 -1.2090  0.8297
   97MOL   H24029232   2.084   2.979   6.788 -3.0209 -1.1491 -2.5748
   97MOL   H24129233   2.099   2.818   6.735 -1.4293  0.4957 -0.4991
   97MOL   C24229234   2.278   2.898   6.828  1.4777  0.2402 -0.0641
   97MOL   O24329235   2.236   2.878   6.964 -0.2553  0.3863 -0.3055
   97MOL   C24429236   2.262   2.973   7.059  0.3269 -0.3044 -0.0647
   97MOL   O24529237   2.331   3.073   7.042  0.5080  0.0506  0.1535
   97MOL   C24629238   2.200   2.943   7.194 -1.3824  0.3054  0.2642
   97MOL   C24729239   2.063   3.010   7.196 -0.0294  0.4472  0.5431
   97MOL   C24829240   2.386   2.783   6.791 -0.3332  0.1442 -0.0827
   97MOL   H24929241   2.339   2.989   6.821  3.0004 -0.8878 -1.9715
   97MOL   H25029242   2.196   2.836   7.214 -0.9626 -0.2287 -2.3543
   97MOL   H25129243   2.249   2.988   7.280  1.7436 -2.4988  0.0457
   97MOL   H25229244   2.065   3.102   7.137 -2.5903  1.0504  1.3211
   97MOL   H25329245   1.975   2.956   7.159  0.5173 -0.7639  1.0098
   97MOL   H25429246   2.036   3.029   7.299 -1.5627  0.1421  0.2124
   97MOL   H25529247   2.350   2.684   6.819  1.4382 -0.4930 -0.0143
   97MOL   H25629248   2.397   2.780   6.683  1.7881 -1.4709  0.1429
   97MOL   C25729249   2.519   2.812   6.858 -0.1784 -0.1996  0.0826
   97MOL   O25829250   2.606   2.703   6.840  0.0557  0.0937 -0.0728
   97MOL   C25929251   2.654   2.630   6.948  0.1442 -0.3983 -0.0581
   97MOL   O26029252   2.637   2.649   7.066  0.3557 -0.5219  0.1878
   97MOL   C26129253   2.734   2.509   6.902 -0.4319  0.1692 -0.3028
   97MOL   C26229254   2.652   2.401   6.828  0.9517 -0.3619  0.2971
   97MOL   C26329255   2.602   2.923   6.793  0.8221 -0.7230  0.6077
   97MOL   H26429256   2.489   2.827   6.961 -0.3827  1.5742 -0.2170
   97MOL   H26529257   2.811   2.536   6.830  0.5194 -0.7501  0.3526
   97MOL   H26629258   2.781   2.461   6.988 -1.9605 -1.6005 -0.3995
   97MOL   H26729259   2.684   2.301   6.857 -0.3268 -1.0497 -0.6208
   97MOL   H26829260   2.545   2.396   6.846  0.9057  0.5634  0.2679
   97MOL   H26929261   2.664   2.405   6.720 -2.1574  0.6780 -0.0589
   97MOL   H27029262   2.623   2.908   6.687 -0.2236  0.2846  0.2447
   97MOL   H27129263   2.537   3.011   6.786  0.6575 -0.9369 -0.6460
   97MOL   C27229264   2.726   2.955   6.869  0.3454 -0.0126  0.3416
   97MOL   O27329265   2.815   3.034   6.795  0.5708 -0.7459  0.4807
   97MOL   C27429266   2.913   2.974   6.724 -0.1328  0.5628  0.0663
   97MOL   O27529267   2.922   2.851   6.710 -0.3023 -0.1240  0.0112
   97MOL   C27629268   3.002   3.077   6.653  0.3690 -1.0167 -0.3282
   97MOL   C27729269   2.940   3.167   6.546  0.5526 -0.4824 -0.4439
   97MOL   C27829270   2.708   3.032   7.000  0.0524 -0.0216  0.5294
   97MOL   H27929271   2.785   2.868   6.899  0.5047  0.1198  0.4159
   97MOL   H28029272   3.043   3.142   6.730 -1.7114 -1.5650  1.2958
   97MOL   H28129273   3.092   3.024   6.625 -0.5673 -2.5183 -0.5483
   97MOL   H28229274   3.007   3.248   6.519 -0.6609  0.7909  0.2792
   97MOL   H28329275   2.912   3.114   6.455  2.3708 -1.3336 -0.5344
   97MOL   H28429276   2.848   3.216   6.579  0.4385 -0.6853 -0.4611
   97MOL   H28529277   2.676   3.129   6.962  1.0346  1.3702  3.1725
   97MOL   H28629278   2.624   2.996   7.058 -1.4452  2.4971 -0.0107
   97MOL   C28729279   2.832   3.037   7.083 -0.9294 -0.3670 -0.1110
   97MOL   O28829280   2.815   3.123   7.194 -0.1623 -0.0929  0.7967
   97MOL   C28929281   2.856   3.255   7.195  0.3804 -0.6899  0.5186
   97MOL   O29029282   2.901   3.313   7.097  0.5150 -0.2509  0.7909
   97MOL   C29129283   2.811   3.341   7.320  0.0620  0.4962  0.6902
   97MOL   C29229284   2.830   3.494   7.306  0.1420  0.3145 -0.5812
   97MOL   C29329285   2.881   2.902   7.148  0.6286  0.4682 -0.6919
   97MOL   H29429286   2.907   3.071   7.012 -1.3366 -0.1071 -0.4170
   97MOL   H29529287   2.709   3.312   7.343  0.0684 -0.8318 -0.8340
   97MOL   H29629288   2.865   3.302   7.406 -2.6983 -3.5254  0.7494
   97MOL   H29729289   2.783   3.534   7.216  0.7823 -1.7187 -1.8414
   97MOL   H29829290   2.791   3.537   7.399 -2.9732 -2.2293 -0.6576
   97MOL   H29929291   2.931   3.536   7.307 -0.5093  1.9189 -0.1518
   97MOL   H30029292   2.886   2.813   7.085  2.2812 -0.4299  0.6726
   97MOL   H30129293   2.980   2.914   7.193  0.6175  2.1173 -1.0755
   97MOL   H30229294   2.815   2.874   7.230  0.1542  0.9881 -0.8963
   98MOL     C129295   6.656   6.352   5.174  0.8993 -0.0956 -0.4106
   98MOL     O229296   6.517   6.344   5.205  0.1016  0.2519 -0.7807
   98MOL     C329297   6.458   6.440   5.272 -0.6710 -0.7368 -1.0204
   98MOL     O429298   6.508   6.543   5.315 -1.1678  0.3619 -0.2585
   98MOL     C529299   6.317   6.406   5.313 -0.1849 -0.5846  0.7640
   98MOL     C629300   6.213   6.429   5.206  0.5916  0.2617  0.1606
   98MOL     C729301   6.718   6.212   5.195 -0.1981  0.0594  0.4346
   98MOL     H829302   6.701   6.421   5.244  2.9887 -1.8565  0.0331
   98MOL     H929303   6.323   6.306   5.355  2.6266 -1.0049 -0.5283
   98MOL    H1029304   6.294   6.471   5.397 -0.4302 -1.9605  1.7834
   98MOL    H1129305   6.157   6.520   5.225 -0.4542 -0.8103  2.4269
   98MOL    H1229306   6.258   6.446   5.108  2.0033 -1.2024  0.5448
   98MOL    H1329307   6.145   6.345   5.191  1.3618 -0.2303 -0.6020
   98MOL    H1429308   6.681   6.165   5.286  0.0425 -1.9450 -0.4677
   98MOL    H1529309   6.699   6.145   5.111  1.0149 -0.6200  0.6864
   98MOL    H1629310   6.669   6.394   5.074  1.2444  2.6127  0.7316
   98MOL    C1729311   6.877   6.218   5.211 -0.0380  0.4714 -0.1586
   98MOL    O1829312   6.933   6.119   5.289 -0.4686  0.4096  0.2845
   98MOL    C1929313   6.961   6.139   5.422  1.1474  0.9046  0.5231
   98MOL    O2029314   6.930   6.235   5.496  0.7626  0.4163 -0.3821
   98MOL    C2129315   7.040   6.019   5.484  1.3937  0.5825  0.6130
   98MOL    C2229316   6.957   5.924   5.570 -0.2850 -0.0996 -0.0102
   98MOL    C2329317   6.952   6.220   5.078  0.5364  0.0171  0.1164
   98MOL    H2429318   6.910   6.307   5.265  0.3110  0.6119 -0.6013
   98MOL    H2529319   7.082   5.962   5.401 -1.8624 -3.6344  1.6816
   98MOL    H2629320   7.111   6.055   5.558 -0.2368 -1.9954  3.4924
   98MOL    H2729321   7.019   5.915   5.659  0.1988  0.2333 -0.3121
   98MOL    H2829322   6.854   5.953   5.590 -1.3388 -2.3369 -1.9712
   98MOL    H2929323   6.946   5.823   5.530  3.5885 -0.8452  0.5759
   98MOL    H3029324   7.058   6.197   5.080  0.9384  1.8459  0.4871
   98MOL    H3129325   6.911   6.139   5.018  2.9917 -1.5529  0.5010
   98MOL    C3229326   6.937   6.351   4.985  0.1771  0.8699 -1.0804
   98MOL    O3329327   7.053   6.434   5.015 -0.4779  0.4237  0.0200
   98MOL    C3429328   7.049   6.532   5.098 -0.0839 -0.2110 -0.4877
   98MOL    O3529329   6.949   6.582   5.143 -0.1347  0.3333 -0.5453
   98MOL    C3629330   7.189   6.587   5.125 -1.1541 -0.5434  1.1807
   98MOL    C3729331   7.284   6.491   5.199 -0.5247 -0.4895 -0.3972
   98MOL    C3829332   6.934   6.331   4.831  0.1100  0.1644 -0.0699
   98MOL    H3929333   6.853   6.416   5.007 -0.7677 -0.6832  0.0164
   98MOL    H4029334   7.242   6.618   5.035 -0.2285 -3.3131  0.7444
   98MOL    H4129335   7.190   6.680   5.182  0.1352  0.8450 -1.0147
   98MOL    H4229336   7.240   6.457   5.293  1.8311  1.3625  1.4778
   98MOL    H4329337   7.306   6.410   5.130 -1.7469  0.0806 -1.4581
   98MOL    H4429338   7.385   6.534   5.202 -0.4253 -0.8092  1.3398
   98MOL    H4529339   7.040   6.331   4.805  0.0016 -0.8346 -0.5159
   98MOL    H4629340   6.879   6.238   4.814  0.8684 -0.7882  2.4721
   98MOL    C4729341   6.867   6.446   4.756  0.6949 -0.0097 -0.3057
   98MOL    O4829342   6.938   6.571   4.776  0.1195  0.7964 -0.3120
   98MOL    C4929343   6.881   6.684   4.832  0.5258  0.0796  0.5557
   98MOL    O5029344   6.764   6.699   4.876 -0.2981 -0.0355 -0.3908
   98MOL    C5129345   6.979   6.805   4.815 -0.4849 -0.1339 -0.5565
   98MOL    C5229346   6.982   6.909   4.933  0.3924  0.1064  0.7100
   98MOL    C5329347   6.854   6.427   4.604 -0.0560 -0.1782  0.7178
   98MOL    H5429348   6.768   6.464   4.799  0.4623 -0.7311 -0.5428
   98MOL    H5529349   7.082   6.771   4.809 -0.0105  0.9416  1.1268
   98MOL    H5629350   6.963   6.862   4.723 -2.8543 -0.4678 -0.3934
   98MOL    H5729351   6.949   6.866   5.028 -0.9263 -3.2355 -1.2109
   98MOL    H5829352   7.085   6.944   4.942  0.2715  1.0824 -1.4650
   98MOL    H5929353   6.909   6.987   4.913 -1.1824 -1.8476 -1.3758
   98MOL    H6029354   6.928   6.495   4.562 -0.3314  0.6161  1.5061
   98MOL    H6129355   6.880   6.325   4.573  0.3703  0.8485 -2.5438
   98MOL    C6229356   6.718   6.469   4.554 -0.0858  0.6951  0.3552
   98MOL    O6329357   6.721   6.472   4.415 -0.1845 -0.0423 -0.0267
   98MOL    C6429358   6.780   6.574   4.350 -0.1020 -0.6739  0.5174
   98MOL    O6529359   6.835   6.670   4.408  0.2601 -0.3840  0.6081
   98MOL    C6629360   6.773   6.563   4.201 -0.3373 -0.7568 -0.1375
   98MOL    C6729361   6.701   6.679   4.131  0.1781  0.0750 -0.5647
   98MOL    C6829362   6.602   6.374   4.596  0.1634 -0.3079 -0.0086
   98MOL    H6929363   6.699   6.569   4.591 -0.4505 -0.0552  2.2479
   98MOL    H7029364   6.870   6.555   4.152 -0.8687 -1.1482 -1.1609
   98MOL    H7129365   6.731   6.469   4.165 -1.5539  1.1611 -4.0087
   98MOL    H7229366   6.595   6.656   4.129 -0.0263  1.1279 -2.4908
   98MOL    H7329367   6.714   6.773   4.186  0.0446 -0.4857  0.4422
   98MOL    H7429368   6.736   6.687   4.028 -0.5392 -0.5526 -0.8572
   98MOL    H7529369   6.613   6.275   4.553  0.0329 -1.1199  1.7698
   98MOL    H7629370   6.621   6.339   4.697  3.1034  0.5598 -0.2224
   98MOL    C7729371   6.465   6.440   4.581  0.3139  0.5742  0.2669
   98MOL    O7829372   6.464   6.555   4.658  0.2482 -1.2427 -0.2324
   98MOL    C7929373   6.448   6.559   4.798  0.1923  0.2171  0.3876
   98MOL    O8029374   6.452   6.458   4.869 -0.0672  0.1796 -0.8522
   98MOL    C8129375   6.437   6.704   4.854 -0.3198 -0.5826  0.4845
   98MOL    C8229376   6.366   6.708   4.989 -0.3148  0.1745  0.3863
   98MOL    C8329377   6.418   6.482   4.439 -0.5800  0.2506  0.6251
   98MOL    H8429378   6.397   6.367   4.625  0.8414 -0.6766 -0.9578
   98MOL    H8529379   6.539   6.738   4.871 -0.4345  0.1402 -0.2274
   98MOL    H8629380   6.387   6.759   4.774  1.3690 -1.5393 -1.2832
   98MOL    H8729381   6.423   6.673   5.075 -1.3322  0.7275  1.2942
   98MOL    H8829382   6.317   6.800   5.021 -2.0037 -0.9086  0.9825
   98MOL    H8929383   6.277   6.645   4.987 -0.3832  0.3023 -1.5729
   98MOL    H9029384   6.473   6.575   4.421 -0.9641  0.0943 -1.4578
   98MOL    H9129385   6.434   6.406   4.363 -1.2448  1.3845 -0.6797
   98MOL    C9229386   6.269   6.511   4.431  0.2936 -0.6155 -0.1685
   98MOL    O9329387   6.234   6.644   4.479 -0.0357  0.3691 -0.6703
   98MOL    C9429388   6.137   6.663   4.575 -0.2311 -0.6401  0.1639
   98MOL    O9529389   6.076   6.575   4.634  0.2093  0.0309 -0.0898
   98MOL    C9629390   6.118   6.809   4.623  0.4432 -0.3547  0.2600
   98MOL    C9729391   6.134   6.916   4.507 -0.5207  0.1591  0.1483
   98MOL    C9829392   6.188   6.483   4.300 -0.6888 -0.1123 -0.6135
   98MOL    H9929393   6.232   6.445   4.509  1.4669  0.0258  0.9608
   98MOL   H10029394   6.019   6.822   4.665  1.1023 -0.0022  1.7322
   98MOL   H10129395   6.187   6.822   4.706  1.6370 -3.0293 -0.2355
   98MOL   H10229396   6.241   6.913   4.485 -0.6843  0.0209 -0.6471
   98MOL   H10329397   6.071   6.896   4.420 -0.2224 -1.3939  0.2900
   98MOL   H10429398   6.108   7.013   4.551  2.1731  0.2809  1.6181
   98MOL   H10529399   6.086   6.520   4.308  0.5294  2.7362  2.3768
   98MOL   H10629400   6.232   6.550   4.227  0.8490  0.1448  0.5229
   98MOL   C10729401   6.189   6.333   4.260  0.7735 -0.2356  0.4001
   98MOL   O10829402   6.093   6.272   4.348 -0.2004  0.4905  0.0399
   98MOL   C10929403   6.127   6.174   4.440  0.6392  0.1554 -0.4469
   98MOL   O11029404   6.236   6.131   4.452  0.2439  0.6157 -1.0066
   98MOL   C11129405   6.009   6.125   4.523  0.7491  0.1512  0.3734
   98MOL   C11229406   5.887   6.091   4.435  0.1291 -0.4869  0.3360
   98MOL   C11329407   6.120   6.325   4.120  0.4025  0.5940  0.4500
   98MOL   H11429408   6.286   6.287   4.275  0.7758  0.7009  3.4597
   98MOL   H11529409   6.060   6.040   4.570  2.9814  0.8389 -0.7468
   98MOL   H11629410   5.994   6.204   4.597 -0.5641 -0.3288  0.6316
   98MOL   H11729411   5.861   6.157   4.352  1.9016  0.2616  0.3535
   98MOL   H11829412   5.893   5.991   4.393 -0.3876 -1.2312  1.9985
   98MOL   H11929413   5.798   6.092   4.497 -0.4431  1.1762 -0.4891
   98MOL   H12029414   6.123   6.223   4.080 -1.4120  0.2681  1.0799
   98MOL   H12129415   6.014   6.351   4.123  0.4599  0.8316  0.3458
   98MOL   C12229416   6.195   6.389   4.003  0.7868 -0.2876 -0.7713
   98MOL   O12329417   6.307   6.310   3.953  0.1728 -0.0365  0.3454
   98MOL   C12429418   6.440   6.332   3.981  0.4226  0.4362 -0.3493
   98MOL   O12529419   6.477   6.422   4.059 -0.5619  0.4411  0.2742
   98MOL   C12629420   6.531   6.242   3.905 -0.6976 -0.8572  0.2776
   98MOL   C12729421   6.682   6.251   3.941  0.1627 -0.0282  0.1238
   98MOL   C12829422   6.104   6.422   3.882 -0.1453  0.3760  0.4016
   98MOL   H12929423   6.235   6.486   4.034  2.0142 -0.6680 -1.1535
   98MOL   H13029424   6.502   6.138   3.915 -1.0785 -1.0309 -2.4091
   98MOL   H13129425   6.510   6.259   3.799 -0.7798 -1.4394  0.1981
   98MOL   H13229426   6.722   6.350   3.918  2.6005 -1.1046 -0.3735
   98MOL   H13329427   6.707   6.224   4.043  0.8452  1.1090  0.2775
   98MOL   H13429428   6.730   6.178   3.876  0.3618  0.8760 -0.7658
   98MOL   H13529429   6.161   6.464   3.798 -1.5604 -2.7862 -2.2377
   98MOL   H13629430   6.074   6.326   3.840  0.1483 -0.4904  2.1308
   98MOL   C13729431   5.990   6.516   3.917  0.1508 -0.4543 -0.4745
   98MOL   O13829432   6.053   6.641   3.953  0.2746 -0.2752 -0.0254
   98MOL   C13929433   5.986   6.726   4.027  0.5192  0.1080 -0.6267
   98MOL   O14029434   5.872   6.706   4.067  0.4189 -0.0452  0.3419
   98MOL   C14129435   6.064   6.856   4.055  0.2847 -0.2253  0.2799
   98MOL   C14229436   6.169   6.838   4.164  0.0727  0.8558  0.2669
   98MOL   C14329437   5.889   6.532   3.793  0.1930  0.7662  0.2709
   98MOL   H14429438   5.932   6.472   3.999  2.5688 -3.0485 -0.0717
   98MOL   H14529439   6.109   6.884   3.960 -0.4091 -1.0327 -0.3055
   98MOL   H14629440   5.988   6.923   4.095  0.7126 -0.7525  2.0390
   98MOL   H14729441   6.251   6.775   4.130  0.6314  1.3415  0.7232
   98MOL   H14829442   6.203   6.930   4.212 -0.2896  1.4208 -0.5497
   98MOL   H14929443   6.113   6.782   4.239  0.1242  0.8843  0.3249
   98MOL   H15029444   5.817   6.607   3.827 -2.6746 -1.4573 -0.6710
   98MOL   H15129445   5.932   6.572   3.702  1.0044 -1.2993 -0.2696
   98MOL   C15229446   5.807   6.406   3.752  0.1091 -0.1394  0.3382
   98MOL   O15329447   5.730   6.345   3.857  0.9653 -0.0281  0.0144
   98MOL   C15429448   5.775   6.241   3.920  0.7709  0.1621 -0.2152
   98MOL   O15529449   5.882   6.190   3.913  0.1723  0.1915  0.3459
   98MOL   C15629450   5.662   6.190   4.009 -0.6690  0.6924  0.3006
   98MOL   C15729451   5.610   6.283   4.118 -0.2113  0.1611  0.2066
   98MOL   C15829452   5.706   6.444   3.648  0.6078 -0.0432  0.5571
   98MOL   H15929453   5.871   6.332   3.703 -0.2786 -1.1765  1.3561
   98MOL   H16029454   5.586   6.179   3.932  1.0496 -0.4124 -1.2961
   98MOL   H16129455   5.681   6.089   4.046  1.4956  1.8174  2.3788
   98MOL   H16229456   5.692   6.331   4.172  2.0898 -3.0802 -0.2636
   98MOL   H16329457   5.531   6.356   4.100  0.2008  1.0407  1.8521
   98MOL   H16429458   5.557   6.223   4.192 -2.7537  0.9924 -0.8769
   98MOL   H16529459   5.611   6.483   3.685 -0.1965  0.4805 -1.9018
   98MOL   H16629460   5.736   6.533   3.592  0.9241  0.3650  1.3728
   98MOL   C16729461   5.686   6.331   3.541 -0.6759  0.4412  0.7586
   98MOL   O16829462   5.625   6.223   3.600 -0.3288 -0.1761 -0.0175
   98MOL   C16929463   5.696   6.108   3.615 -0.7925 -0.5076  0.1430
   98MOL   O17029464   5.817   6.093   3.588 -0.2723  0.5434 -0.4338
   98MOL   C17129465   5.607   5.995   3.663 -0.0089 -0.4708  0.2187
   98MOL   C17229466   5.673   5.863   3.665 -0.1594 -0.3044 -0.4720
   98MOL   C17329467   5.598   6.371   3.415 -0.4235 -0.0280 -0.0010
   98MOL   H17429468   5.783   6.303   3.500 -0.8308  0.4276  0.4015
   98MOL   H17529469   5.552   6.023   3.753  1.9867  2.6903  0.5462
   98MOL   H17629470   5.521   5.987   3.596  0.3587  0.8272 -0.4338
   98MOL   H17729471   5.614   5.791   3.722  0.1063  1.6926  2.4574
   98MOL   H17829472   5.696   5.805   3.576  1.6924 -0.0628 -0.1810
   98MOL   H17929473   5.772   5.868   3.713 -0.6655 -0.6416  0.6266
   98MOL   H18029474   5.569   6.279   3.364  0.4289 -1.0280  1.2557
   98MOL   H18129475   5.507   6.414   3.456  0.1666 -0.4529  1.8008
   98MOL   C18229476   5.679   6.459   3.314  0.7618 -0.2291  0.2570
   98MOL   O18329477   5.783   6.381   3.254 -0.5974 -0.3820  0.0601
   98MOL   C18429478   5.919   6.404   3.272  0.4465 -0.3557  0.1479
   98MOL   O18529479   5.972   6.490   3.347 -0.3230  0.1074 -0.4077
   98MOL   C18629480   6.005   6.316   3.186  1.2063  0.3342  0.5666
   98MOL   C18729481   5.993   6.170   3.224  0.4322 -0.1488 -0.6055
   98MOL   C18829482   5.592   6.518   3.207  0.0948  0.2837 -0.7995
   98MOL   H18929483   5.722   6.540   3.373  0.2361  0.3495 -0.1482
   98MOL   H19029484   5.971   6.332   3.084 -0.1575 -0.6401  0.8590
   98MOL   H19129485   6.110   6.345   3.191  1.2973 -0.3899  3.7614
   98MOL   H19229486   6.085   6.113   3.207  0.0144 -1.7207  2.1511
   98MOL   H19329487   5.974   6.155   3.330  1.3828 -0.7825 -0.5196
   98MOL   H19429488   5.914   6.113   3.176 -0.5421  0.2019  0.5723
   98MOL   H19529489   5.553   6.430   3.155  0.1536 -0.2695  0.0739
   98MOL   H19629490   5.501   6.558   3.253 -0.5802 -0.8169 -1.1482
   98MOL   C19729491   5.652   6.628   3.116  0.7398  0.7677 -0.1778
   98MOL   O19829492   5.599   6.597   2.986  0.0749  0.3247 -0.1070
   98MOL   C19929493   5.674   6.529   2.899  0.1234 -1.4373 -0.0250
   98MOL   O20029494   5.781   6.481   2.917  0.0428  0.3970 -0.0678
   98MOL   C20129495   5.599   6.502   2.765  0.3317 -1.2602 -0.1412
   98MOL   C20229496   5.692   6.462   2.647  0.2495  0.5503  1.0450
   98MOL   C20329497   5.592   6.763   3.145  0.4430 -1.0887  0.2979
   98MOL   H20429498   5.761   6.629   3.125  0.6367 -0.1835  1.3889
   98MOL   H20529499   5.532   6.420   2.791 -1.2836  0.1394  0.2132
   98MOL   H20629500   5.540   6.589   2.737  2.1089  0.6093  1.8097
   98MOL   H20729501   5.627   6.415   2.573 -0.2874  2.3139  0.3678
   98MOL   H20829502   5.746   6.539   2.592 -1.5546  0.6726 -0.5932
   98MOL   H20929503   5.764   6.387   2.678 -2.4808 -2.5561  0.1408
   98MOL   H21029504   5.629   6.833   3.070 -0.1150 -1.0796  0.0314
   98MOL   H21129505   5.485   6.754   3.127  0.6205 -1.3027 -0.6966
   98MOL   C21229506   5.629   6.832   3.289  1.3159  0.0268 -0.5043
   98MOL   O21329507   5.762   6.869   3.287 -0.1399  0.1230 -0.5440
   98MOL   C21429508   5.854   6.827   3.376 -0.6374  0.1497  0.7782
   98MOL   O21529509   5.827   6.764   3.475  0.3107  0.9691  0.4671
   98MOL   C21629510   5.993   6.877   3.342  0.7431 -0.2356 -0.0110
   98MOL   C21729511   6.015   7.022   3.383 -0.0874  0.0794 -0.3319
   98MOL   C21829512   5.550   6.955   3.318  0.6407 -0.0246 -0.3278
   98MOL   H21929513   5.605   6.758   3.366 -0.2324 -0.1478 -1.1418
   98MOL   H22029514   6.069   6.818   3.392  0.5092 -0.4153  0.1369
   98MOL   H22129515   6.016   6.868   3.236 -1.2912  0.2602 -0.5224
   98MOL   H22229516   5.942   7.065   3.452  1.0822 -0.6045  1.3806
   98MOL   H22329517   6.116   7.034   3.424  0.7486 -4.4156 -0.8213
   98MOL   H22429518   6.006   7.085   3.295 -0.4913  0.3286 -0.1146
   98MOL   H22529519   5.576   6.991   3.418  0.3615 -2.3890  0.6398
   98MOL   H22629520   5.587   7.033   3.252 -1.6281  1.7431  0.4192
   98MOL   C22729521   5.396   6.946   3.326 -0.1882 -0.1742 -0.0052
   98MOL   O22829522   5.351   6.852   3.431 -0.0072 -0.0074  0.2407
   98MOL   C22929523   5.304   6.732   3.402  0.4484  0.8079 -0.7246
   98MOL   O23029524   5.287   6.673   3.296  0.3565 -0.6087  0.0450
   98MOL   C23129525   5.280   6.656   3.532 -0.0859 -0.3801 -0.1565
   98MOL   C23229526   5.243   6.507   3.510  0.2510 -0.1920  0.1362
   98MOL   C23329527   5.334   7.088   3.351 -0.4319  0.5620 -0.1207
   98MOL   H23429528   5.361   6.910   3.229 -0.5362  1.7734 -0.6395
   98MOL   H23529529   5.359   6.670   3.606  0.2921  0.3137 -0.6927
   98MOL   H23629530   5.203   6.708   3.591  0.3959 -0.7305  0.7998
   98MOL   H23729531   5.148   6.492   3.457 -0.1146  0.4416  0.6098
   98MOL   H23829532   5.308   6.444   3.450 -0.5973 -0.1891 -0.8014
   98MOL   H23929533   5.232   6.468   3.611  1.6428 -1.4951 -0.1939
   98MOL   H24029534   5.372   7.125   3.447 -0.3968 -0.6800  0.3491
   98MOL   H24129535   5.377   7.144   3.269 -0.5334  1.2909  0.3157
   98MOL   C24229536   5.178   7.104   3.342  0.2190  0.1147  0.4760
   98MOL   O24329537   5.120   7.017   3.445 -0.2656  0.2127  0.2486
   98MOL   C24429538   4.994   6.989   3.443 -0.3255  0.1199  0.0973
   98MOL   O24529539   4.915   7.009   3.346 -0.0244 -0.1559 -0.0723
   98MOL   C24629540   4.946   6.925   3.573 -0.4472 -0.1898  0.4592
   98MOL   C24729541   4.793   6.916   3.587 -0.1558 -0.0234 -0.0032
   98MOL   C24829542   5.137   7.247   3.367  0.0422  0.1965  0.4449
   98MOL   H24929543   5.147   7.077   3.241  2.1696  0.4126 -0.2032
   98MOL   H25029544   4.994   6.828   3.585 -0.9820 -0.1833  2.9631
   98MOL   H25129545   4.993   6.988   3.649  2.3836 -1.8518  0.1184
   98MOL   H25229546   4.776   6.852   3.674  1.4488  1.3180  1.3267
   98MOL   H25329547   4.746   7.014   3.599  3.3165  1.7305 -0.1016
   98MOL   H25429548   4.752   6.865   3.500 -0.9352  1.4442 -0.5102
   98MOL   H25529549   5.036   7.262   3.329  0.6460  0.7509 -0.9917
   98MOL   H25629550   5.127   7.269   3.473  0.5520  0.8080  0.3700
   98MOL   C25729551   5.226   7.359   3.301 -0.0862 -0.0237  0.0047
   98MOL   O25829552   5.210   7.348   3.161  0.0991  0.2832 -0.5841
   98MOL   C25929553   5.318   7.331   3.079 -0.0410 -0.5190  0.1806
   98MOL   O26029554   5.436   7.331   3.124  0.3259 -0.3436  0.1369
   98MOL   C26129555   5.278   7.324   2.929 -0.1043 -0.2597  0.3194
   98MOL   C26229556   5.239   7.456   2.875  0.8321  0.4044 -0.9229
   98MOL   C26329557   5.188   7.504   3.337 -0.7174 -0.8944 -0.0245
   98MOL   H26429558   5.325   7.354   3.345 -0.2581  0.1192  0.4149
   98MOL   H26529559   5.361   7.288   2.869 -0.5916 -2.0128  0.6658
   98MOL   H26629560   5.195   7.254   2.924  1.7813 -2.6697  1.5312
   98MOL   H26729561   5.300   7.537   2.915 -1.2642  1.0451  1.0837
   98MOL   H26829562   5.250   7.464   2.766  1.0559 -1.8118 -1.0885
   98MOL   H26929563   5.133   7.471   2.891  0.7402  0.3365 -1.4377
   98MOL   H27029564   5.215   7.573   3.258 -3.1571  2.3996  1.8882
   98MOL   H27129565   5.080   7.511   3.349 -0.5406 -0.7768  1.6733
   98MOL   C27229566   5.261   7.565   3.459 -0.6745 -0.1370 -0.0995
   98MOL   O27329567   5.399   7.593   3.421 -0.0421  0.0076 -0.6135
   98MOL   C27429568   5.496   7.513   3.467  0.0222 -0.4740 -0.9290
   98MOL   O27529569   5.477   7.414   3.539  0.2209  0.5713 -0.6711
   98MOL   C27629570   5.640   7.564   3.429  0.6569 -0.7338  0.7412
   98MOL   C27729571   5.705   7.477   3.320 -0.5784 -0.1645 -0.0806
   98MOL   C27829572   5.181   7.689   3.512 -0.0899  0.2611 -0.2394
   98MOL   H27929573   5.258   7.489   3.537 -0.3757  1.1969  1.2449
   98MOL   H28029574   5.631   7.668   3.399 -0.2237 -0.8190  0.6937
   98MOL   H28129575   5.702   7.579   3.518  1.7157  0.0699 -0.1230
   98MOL   H28229576   5.716   7.374   3.353  1.0883  0.5324  1.6126
   98MOL   H28329577   5.639   7.476   3.233  0.7481  1.1028 -1.1368
   98MOL   H28429578   5.804   7.513   3.291  0.4173 -1.1065  2.0374
   98MOL   H28529579   5.151   7.744   3.423 -0.1399  3.2137  1.5205
   98MOL   H28629580   5.079   7.659   3.538 -0.1176 -0.9940 -1.7392
   98MOL   C28729581   5.250   7.769   3.622 -0.1162 -0.6885  0.2546
   98MOL   O28829582   5.162   7.867   3.676  0.3041  0.1729 -0.1839
   98MOL   C28929583   5.136   0.049   3.620  0.3622  0.1255 -0.5859
   98MOL   O29029584   5.202   0.102   3.531 -0.6069  0.1563  0.0779
   98MOL   C29129585   5.020   0.128   3.684  0.4394 -0.4353  0.7260
   98MOL   C29229586   4.890   0.108   3.605 -0.2822 -0.3225 -0.7879
   98MOL   C29329587   5.275   7.679   3.745  0.2835  0.0244 -0.1607
   98MOL   H29429588   5.350   7.802   3.593  0.9078 -3.0561  1.0202
   98MOL   H29529589   5.021   0.102   3.790  2.3128 -0.4606  0.7224
   98MOL   H29629590   5.059   0.229   3.685 -1.6566  0.4307 -1.0743
   98MOL   H29729591   4.864   0.003   3.595  0.6801 -0.5811 -0.6159
   98MOL   H29829592   4.799   0.151   3.648 -1.3771 -2.4564 -0.8823
   98MOL   H29929593   4.907   0.137   3.501 -3.1484 -0.2802 -1.3016
   98MOL   H30029594   5.193   7.610   3.767 -1.4823  1.8469 -0.8799
   98MOL   H30129595   5.352   7.611   3.709 -0.3277 -1.1430  0.6966
   98MOL   H30229596   5.308   7.733   3.834  0.7692 -0.0620 -0.2893
   99MOL     C129597   0.823   2.925   2.078  0.1488 -0.4612 -0.6839
   99MOL     O229598   0.725   2.822   2.073 -0.0129 -0.9144 -0.3933
   99MOL     C329599   0.697   2.773   1.955 -0.0096  0.0744  0.1669
   99MOL     O429600   0.729   2.821   1.844  0.1194  0.2647  0.3498
   99MOL     C529601   0.623   2.638   1.969 -0.3796 -0.4444  0.0132
   99MOL     C629602   0.572   2.603   1.834 -0.1032  0.5611  0.1334
   99MOL     C729603   0.751   3.057   2.078 -0.3229 -0.5692 -0.0295
   99MOL     H829604   0.902   2.915   2.004 -0.1502 -0.6883 -0.9688
   99MOL     H929605   0.699   2.565   1.997 -1.4397 -1.5848 -0.0334
   99MOL    H1029606   0.548   2.655   2.046 -0.4101 -2.7699  0.5389
   99MOL    H1129607   0.506   2.674   1.784 -0.8591 -1.0034 -1.1068
   99MOL    H1229608   0.661   2.599   1.772 -0.5976 -1.4726 -0.4738
   99MOL    H1329609   0.524   2.505   1.842  1.9536 -0.3249  2.1095
   99MOL    H1429610   0.689   3.057   1.989  0.6551 -0.3249 -0.7176
   99MOL    H1529611   0.683   3.056   2.163 -0.8651 -1.0680 -0.4717
   99MOL    H1629612   0.877   2.919   2.173  1.3321 -1.4107 -1.4066
   99MOL    C1729613   0.841   3.184   2.070 -0.6471 -0.1746 -0.5256
   99MOL    O1829614   0.918   3.176   1.953  0.0793  0.5469  0.6848
   99MOL    C1929615   1.039   3.227   1.944 -0.5483  0.2278 -0.1950
   99MOL    O2029616   1.104   3.287   2.028 -0.2833  0.1425  0.1731
   99MOL    C2129617   1.099   3.204   1.808 -0.0326  0.6485  0.1027
   99MOL    C2229618   1.191   3.315   1.762 -0.8225 -0.1318  0.5026
   99MOL    C2329619   0.758   3.311   2.042  0.4047  0.6732  0.4023
   99MOL    H2429620   0.908   3.204   2.154 -1.2129  0.7017 -0.2779
   99MOL    H2529621   1.145   3.105   1.799  0.4727  0.7363  1.5068
   99MOL    H2629622   1.022   3.203   1.731 -0.3605 -0.1682  0.4281
   99MOL    H2729623   1.281   3.324   1.824 -1.1139 -0.3123  0.9549
   99MOL    H2829624   1.226   3.289   1.662  2.7978  1.5279  1.2741
   99MOL    H2929625   1.136   3.408   1.751 -0.6548  0.1684  2.0427
   99MOL    H3029626   0.830   3.389   2.021 -1.4777  2.0358 -1.1104
   99MOL    H3129627   0.695   3.297   1.954  0.3601  0.3077  0.4914
   99MOL    C3229628   0.666   3.354   2.158  0.4731  0.1679 -0.0540
   99MOL    O3329629   0.750   3.368   2.271  0.8363 -0.0663 -0.2040
   99MOL    C3429630   0.733   3.307   2.385 -0.2868  0.5972  0.0335
   99MOL    O3529631   0.639   3.237   2.406  0.7695 -0.0160 -0.5630
   99MOL    C3629632   0.838   3.336   2.488  0.1784  0.5661  0.0389
   99MOL    C3729633   0.816   3.456   2.568  0.4608 -0.7314 -0.0813
   99MOL    C3829634   0.599   3.486   2.122  0.1025 -0.1843 -0.1326
   99MOL    H3929635   0.587   3.279   2.164 -0.2012  0.8482 -0.3070
   99MOL    H4029636   0.842   3.254   2.560  0.4018  0.7284  0.2104
   99MOL    H4129637   0.936   3.344   2.441 -0.2758  1.6992 -0.7215
   99MOL    H4229638   0.906   3.499   2.612 -0.0271 -1.1795  1.3793
   99MOL    H4329639   0.775   3.535   2.504  0.3666  0.1389  1.0461
   99MOL    H4429640   0.736   3.444   2.641 -0.2335 -2.7319 -1.1168
   99MOL    H4529641   0.669   3.569   2.121 -2.3140  1.9140 -0.6498
   99MOL    H4629642   0.563   3.490   2.019  1.0231 -3.5333 -0.6307
   99MOL    C4729643   0.488   3.534   2.214  0.5710 -0.0953 -0.1592
   99MOL    O4829644   0.453   3.665   2.172  0.8681  0.1392  0.2528
   99MOL    C4929645   0.412   3.764   2.257  0.3592  0.4843 -0.3010
   99MOL    O5029646   0.424   3.759   2.377 -0.1468  0.1268 -0.5499
   99MOL    C5129647   0.352   3.884   2.185  0.5329  0.2013  0.1050
   99MOL    C5229648   0.208   3.923   2.221 -0.1405  0.6412 -0.2280
   99MOL    C5329649   0.373   3.440   2.231 -0.0885  0.0358  0.4028
   99MOL    H5429650   0.529   3.537   2.315 -1.4614  0.2237  0.6768
   99MOL    H5529651   0.408   3.969   2.223 -1.8642  1.9338 -0.1443
   99MOL    H5629652   0.371   3.879   2.078  0.5178  0.6160  0.0840
   99MOL    H5729653   0.200   3.946   2.327  0.9017  3.8975 -0.7737
   99MOL    H5829654   0.178   4.006   2.156  1.5900  1.4848  0.0194
   99MOL    H5929655   0.141   3.842   2.194 -0.7821 -0.2267  3.7310
   99MOL    H6029656   0.416   3.351   2.279 -2.0203 -2.3279 -2.1001
   99MOL    H6129657   0.292   3.472   2.297  0.3126  0.1240  0.8570
   99MOL    C6229658   0.303   3.398   2.102 -0.0019 -0.3186 -0.1095
   99MOL    O6329659   0.250   3.265   2.118  0.4097  0.3040 -0.0174
   99MOL    C6429660   0.314   3.156   2.068  0.6087 -0.8845  0.1197
   99MOL    O6529661   0.421   3.148   2.013  0.0599  0.4290 -0.4432
   99MOL    C6629662   0.232   3.034   2.090 -0.1510 -0.4672 -0.1367
   99MOL    C6729663   0.273   2.916   2.001 -0.4547  0.7636 -0.0166
   99MOL    C6829664   0.190   3.494   2.063  0.5543  0.3249  0.0434
   99MOL    H6929665   0.377   3.396   2.022  2.0043  1.1151  1.6411
   99MOL    H7029666   0.232   2.998   2.192 -0.6554  1.0142  0.4006
   99MOL    H7129667   0.127   3.060   2.071 -0.1157 -0.7768 -0.7697
   99MOL    H7229668   0.267   2.931   1.893  0.7983  0.8663 -0.0789
   99MOL    H7329669   0.379   2.892   2.010 -0.2924  1.2714 -0.5138
   99MOL    H7429670   0.214   2.826   2.017 -1.4659  1.5332  0.6839
   99MOL    H7529671   0.111   3.485   2.137  1.2502 -2.2697  0.5177
   99MOL    H7629672   0.224   3.597   2.060  0.6492  0.3183  0.8286
   99MOL    C7729673   0.130   3.449   1.926 -0.7115  0.1426  0.3396
   99MOL    O7829674   7.939   3.488   1.923 -0.5216 -0.0697  1.1461
   99MOL    C7929675   7.859   3.404   1.981  0.1770 -0.1625  0.0876
   99MOL    O8029676   7.887   3.290   2.020 -0.4530 -0.6137  0.4294
   99MOL    C8129677   7.725   3.468   2.004  0.6157 -0.2624 -0.9099
   99MOL    C8229678   7.630   3.425   1.892 -0.0326 -0.2328 -0.2753
   99MOL    C8329679   0.190   3.528   1.811  0.7513 -0.6158 -0.1586
   99MOL    H8429680   0.156   3.345   1.910  2.3160  0.5396  2.2994
   99MOL    H8529681   7.692   3.432   2.102  0.6946 -0.5231 -0.9779
   99MOL    H8629682   7.739   3.576   2.009  0.9936 -0.3310 -0.3298
   99MOL    H8729683   7.585   3.515   1.850  1.8944  0.7034 -0.3977
   99MOL    H8829684   7.677   3.364   1.814  1.1583 -1.3260  1.2553
   99MOL    H8929685   7.552   3.358   1.928 -1.7914  0.8744 -1.9210
   99MOL    H9029686   0.138   3.503   1.719  0.5391  1.7083 -0.6819
   99MOL    H9129687   0.165   3.631   1.836  0.6429 -0.6221 -0.2417
   99MOL    C9229688   0.337   3.501   1.769  0.3374  0.7502  0.1201
   99MOL    O9329689   0.343   3.361   1.730 -0.7907  0.2679  0.2399
   99MOL    C9429690   0.463   3.296   1.732  0.4070  0.5030  0.1524
   99MOL    O9529691   0.563   3.355   1.759 -0.2728 -0.0531 -0.4968
   99MOL    C9629692   0.449   3.153   1.684  0.3992 -0.1828  0.0103
   99MOL    C9729693   0.574   3.068   1.704  0.2521  0.3824 -0.6877
   99MOL    C9829694   0.380   3.587   1.649 -0.5993 -0.6509  0.1424
   99MOL    H9929695   0.388   3.521   1.862  0.1575 -1.2242  0.6629
   99MOL   H10029696   0.372   3.097   1.738  0.1072  1.7924  1.7403
   99MOL   H10129697   0.405   3.148   1.585  1.7894 -0.2058 -0.6069
   99MOL   H10229698   0.640   3.065   1.618 -1.5519 -0.6269 -2.0627
   99MOL   H10329699   0.630   3.105   1.790 -0.3783  1.9033 -0.9010
   99MOL   H10429700   0.555   2.962   1.720  1.5405  0.3085  0.4205
   99MOL   H10529701   0.475   3.544   1.617 -0.6740 -0.8200  0.1464
   99MOL   H10629702   0.316   3.574   1.561  0.2595 -0.3504 -0.5348
   99MOL   C10729703   0.406   3.738   1.682 -0.4028 -0.3484 -0.2905
   99MOL   O10829704   0.299   3.817   1.728  0.6287  0.2007  0.7281
   99MOL   C10929705   0.222   3.881   1.642 -1.1782 -0.0765 -0.0215
   99MOL   O11029706   0.211   3.858   1.519  0.3074  0.4535  0.2501
   99MOL   C11129707   0.127   3.976   1.712 -0.5468  0.2940 -0.1753
   99MOL   C11229708   0.035   3.897   1.808 -0.3050 -0.2774 -0.0248
   99MOL   C11329709   0.517   3.743   1.782 -0.5046 -0.3725  0.0880
   99MOL   H11429710   0.447   3.770   1.587  1.3411 -0.1579  0.5169
   99MOL   H11529711   0.189   4.041   1.774 -0.3969  0.1282 -0.1498
   99MOL   H11629712   0.065   4.028   1.639 -0.2417  1.0149  0.0751
   99MOL   H11729713   7.925   3.813   1.765  1.0349 -0.3701 -1.5697
   99MOL   H11829714   0.092   3.871   1.897  0.0736 -0.1162 -0.2165
   99MOL   H11929715   7.901   3.957   1.854  0.1307 -0.5650  1.1238
   99MOL   H12029716   0.484   3.706   1.879 -1.7575  0.4067 -0.0218
   99MOL   H12129717   0.599   3.676   1.757 -1.6922 -2.0453  0.6335
   99MOL   C12229718   0.583   3.895   1.803 -0.3074  0.5320  0.5467
   99MOL   O12329719   0.643   3.890   1.931  0.4764 -0.1112 -0.6209
   99MOL   C12429720   0.643   3.999   2.016 -0.7475  0.7150  0.0900
   99MOL   O12529721   0.576   4.099   2.002 -0.0927  0.0379 -0.1247
   99MOL   C12629722   0.736   3.980   2.138  0.1978 -0.4900  1.0164
   99MOL   C12729723   0.716   4.079   2.255  0.0712  0.7721 -0.3560
   99MOL   C12829724   0.692   3.931   1.695 -0.1166  0.7334 -0.6527
   99MOL   H12929725   0.508   3.972   1.816 -0.5493  0.6806 -1.6622
   99MOL   H13029726   0.694   3.888   2.178 -2.7570 -0.0645 -0.9458
   99MOL   H13129727   0.839   3.980   2.102  0.0407  1.1963  0.5262
   99MOL   H13229728   0.811   4.086   2.308 -1.2932 -0.1906  2.3080
   99MOL   H13329729   0.681   4.175   2.218  1.0690  1.0109 -0.6919
   99MOL   H13429730   0.640   4.042   2.324 -0.1262  1.3885 -0.2375
   99MOL   H13529731   0.752   4.002   1.752  0.6124 -0.1722 -0.2784
   99MOL   H13629732   0.747   3.842   1.666 -1.1864 -0.6847  1.5640
   99MOL   C13729733   0.633   3.992   1.573  0.4180 -0.0008  0.0950
   99MOL   O13829734   0.574   4.118   1.608  0.2662 -0.5438 -0.0155
   99MOL   C13929735   0.464   4.160   1.554 -0.2660 -0.5475  0.6695
   99MOL   O14029736   0.423   4.132   1.443 -0.3959  0.5481  0.2254
   99MOL   C14129737   0.401   4.279   1.621 -0.5392 -0.1690 -0.6413
   99MOL   C14229738   0.489   4.409   1.631  0.0702 -0.0999 -0.0890
   99MOL   C14329739   0.737   4.016   1.464 -0.7077 -0.5066  0.4445
   99MOL   H14429740   0.549   3.934   1.534  1.3161 -0.3085 -1.4099
   99MOL   H14529741   0.304   4.293   1.573 -0.5686 -0.7237 -0.7522
   99MOL   H14629742   0.374   4.248   1.722 -1.6942  2.5893 -0.0571
   99MOL   H14729743   0.589   4.376   1.659 -0.1341 -1.8755 -1.4068
   99MOL   H14829744   0.497   4.463   1.536 -3.7370  2.9709  1.1896
   99MOL   H14929745   0.444   4.478   1.702 -0.9424 -1.3268  0.4880
   99MOL   H15029746   0.717   4.096   1.392 -0.8645 -0.5280  0.4643
   99MOL   H15129747   0.837   4.038   1.500 -0.9769  1.5969 -0.0084
   99MOL   C15229748   0.743   3.880   1.377 -0.1054  0.2912 -0.1393
   99MOL   O15329749   0.633   3.884   1.286  0.2698 -0.3301  0.4023
   99MOL   C15429750   0.543   3.790   1.276 -0.3303  0.8835 -0.1978
   99MOL   O15529751   0.534   3.689   1.349 -0.7571 -0.7561  0.1620
   99MOL   C15629752   0.446   3.819   1.165  0.3361 -1.1793  0.2775
   99MOL   C15729753   0.378   3.952   1.183  0.4058 -0.1890  0.4724
   99MOL   C15829754   0.874   3.890   1.285 -0.1063  0.3032 -0.3460
   99MOL   H15929755   0.735   3.786   1.432  0.0987  0.0834 -0.4633
   99MOL   H16029756   0.492   3.816   1.066  1.5032  1.8576  0.7002
   99MOL   H16129757   0.362   3.750   1.157 -0.3772 -0.2292 -0.4700
   99MOL   H16229758   0.460   4.024   1.188  0.5457 -0.4837  2.4979
   99MOL   H16329759   0.315   3.984   1.100 -0.2762 -2.5885  0.0491
   99MOL   H16429760   0.322   3.945   1.276 -1.2845 -1.8412 -0.6307
   99MOL   H16529761   0.864   3.808   1.214 -0.1675  0.1036 -0.1096
   99MOL   H16629762   0.876   3.989   1.240 -1.2608  1.4628  2.0095
   99MOL   C16729763   1.011   3.850   1.351  0.7597 -0.0076  0.3510
   99MOL   O16829764   0.984   3.726   1.416 -0.7004 -0.3059  0.1103
   99MOL   C16929765   0.983   3.715   1.553  0.0545 -0.0426  0.4060
   99MOL   O17029766   0.977   3.804   1.641 -0.0102  0.3007  0.2276
   99MOL   C17129767   0.988   3.569   1.598 -0.5516 -0.1837 -0.1166
   99MOL   C17229768   0.864   3.490   1.558  0.5329  0.4662 -0.1233
   99MOL   C17329769   1.128   3.839   1.257  0.1566  0.4093  0.1740
   99MOL   H17429770   1.040   3.930   1.420  1.4208  1.1448 -1.2362
   99MOL   H17529771   1.081   3.520   1.570  1.1129  2.7249  0.1174
   99MOL   H17629772   0.984   3.566   1.707 -0.7959 -0.7581 -0.1396
   99MOL   H17729773   0.775   3.551   1.572  1.4454  1.6758  0.5366
   99MOL   H17829774   0.862   3.469   1.451  1.1498  3.8494 -0.8505
   99MOL   H17929775   0.859   3.392   1.605 -0.9673 -0.4909 -2.1808
   99MOL   H18029776   1.119   3.756   1.187 -1.5605  2.0834 -1.6389
   99MOL   H18129777   1.121   3.927   1.194 -0.8113  1.2311  1.3981
   99MOL   C18229778   1.258   3.830   1.337  0.9328  0.4811  0.2833
   99MOL   O18329779   1.327   3.718   1.292 -0.3893  0.4621 -0.1487
   99MOL   C18429780   1.335   3.608   1.370  0.2623 -0.3497 -0.4610
   99MOL   O18529781   1.301   3.593   1.485 -0.5048  0.9418  0.3149
   99MOL   C18629782   1.430   3.511   1.304 -0.2404  0.6798 -0.0340
   99MOL   C18729783   1.407   3.365   1.355 -0.0307 -0.8446 -0.0598
   99MOL   C18829784   1.364   3.948   1.322 -0.0176 -0.1177 -1.2102
   99MOL   H18929785   1.236   3.814   1.443 -2.0987 -2.3154 -0.7090
   99MOL   H19029786   1.419   3.515   1.196  1.7249  0.6412 -0.2610
   99MOL   H19129787   1.533   3.536   1.330 -0.9292  0.6382  2.9211
   99MOL   H19229788   1.359   3.356   1.453  0.7906 -0.4765  0.3802
   99MOL   H19329789   1.346   3.303   1.289  0.5069 -1.4929  0.0462
   99MOL   H19429790   1.496   3.302   1.359  1.2260  0.9804  1.5530
   99MOL   H19529791   1.461   3.936   1.369 -1.4447 -1.2032  1.5397
   99MOL   H19629792   1.383   3.962   1.215  1.1596  1.8369 -0.7777
   99MOL   C19729793   1.297   4.084   1.367 -0.4112  0.5690 -0.6959
   99MOL   O19829794   1.290   4.069   1.512 -0.2929 -0.5986  0.9662
   99MOL   C19929795   1.187   4.132   1.579 -0.4216  0.1146  0.2223
   99MOL   O20029796   1.097   4.198   1.529  0.0798 -0.1152 -0.3292
   99MOL   C20129797   1.187   4.096   1.726 -0.6006  0.3733  0.3872
   99MOL   C20229798   1.216   4.221   1.814  0.0007  0.0282 -0.1703
   99MOL   C20329799   1.403   4.201   1.348 -0.3928 -0.0293  0.8711
   99MOL   H20429800   1.204   4.095   1.311  0.4304 -0.2048 -2.2838
   99MOL   H20529801   1.084   4.070   1.747 -0.5300  0.5241  0.9236
   99MOL   H20629802   1.245   4.006   1.747  1.0099  1.1350 -0.6086
   99MOL   H20729803   1.182   4.224   1.918 -2.4514  1.5321 -0.9768
   99MOL   H20829804   1.321   4.248   1.818  0.1951 -0.6103 -0.8896
   99MOL   H20929805   1.161   4.302   1.767  0.3411  1.1613  1.3436
   99MOL   H21029806   1.381   4.285   1.413 -0.7433  1.6468 -1.3763
   99MOL   H21129807   1.492   4.165   1.400 -0.4737 -0.3507  0.7851
   99MOL   C21229808   1.444   4.257   1.209 -0.8498 -0.0749 -0.9802
   99MOL   O21329809   1.327   4.315   1.155  0.0658 -0.1149  0.4956
   99MOL   C21429810   1.251   4.243   1.076 -0.2364 -0.8570 -0.0321
   99MOL   O21529811   1.278   4.127   1.039  0.3802 -0.5679 -0.2541
   99MOL   C21629812   1.137   4.323   1.008 -0.8798 -0.3104 -0.3758
   99MOL   C21729813   1.186   4.464   0.960 -0.1347 -0.1554  0.0924
   99MOL   C21829814   1.544   4.383   1.214  0.4039  0.0486  0.6450
   99MOL   H21929815   1.483   4.172   1.153 -0.4700 -0.4504 -0.1519
   99MOL   H22029816   1.104   4.269   0.918 -1.6670 -1.6210  0.6797
   99MOL   H22129817   1.055   4.334   1.079 -1.0340 -0.0566 -0.5909
   99MOL   H22229818   1.243   4.461   0.867 -2.8524 -1.5173 -1.6000
   99MOL   H22329819   1.096   4.525   0.953 -0.0609  0.0772  1.2454
   99MOL   H22429820   1.248   4.517   1.032  0.6323 -0.4326 -0.3507
   99MOL   H22529821   1.601   4.390   1.122 -1.2078 -3.3843 -0.7191
   99MOL   H22629822   1.496   4.478   1.236  1.2641  0.4965  0.5654
   99MOL   C22729823   1.658   4.371   1.309 -0.2030 -0.5408 -0.3776
   99MOL   O22829824   1.728   4.248   1.326 -0.4503  0.0495 -0.2345
   99MOL   C22929825   1.800   4.201   1.223  0.8220  0.5958 -0.0661
   99MOL   O23029826   1.791   4.232   1.104 -0.1713  0.0336  0.0747
   99MOL   C23129827   1.872   4.067   1.261 -0.1226  0.4249  0.0838
   99MOL   C23229828   1.930   3.998   1.135 -0.1832 -0.0666  0.0733
   99MOL   C23329829   1.760   4.491   1.306  0.6923 -0.3667  0.5822
   99MOL   H23429830   1.622   4.387   1.411 -1.0030  0.7258 -0.8517
   99MOL   H23529831   1.963   4.090   1.317 -1.5753 -0.2698  2.8591
   99MOL   H23629832   1.816   3.991   1.316  1.2508  0.2240  1.2352
   99MOL   H23729833   1.992   4.064   1.074 -1.3137  0.9041 -0.0353
   99MOL   H23829834   1.987   3.909   1.163 -1.0327 -0.2145  1.3983
   99MOL   H23929835   1.849   3.964   1.070 -0.4898 -1.3936  1.1129
   99MOL   H24029836   1.808   4.492   1.209 -0.7083  1.5507 -0.1217
   99MOL   H24129837   1.705   4.585   1.298 -1.3784 -1.6184 -0.4720
   99MOL   C24229838   1.862   4.497   1.419  0.9171  0.0243  0.5018
   99MOL   O24329839   1.977   4.556   1.373 -0.2172 -0.1746  0.1979
   99MOL   C24429840   2.072   4.482   1.309 -0.1226 -0.1622  0.6931
   99MOL   O24529841   2.064   4.364   1.286  1.2054  0.6149 -0.0873
   99MOL   C24629842   2.193   4.557   1.256  0.3137 -0.0683 -0.6751
   99MOL   C24729843   2.155   4.698   1.218  0.2765 -0.3338  0.2506
   99MOL   C24829844   1.819   4.593   1.535  0.5998  0.0076 -0.6948
   99MOL   H24929845   1.889   4.399   1.455 -0.2610 -0.5844 -0.2373
   99MOL   H25029846   2.284   4.542   1.313  0.2690 -0.9489 -0.8303
   99MOL   H25129847   2.221   4.509   1.162  2.8297 -2.4267  1.2190
   99MOL   H25229848   2.060   4.700   1.165 -0.6621 -2.5857  1.7639
   99MOL   H25329849   2.126   4.750   1.309  1.8726 -0.8816  1.0849
   99MOL   H25429850   2.227   4.764   1.169  1.5459  0.1603  2.7115
   99MOL   H25529851   1.901   4.610   1.605 -1.3443 -0.2621  1.7357
   99MOL   H25629852   1.800   4.693   1.497  0.4847  0.6750  1.0479
   99MOL   C25729853   1.703   4.550   1.620 -0.1279 -0.0649  0.1650
   99MOL   O25829854   1.744   4.426   1.691 -0.3849 -0.2618 -0.4413
   99MOL   C25929855   1.657   4.325   1.714 -0.0431 -0.0914  0.6427
   99MOL   O26029856   1.550   4.313   1.663  0.8189  0.2473 -0.2700
   99MOL   C26129857   1.697   4.238   1.833 -0.3178 -0.4386 -0.0898
   99MOL   C26229858   1.653   4.293   1.967 -0.3806  0.2011  0.2936
   99MOL   C26329859   1.649   4.653   1.723  0.2604 -0.0599  0.3226
   99MOL   H26429860   1.616   4.528   1.559  0.3785 -0.9011 -0.2524
   99MOL   H26529861   1.651   4.140   1.820 -4.7708  1.5346 -0.2413
   99MOL   H26629862   1.805   4.226   1.823 -0.1828  1.0151 -0.4749
   99MOL   H26729863   1.651   4.205   2.031  0.7967  0.1238  0.2289
   99MOL   H26829864   1.708   4.376   2.013  0.0026  1.0546 -1.6519
   99MOL   H26929865   1.554   4.338   1.959 -1.0187 -1.6254 -2.8523
   99MOL   H27029866   1.607   4.609   1.813  1.9119 -0.1519  1.0671
   99MOL   H27129867   1.738   4.704   1.758 -0.2613  1.0564  0.0457
   99MOL   C27229868   1.567   4.758   1.654 -0.0046 -0.7907 -0.1872
   99MOL   O27329869   1.434   4.707   1.640  0.0035  0.5757  0.7426
   99MOL   C27429870   1.370   4.691   1.513 -0.3247 -0.5736  0.0240
   99MOL   O27529871   1.437   4.711   1.405 -0.1466  0.3719  0.5429
   99MOL   C27629872   1.227   4.647   1.519 -0.7674  0.1254 -0.4435
   99MOL   C27729873   1.197   4.520   1.599 -0.5160  0.2655 -0.8061
   99MOL   C27829874   1.541   4.887   1.737  0.1334 -0.0781 -0.2129
   99MOL   H27929875   1.613   4.776   1.557 -0.4864 -0.4094 -0.3440
   99MOL   H28029876   1.185   4.735   1.569  0.8453  1.4197 -1.2970
   99MOL   H28129877   1.191   4.640   1.416  0.1390 -0.2294 -0.7447
   99MOL   H28229878   1.288   4.471   1.635  2.4079  4.6192 -1.8790
   99MOL   H28329879   1.123   4.531   1.678 -0.4158 -3.1895 -0.1752
   99MOL   H28429880   1.147   4.443   1.541 -2.8151  1.6143 -0.6853
   99MOL   H28529881   1.466   4.946   1.686 -0.3697  0.3931  1.0692
   99MOL   H28629882   1.488   4.869   1.830  0.3058  1.5595  0.2099
   99MOL   C28729883   1.657   4.969   1.782  0.1377  0.1492 -0.1151
   99MOL   O28829884   1.749   4.981   1.670  0.1798 -0.6727 -0.3612
   99MOL   C28929885   1.888   5.009   1.695 -0.9275 -0.3177 -0.6066
   99MOL   O29029886   1.940   5.003   1.807 -0.4931 -0.7581 -0.1432
   99MOL   C29129887   1.957   5.050   1.571  0.4774  0.2642 -0.7277
   99MOL   C29229888   1.974   4.931   1.483  0.7846 -0.5250 -0.0901
   99MOL   C29329889   1.609   5.106   1.840 -0.1066  0.4480 -0.2368
   99MOL   H29429890   1.706   4.911   1.860 -0.1444 -0.4706 -0.3976
   99MOL   H29529891   1.907   5.126   1.511  0.1994 -1.1544 -2.3198
   99MOL   H29629892   2.055   5.091   1.598 -0.1229  0.5036  1.1513
   99MOL   H29729893   1.881   4.886   1.448 -0.4236  1.2920  0.7298
   99MOL   H29829894   2.026   4.955   1.390  2.3051  2.2925  1.4135
   99MOL   H29929895   2.026   4.844   1.523 -2.0711 -2.5195 -0.5426
   99MOL   H30029896   1.692   5.161   1.883 -0.2046 -0.8877  1.7544
   99MOL   H30129897   1.571   5.169   1.760  0.5862  1.8408  0.5316
   99MOL   H30229898   1.531   5.093   1.915  0.9001  2.0895  1.1281
  100MOL     C129899   3.046   7.897   3.827  0.3168 -0.1151 -0.2636
  100MOL     O229900   2.918   7.923   3.769 -0.5965 -0.1708  0.2069
  100MOL     C329901   2.897   0.104   3.713  0.1747 -0.7525  0.1112
  100MOL     O429902   2.987   0.189   3.699  0.2862 -0.2393 -0.1235
  100MOL     C529903   2.756   0.118   3.654 -0.0533  0.4235 -0.1725
  100MOL     C629904   2.725   0.005   3.547  0.6082 -0.3799 -0.1621
  100MOL     C729905   3.127   7.805   3.735  0.7250 -0.2892  0.3018
  100MOL     H829906   3.024   7.838   3.916 -0.4695 -0.2719 -0.5570
  100MOL     H929907   2.685   0.112   3.736  1.2385 -0.1217  0.9274
  100MOL    H1029908   2.739   0.222   3.626 -0.0275  0.1191 -1.3560
  100MOL    H1129909   2.784   0.001   3.455  1.9455  1.4238  0.5681
  100MOL    H1229910   2.736   7.852   3.593 -0.7721 -0.7540 -0.6073
  100MOL    H1329911   2.623   0.015   3.510  0.0431 -0.1924  1.4056
  100MOL    H1429912   3.060   7.731   3.692  1.0479 -0.2532 -0.2587
  100MOL    H1529913   3.164   7.878   3.663  0.0823 -0.5071 -0.2473
  100MOL    H1629914   3.100   0.042   3.857  2.1770 -1.1825 -0.3294
  100MOL    C1729915   3.247   7.734   3.797 -0.1907 -0.1577  0.2882
  100MOL    O1829916   3.308   7.663   3.695 -0.0920  0.1026  0.0776
  100MOL    C1929917   3.319   7.525   3.704 -0.1630  0.0798  0.1502
  100MOL    O2029918   3.286   7.444   3.790  0.2593 -1.0087  0.2455
  100MOL    C2129919   3.368   7.462   3.571 -0.2472 -0.3092 -0.1838
  100MOL    C2229920   3.385   7.299   3.571 -0.3992  0.0276  0.3029
  100MOL    C2329921   3.333   7.842   3.862 -0.5372 -0.1130  1.4131
  100MOL    H2429922   3.205   7.669   3.874 -1.2970 -0.7466 -0.8035
  100MOL    H2529923   3.281   7.480   3.507 -0.5514  0.9604  0.5499
  100MOL    H2629924   3.451   7.512   3.522  1.6473 -2.2684  0.9600
  100MOL    H2729925   3.290   7.245   3.576 -0.7403  0.5917 -0.0399
  100MOL    H2829926   3.423   7.259   3.477 -2.3002 -2.0025  0.3513
  100MOL    H2929927   3.442   7.262   3.656 -0.0094  0.2269  0.1293
  100MOL    H3029928   3.343   7.929   3.798 -1.4388 -1.1830 -0.2165
  100MOL    H3129929   3.289   7.884   3.953 -1.2018 -0.5204  1.2844
  100MOL    C3229930   3.470   7.791   3.907  0.3066  0.2324 -0.9681
  100MOL    O3329931   3.536   7.905   3.959 -0.0899  0.3811 -0.1213
  100MOL    C3429932   3.651   7.935   3.906 -0.2851 -0.1447 -0.0280
  100MOL    O3529933   3.691   7.896   3.794  0.3144 -0.5150  0.5873
  100MOL    C3629934   3.735   0.087   3.987  0.2036 -0.0546  0.4079
  100MOL    C3729935   3.722   0.083   4.135 -0.3087 -0.1534  0.0374
  100MOL    C3829936   3.461   7.676   4.012  0.9139  0.2374 -0.1918
  100MOL    H3929937   3.513   7.754   3.813 -1.0362  0.3702 -1.6450
  100MOL    H4029938   3.842   0.070   3.976  0.2468 -0.8166  1.9292
  100MOL    H4129939   3.716   0.191   3.959 -0.0707 -0.0149  0.7330
  100MOL    H4229940   3.618   0.092   4.168 -0.5114 -1.6486 -0.1678
  100MOL    H4329941   3.752   7.935   4.184 -1.1384 -1.4677 -1.8934
  100MOL    H4429942   3.780   0.170   4.168 -1.0822  0.3191  0.1627
  100MOL    H4529943   3.439   7.737   4.100 -1.7710 -1.5193  0.4099
  100MOL    H4629944   3.387   7.598   3.991  1.5692  0.2170 -2.5329
  100MOL    C4729945   3.596   7.624   4.044  0.2858  0.3858  0.7818
  100MOL    O4829946   3.579   7.557   4.171  0.4114  0.1077 -0.0510
  100MOL    C4929947   3.668   7.566   4.272  0.6426 -0.3915  0.0681
  100MOL    O5029948   3.772   7.634   4.274  0.2481 -0.1876 -0.1560
  100MOL    C5129949   3.632   7.484   4.397  0.1806 -0.1386 -0.1456
  100MOL    C5229950   3.484   7.505   4.436 -0.7962  0.4057 -0.3259
  100MOL    C5329951   3.645   7.517   3.943  0.7030 -0.0648 -0.5298
  100MOL    H5429952   3.668   7.704   4.057  1.1879 -0.1537 -0.7449
  100MOL    H5529953   3.630   7.382   4.359  1.2867  0.9653 -3.3298
  100MOL    H5629954   3.711   7.491   4.471 -0.4622 -1.2598  0.6702
  100MOL    H5729955   3.427   7.430   4.380  1.4930 -0.0594 -2.1064
  100MOL    H5829956   3.466   7.490   4.543 -1.4320  0.5506 -0.4104
  100MOL    H5929957   3.447   7.606   4.420 -0.1989  0.7778  0.5832
  100MOL    H6029958   3.597   7.421   3.960  1.2735 -0.3744 -0.6618
  100MOL    H6129959   3.616   7.545   3.842  0.3669 -0.8735 -0.6633
  100MOL    C6229960   3.799   7.495   3.959  0.2335 -0.4282  0.2869
  100MOL    O6329961   3.832   7.363   3.931 -0.4615  0.8945 -0.1951
  100MOL    C6429962   3.913   7.286   4.012 -0.3364 -0.9408 -0.9562
  100MOL    O6529963   3.955   7.324   4.122 -0.3334 -0.3301  0.1477
  100MOL    C6629964   3.949   7.149   3.951  0.7421 -0.0492 -0.0663
  100MOL    C6729965   4.051   7.157   3.839  0.0358 -0.0251  0.6382
  100MOL    C6829966   3.874   7.582   3.859  0.0756 -0.7268 -0.6150
  100MOL    H6929967   3.818   7.520   4.063  4.7583  3.1420 -1.2183
  100MOL    H7029968   3.976   7.083   4.032  0.6000 -1.5127 -1.1934
  100MOL    H7129969   3.856   7.114   3.905 -0.3403  3.1774 -0.5409
  100MOL    H7229970   4.022   7.231   3.765 -2.7692 -0.6464  1.0664
  100MOL    H7329971   4.142   7.190   3.888 -0.7245  3.9025 -0.4569
  100MOL    H7429972   4.058   7.062   3.785  1.3063  0.9003 -0.8716
  100MOL    H7529973   3.890   7.522   3.769 -0.8776 -1.4789 -0.2909
  100MOL    H7629974   3.811   7.660   3.817  0.0037 -0.9321 -0.8910
  100MOL    C7729975   4.007   7.644   3.913  0.4440  0.7508 -1.0446
  100MOL    O7829976   4.087   7.705   3.816  0.0799 -0.4958  0.0855
  100MOL    C7929977   4.194   7.634   3.767  0.3671 -0.2302  0.0397
  100MOL    O8029978   4.206   7.517   3.801 -0.7664 -0.3273 -0.0471
  100MOL    C8129979   4.290   7.701   3.672 -0.0291 -0.2017 -1.0342
  100MOL    C8229980   4.368   7.808   3.744 -0.6763  0.6426 -0.4279
  100MOL    C8329981   3.985   7.749   4.023 -0.0319  0.0109  0.4928
  100MOL    H8429982   4.054   7.558   3.961 -0.2840  1.6033  1.2906
  100MOL    H8529983   4.363   7.630   3.633 -0.2455  0.2386 -2.2653
  100MOL    H8629984   4.239   7.736   3.582 -0.9101  0.3747 -0.3162
  100MOL    H8729985   4.395   7.770   3.843 -0.6717 -2.8677 -1.7123
  100MOL    H8829986   4.461   7.825   3.691  0.5224  2.1269  2.0770
  100MOL    H8929987   4.314   7.902   3.758 -0.4748  0.6024  0.7387
  100MOL    H9029988   3.976   7.843   3.967 -0.7477 -1.4978 -1.9962
  100MOL    H9129989   3.894   7.740   4.082 -1.8313 -0.1408 -2.1992
  100MOL    C9229990   4.101   7.754   4.127 -0.3124 -0.0409 -0.4209
  100MOL    O9329991   4.097   7.869   4.197  0.4645 -0.4401 -0.1403
  100MOL    C9429992   4.138   0.039   4.139 -0.2003 -0.2136 -0.5970
  100MOL    O9529993   4.193   0.037   4.032  0.6560 -0.0965  0.2181
  100MOL    C9629994   4.144   0.159   4.229 -0.2510 -0.1906  0.0740
  100MOL    C9729995   4.247   0.134   4.345 -0.3092  0.0432 -0.7743
  100MOL    C9829996   4.087   7.649   4.237  0.3191  0.1745  0.2345
  100MOL    H9929997   4.193   7.732   4.072  0.2224  1.5771 -0.2133
  100MOL   H10029998   4.189   0.241   4.172 -0.0068 -2.4261 -3.1389
  100MOL   H10129999   4.049   0.198   4.263 -0.5324  0.8692 -1.8639
  100MOL   H10230000   4.238   0.222   4.409 -1.2663  0.4775 -1.4840
  100MOL   H10330001   4.221   0.042   4.397  0.4993  0.0934 -0.2823
  100MOL   H10430002   4.348   0.116   4.309 -0.6426 -2.0483 -0.7527
  100MOL   H10530003   4.033   7.699   4.318  0.4418  0.8236 -0.0802
  100MOL   H10630004   4.028   7.561   4.210 -0.7312  1.1274 -0.6065
  100MOL   C10730005   4.221   7.589   4.287 -0.1147 -0.2916  0.7823
  100MOL   O10830006   4.275   7.514   4.181 -0.0965  0.8128 -0.0878
  100MOL   C10930007   4.307   7.384   4.202 -0.0860 -0.4548  0.1793
  100MOL   O11030008   4.310   7.325   4.312 -0.0359  0.2235 -0.1085
  100MOL   C11130009   4.351   7.321   4.070  0.1089  0.1304 -0.2426
  100MOL   C11230010   4.350   7.169   4.080  0.0405  0.9130 -0.7431
  100MOL   C11330011   4.328   7.690   4.334  0.4710 -0.0575  0.2862
  100MOL   H11430012   4.216   7.521   4.372 -2.7399  1.5641  2.1465
  100MOL   H11530013   4.277   7.354   3.997 -0.4642 -1.1320 -0.2495
  100MOL   H11630014   4.446   7.368   4.047 -0.8866  1.6113 -1.4753
  100MOL   H11730015   4.414   7.125   4.157 -0.5804 -0.6336 -1.0896
  100MOL   H11830016   4.246   7.147   4.104  0.8220 -2.1860  0.1186
  100MOL   H11930017   4.368   7.113   3.989  0.7306  0.5001 -0.3593
  100MOL   H12030018   4.389   7.723   4.250 -0.5807 -0.1806 -0.5401
  100MOL   H12130019   4.281   7.778   4.378  0.5898  0.2444 -0.1951
  100MOL   C12230020   4.413   7.626   4.441 -0.2425 -0.1237 -0.7712
  100MOL   O12330021   4.525   7.706   4.457 -0.1249 -0.0347 -0.1804
  100MOL   C12430022   4.651   7.654   4.419  0.3993 -0.2094  0.4701
  100MOL   O12530023   4.671   7.554   4.354  0.1621 -0.2409 -0.1927
  100MOL   C12630024   4.761   7.764   4.447 -0.1831  0.4866 -0.3803
  100MOL   C12730025   4.718   7.901   4.407 -0.2617  0.2561 -0.6645
  100MOL   C12830026   4.339   7.608   4.579 -0.7852  0.7948 -0.2663
  100MOL   H12930027   4.438   7.527   4.403  0.1910  0.8164 -3.0262
  100MOL   H13030028   4.778   7.764   4.555 -0.5472 -1.3024 -0.2960
  100MOL   H13130029   4.854   7.736   4.397 -0.4965 -0.2640 -0.5510
  100MOL   H13230030   4.715   7.905   4.298  1.8450  2.9146 -0.6780
  100MOL   H13330031   4.618   7.933   4.434 -0.0843  1.0418 -0.9186
  100MOL   H13430032   4.782   0.039   4.437 -0.2534 -0.1527  0.4433
  100MOL   H13530033   4.329   7.713   4.608  0.1950  1.5855 -2.6393
  100MOL   H13630034   4.234   7.581   4.575 -0.4892 -0.0804 -2.6447
  100MOL   C13730035   4.416   7.533   4.690 -0.5163 -0.4294  0.1918
  100MOL   O13830036   4.350   7.553   4.807 -0.3904 -0.4196  0.6490
  100MOL   C13930037   4.409   7.630   4.908  0.4327  0.4437  1.0181
  100MOL   O14030038   4.530   7.648   4.926 -0.0307 -0.1007 -0.4221
  100MOL   C14130039   4.309   7.663   5.019  0.0230 -0.2913 -0.2960
  100MOL   C14230040   4.187   7.745   4.964  0.5090  0.1424  0.1788
  100MOL   C14330041   4.426   7.389   4.668  0.0693  0.2537  0.1946
  100MOL   H14430042   4.514   7.581   4.691 -0.4286 -0.6074  0.1651
  100MOL   H14530043   4.275   7.569   5.060  1.5405 -0.5432  0.4355
  100MOL   H14630044   4.342   7.727   5.101 -0.9000  0.8122 -0.7733
  100MOL   H14730045   4.114   7.767   5.042 -1.5576  1.6787 -2.1382
  100MOL   H14830046   4.220   7.837   4.916  4.1447 -0.6806  0.9135
  100MOL   H14930047   4.123   7.687   4.899  1.8023 -0.8696 -0.2141
  100MOL   H15030048   4.412   7.329   4.758 -3.2418  0.9750  0.2252
  100MOL   H15130049   4.345   7.345   4.610 -0.8432  0.7673  1.0549
  100MOL   C15230050   4.567   7.340   4.619 -0.6817  0.1114  0.6628
  100MOL   O15330051   4.662   7.350   4.731 -0.0256  1.1083 -0.0828
  100MOL   C15430052   4.778   7.424   4.718  0.6694  0.2291 -0.2298
  100MOL   O15530053   4.830   7.448   4.612 -0.3771  0.0490  0.7027
  100MOL   C15630054   4.842   7.467   4.849 -0.2918  0.4348 -0.1344
  100MOL   C15730055   4.923   7.359   4.915 -0.1693 -0.6162 -0.4415
  100MOL   C15830056   4.568   7.192   4.570  0.1616  1.0067 -0.4232
  100MOL   H15930057   4.611   7.398   4.538 -0.9989 -0.1071  0.3363
  100MOL   H16030058   4.900   7.556   4.829 -0.9280  0.6209 -1.1574
  100MOL   H16130059   4.763   7.494   4.920 -0.4168 -0.9206  0.2717
  100MOL   H16230060   5.011   7.338   4.854 -0.5015  1.3740 -1.6566
  100MOL   H16330061   4.957   7.393   5.013 -0.7407  2.0677 -1.1361
  100MOL   H16430062   4.868   7.270   4.946 -0.0520 -0.1123  1.2719
  100MOL   H16530063   4.545   7.125   4.652 -1.2628  1.3864 -0.5122
  100MOL   H16630064   4.487   7.177   4.499  0.2338 -1.7998  0.0540
  100MOL   C16730065   4.690   7.141   4.492  0.6452 -0.0525 -0.1528
  100MOL   O16830066   4.692   6.999   4.464  0.3521 -0.5694  0.1580
  100MOL   C16930067   4.697   6.906   4.558 -0.6586  0.1843 -0.5196
  100MOL   O17030068   4.736   6.932   4.672 -0.1156  0.2968 -0.0622
  100MOL   C17130069   4.633   6.780   4.516  0.2474 -0.2531  0.4021
  100MOL   C17230070   4.494   6.791   4.443 -0.2389 -0.2412  0.1830
  100MOL   C17330071   4.700   7.210   4.356 -0.5569  0.7083 -0.0298
  100MOL   H17430072   4.780   7.161   4.551  0.2926 -0.2384  0.4457
  100MOL   H17530073   4.709   6.743   4.447  1.6591  1.2135  1.1270
  100MOL   H17630074   4.639   6.707   4.597 -1.2021 -0.6841  0.1258
  100MOL   H17730075   4.493   6.867   4.365 -0.7380 -2.1959 -1.7819
  100MOL   H17830076   4.475   6.694   4.397 -1.4031  0.1912 -0.2680
  100MOL   H17930077   4.413   6.815   4.512  0.5223  1.8089  0.3997
  100MOL   H18030078   4.625   7.163   4.291 -0.8988  1.4753 -0.2036
  100MOL   H18130079   4.658   7.310   4.354 -2.7650 -0.2023 -1.4530
  100MOL   C18230080   4.830   7.206   4.273  0.3316 -0.5578  0.3427
  100MOL   O18330081   4.806   7.207   4.138 -0.0321 -0.5085  0.1860
  100MOL   C18430082   4.814   7.097   4.068  0.6205 -0.3922 -0.3912
  100MOL   O18530083   4.859   6.990   4.108  0.8109  0.5575 -0.4761
  100MOL   C18630084   4.782   7.122   3.916 -0.6013  0.7102  0.1220
  100MOL   C18730085   4.894   7.194   3.830  0.1107  0.5386  0.1828
  100MOL   C18830086   4.926   7.322   4.305 -0.3589  0.0981  0.3893
  100MOL   H18930087   4.885   7.115   4.299  1.1582 -1.1227 -3.1703
  100MOL   H19030088   4.752   7.025   3.874  2.1753 -0.3746  0.5754
  100MOL   H19130089   4.693   7.185   3.911 -0.8723  0.2526 -1.0045
  100MOL   H19230090   4.983   7.131   3.824 -0.7599 -0.5046 -2.8340
  100MOL   H19330091   4.870   7.196   3.724  0.3633 -3.5805 -0.0612
  100MOL   H19430092   4.910   7.295   3.867 -0.8828  1.0162 -0.6755
  100MOL   H19530093   4.888   7.410   4.254  0.7071  0.4230  0.1529
  100MOL   H19630094   4.931   7.338   4.413  0.9532  1.5226  0.1140
  100MOL   C19730095   5.073   7.292   4.241 -0.5456 -0.0595  0.3971
  100MOL   O19830096   5.151   7.414   4.231 -0.1257  0.2657 -0.2209
  100MOL   C19930097   5.225   7.440   4.125 -0.2425  0.5935 -0.7678
  100MOL   O20030098   5.192   7.407   4.010 -0.1467  0.3441 -0.3138
  100MOL   C20130099   5.341   7.541   4.156 -0.0443  0.2653  0.6932
  100MOL   C20230100   5.456   7.545   4.052 -0.1690 -0.3796 -0.4064
  100MOL   C20330101   5.166   7.198   4.314 -0.2833  0.6880  0.2455
  100MOL   H20430102   5.055   7.257   4.139 -1.2684 -0.1995  0.5729
  100MOL   H20530103   5.298   7.641   4.156 -1.1339 -0.1887 -0.3655
  100MOL   H20630104   5.371   7.516   4.257 -0.5825  0.7330  0.9707
  100MOL   H20730105   5.511   7.639   4.057  0.1406 -0.6715  2.5598
  100MOL   H20830106   5.537   7.480   4.085  0.6899  0.3696 -1.0072
  100MOL   H20930107   5.434   7.526   3.947 -2.7297  3.9656 -0.7726
  100MOL   H21030108   5.115   7.104   4.293 -0.3185  0.3805  1.6503
  100MOL   H21130109   5.260   7.190   4.260 -0.3975 -0.2677  0.1749
  100MOL   C21230110   5.171   7.199   4.467 -0.2740 -0.6859  0.0273
  100MOL   O21330111   5.218   7.079   4.533 -0.3476  0.2161  0.1515
  100MOL   C21430112   5.138   6.980   4.570  0.1698 -0.1780  0.6736
  100MOL   O21530113   5.024   6.962   4.522 -0.1204  0.1979  0.0595
  100MOL   C21630114   5.195   6.881   4.676 -0.1043 -0.0470  0.2312
  100MOL   C21730115   5.216   6.952   4.811  0.0369  0.2739 -0.0636
  100MOL   C21830116   5.265   7.311   4.532  0.7602  0.1568 -0.2854
  100MOL   H21930117   5.070   7.212   4.506 -0.8760 -0.1990 -1.6514
  100MOL   H22030118   5.120   6.803   4.675  1.4489 -1.5588  0.1378
  100MOL   H22130119   5.289   6.853   4.629 -0.5723 -0.5942 -0.3859
  100MOL   H22230120   5.135   7.023   4.827 -0.1702  0.5210 -2.0836
  100MOL   H22330121   5.227   6.896   4.904 -0.5160 -0.0775 -0.2060
  100MOL   H22430122   5.301   7.019   4.795  0.1551  0.1474  0.0406
  100MOL   H22530123   5.259   7.399   4.469 -0.1309 -2.3576 -3.8643
  100MOL   H22630124   5.233   7.347   4.630  0.1657 -1.9582  0.3291
  100MOL   C22730125   5.416   7.273   4.544  0.3379  0.9374  0.6654
  100MOL   O22830126   5.450   7.257   4.407 -0.1288  0.3261 -0.3574
  100MOL   C22930127   5.504   7.140   4.364 -0.5848 -0.2288  0.8098
  100MOL   O23030128   5.509   7.033   4.421  0.0305 -0.1584  0.0360
  100MOL   C23130129   5.553   7.152   4.214 -0.0230  0.4060  0.0574
  100MOL   C23230130   5.706   7.144   4.205  0.6807 -0.7853  0.1690
  100MOL   C23330131   5.509   7.370   4.626  0.1617 -0.4077 -0.2139
  100MOL   H23430132   5.409   7.175   4.592  0.8941  0.6658  0.1995
  100MOL   H23530133   5.507   7.079   4.147 -0.0847 -0.2306  0.7797
  100MOL   H23630134   5.510   7.244   4.173  2.3174  1.5053 -0.0341
  100MOL   H23730135   5.767   7.138   4.296  0.0745  2.3521  0.8460
  100MOL   H23830136   5.744   7.068   4.136 -1.7180  0.0272 -2.1224
  100MOL   H23930137   5.736   7.233   4.150  2.9410 -1.1984  0.6549
  100MOL   H24030138   5.463   7.391   4.723 -0.9164  1.1111 -1.0222
  100MOL   H24130139   5.599   7.313   4.650  0.6242  0.2983 -0.2698
  100MOL   C24230140   5.543   7.510   4.567 -0.2772  0.6792 -0.7340
  100MOL   O24330141   5.423   7.583   4.559  0.3444 -0.3125  0.4349
  100MOL   C24430142   5.407   7.683   4.474 -0.2159 -0.0364  0.0804
  100MOL   O24530143   5.494   7.727   4.401  0.0185  0.5333 -0.5071
  100MOL   C24630144   5.269   7.742   4.477 -0.9405 -0.2899  0.0828
  100MOL   C24730145   5.208   7.747   4.621 -0.2187 -0.2761  0.1868
  100MOL   C24830146   5.653   7.587   4.651  0.0530  0.0910  0.3599
  100MOL   H24930147   5.577   7.501   4.464  0.4286  1.8026 -0.6076
  100MOL   H25030148   5.266   7.833   4.417  1.3963  0.4788  1.0969
  100MOL   H25130149   5.196   7.684   4.420 -0.4500  1.6873 -2.6316
  100MOL   H25230150   5.220   7.647   4.663 -1.1526  0.1451  1.4931
  100MOL   H25330151   5.265   7.822   4.676 -2.4042 -0.0982  2.2987
  100MOL   H25430152   5.101   7.768   4.627  0.0468  0.8457  1.0971
  100MOL   H25530153   5.661   7.682   4.598  0.8643  0.7022  1.5486
  100MOL   H25630154   5.619   7.616   4.751  0.8753 -0.0336  0.6779
  100MOL   C25730155   5.792   7.532   4.643 -0.0519 -0.0002  0.5906
  100MOL   O25830156   5.840   7.520   4.507  0.2701 -0.7456 -0.2587
  100MOL   C25930157   5.838   7.404   4.446  0.2917  0.4046 -0.0698
  100MOL   O26030158   5.790   7.301   4.484  0.6815  0.4214  0.4806
  100MOL   C26130159   5.931   7.395   4.322 -0.1260 -0.1756  0.5929
  100MOL   C26230160   6.065   7.316   4.351 -0.5257 -0.4751 -0.2944
  100MOL   C26330161   5.898   7.606   4.720 -0.0002  0.1489 -0.1994
  100MOL   H26430162   5.774   7.437   4.694  0.6551 -1.1018 -1.1305
  100MOL   H26530163   5.883   7.334   4.246  0.8392 -0.8634  0.5295
  100MOL   H26630164   5.951   7.496   4.285 -1.5801  0.4790  1.5334
  100MOL   H26730165   6.133   7.358   4.425  0.5147 -2.1599 -0.2609
  100MOL   H26830166   6.035   7.219   4.390 -1.5114 -1.1586 -2.6520
  100MOL   H26930167   6.125   7.290   4.263 -1.2870 -0.4274 -0.8350
  100MOL   H27030168   5.990   7.567   4.677 -1.1698 -2.2837 -0.5988
  100MOL   H27130169   5.877   7.712   4.703 -1.8527 -0.0169  0.8645
  100MOL   C27230170   5.880   7.570   4.870 -0.6137 -0.3051  0.0412
  100MOL   O27330171   5.939   7.444   4.894  0.5409 -0.2687  0.2796
  100MOL   C27430172   5.862   7.326   4.885  0.3574 -0.2192 -0.1360
  100MOL   O27530173   5.742   7.320   4.885 -0.0298  0.5580 -0.0834
  100MOL   C27630174   5.941   7.197   4.874  0.1073 -0.3228  0.0725
  100MOL   C27730175   6.015   7.184   4.734 -0.2596  0.0382  0.0253
  100MOL   C27830176   5.947   7.664   4.974 -0.3956 -0.1795 -0.1895
  100MOL   H27930177   5.773   7.570   4.889 -0.6491  0.9962 -0.1035
  100MOL   H28030178   6.010   7.207   4.959 -1.1881 -0.4330  1.1615
  100MOL   H28130179   5.880   7.108   4.893 -1.0017  0.5214  0.4907
  100MOL   H28230180   6.054   7.283   4.710 -2.5834  0.0748 -4.0043
  100MOL   H28330181   6.093   7.112   4.757 -0.0716  0.7336  1.6353
  100MOL   H28430182   5.950   7.156   4.651  1.7419 -2.8600 -0.6585
  100MOL   H28530183   5.941   7.604   5.065  0.0298  0.2404  0.1160
  100MOL   H28630184   6.049   7.678   4.940 -0.0538  0.3692  1.0210
  100MOL   C28730185   5.873   7.786   5.009  0.0846  0.7404 -0.0619
  100MOL   O28830186   5.741   7.759   5.043 -0.0448 -0.0686 -0.2509
  100MOL   C28930187   5.643   7.839   5.015  0.5371  0.2586 -0.3266
  100MOL   O29030188   5.650   7.938   4.946 -0.5522  0.0017  0.2109
  100MOL   C29130189   5.510   7.790   5.068 -0.1770  0.4575 -0.2521
  100MOL   C29230190   5.479   7.840   5.208 -0.2233 -0.1497  0.1252
  100MOL   C29330191   5.945   7.867   5.123 -0.0539  0.1844  0.4019
  100MOL   H29430192   5.886   7.849   4.920 -2.1140  0.1688 -0.8185
  100MOL   H29530193   5.427   7.815   5.001 -2.5166  2.2132  3.1966
  100MOL   H29630194   5.516   7.681   5.069 -3.9769  0.0858 -2.9795
  100MOL   H29730195   5.435   7.939   5.194  1.6552  0.7353  0.3221
  100MOL   H29830196   5.403   7.776   5.252 -1.1617  2.2823  2.1601
  100MOL   H29930197   5.572   7.844   5.264  0.4181 -0.7248 -0.8750
  100MOL   H30030198   5.899   7.835   5.216 -3.1795  1.2737 -0.7119
  100MOL   H30130199   6.052   7.847   5.124 -0.1327 -1.5160 -5.4497
  100MOL   H30230200   5.933   0.030   5.121 -2.1292 -0.0374 -0.2532
  101MOL     C130201   5.977   6.078   2.849  0.2244  0.1156  0.2261
  101MOL     O230202   6.069   6.188   2.820  0.8331 -0.2555  0.4224
  101MOL     C330203   6.093   6.242   2.694 -0.2615  0.6228 -0.4489
  101MOL     O430204   6.038   6.201   2.591 -0.6321 -0.2604 -0.3299
  101MOL     C530205   6.188   6.360   2.682  0.4489 -0.1246 -0.1222
  101MOL     C630206   6.176   6.479   2.779 -0.0041  0.0587  0.4445
  101MOL     C730207   5.840   6.146   2.857  0.5815 -0.1756 -0.0319
  101MOL     H830208   5.995   6.035   2.947  2.3968  0.4247 -0.0233
  101MOL     H930209   6.289   6.323   2.699  1.2338  1.0518 -2.0481
  101MOL    H1030210   6.176   6.388   2.577 -0.1152  1.5830  0.3687
  101MOL    H1130211   6.251   6.554   2.757  0.3639 -0.4971 -0.2306
  101MOL    H1230212   6.090   6.544   2.760 -0.3601 -0.2655  0.9297
  101MOL    H1330213   6.195   6.470   2.886  0.6969  0.7705  0.3857
  101MOL    H1430214   5.845   6.231   2.925  1.8005 -1.9285  2.1414
  101MOL    H1530215   5.833   6.203   2.765 -0.5116  0.6703  0.5702
  101MOL    H1630216   5.982   5.996   2.778  1.7837  0.3075  0.0973
  101MOL    C1730217   5.716   6.062   2.878 -0.2040  0.2723 -0.1675
  101MOL    O1830218   5.708   6.007   3.011 -0.3319  0.9950 -0.0822
  101MOL    C1930219   5.765   5.887   3.043  0.7650  0.6190 -0.6323
  101MOL    O2030220   5.823   5.813   2.968 -0.0282  0.3319  0.2043
  101MOL    C2130221   5.749   5.842   3.189 -0.4065 -0.3512 -0.2208
  101MOL    C2230222   5.668   5.940   3.273  0.1088  0.0737  0.0482
  101MOL    C2330223   5.589   6.148   2.857  0.1262 -0.2369 -0.2013
  101MOL    H2430224   5.723   5.977   2.810 -0.6093 -1.9371  2.4664
  101MOL    H2530225   5.711   5.740   3.196 -0.9865 -0.1583 -0.4668
  101MOL    H2630226   5.854   5.846   3.215  0.2920  0.3072 -2.9584
  101MOL    H2730227   5.691   6.042   3.241 -2.1922  0.4187 -0.5935
  101MOL    H2830228   5.561   5.937   3.258 -0.1326  2.1367  1.0688
  101MOL    H2930229   5.677   5.925   3.381  0.3944 -1.1787 -0.1440
  101MOL    H3030230   5.604   6.230   2.928  0.6788 -0.3520 -0.1817
  101MOL    H3130231   5.588   6.187   2.756  0.8474  0.7450  0.1612
  101MOL    C3230232   5.457   6.074   2.860  0.4781 -0.0720  0.8805
  101MOL    O3330233   5.362   6.179   2.889 -0.0871  0.2132  0.2201
  101MOL    C3430234   5.323   6.214   3.017  0.3153 -0.3626 -0.4861
  101MOL    O3530235   5.373   6.167   3.120 -0.0166 -1.0674  0.0500
  101MOL    C3630236   5.211   6.316   3.015  0.4160  0.3718  0.2543
  101MOL    C3730237   5.253   6.461   3.025  0.3130 -0.0154 -0.5161
  101MOL    C3830238   5.418   6.008   2.725  0.0851  0.1886  0.3387
  101MOL    H3930239   5.462   5.998   2.939 -1.0677  0.8843  1.9163
  101MOL    H4030240   5.163   6.324   2.917  2.5745 -3.1068 -1.1797
  101MOL    H4130241   5.136   6.285   3.087 -1.1123 -0.6966 -1.7584
  101MOL    H4230242   5.360   6.477   3.038  0.3260 -0.2780 -0.2933
  101MOL    H4330243   5.228   6.513   2.933 -0.9156 -2.4027 -1.5931
  101MOL    H4430244   5.204   6.504   3.112 -0.5556 -1.8575 -0.0675
  101MOL    H4530245   5.314   5.979   2.735  0.2712 -0.0977  1.4961
  101MOL    H4630246   5.413   6.079   2.643 -0.3606  0.5841  0.7076
  101MOL    C4730247   5.488   5.887   2.664 -0.2227 -0.1111 -0.1839
  101MOL    O4830248   5.610   5.926   2.601  0.3758  0.0714  0.3159
  101MOL    C4930249   5.623   5.946   2.464  0.1666 -0.3973 -0.0862
  101MOL    O5030250   5.537   5.931   2.379 -0.4361 -0.1454 -0.1650
  101MOL    C5130251   5.754   6.022   2.440  0.1140 -0.1071 -0.4592
  101MOL    C5230252   5.732   6.172   2.457 -0.0992  0.3928  0.6885
  101MOL    C5330253   5.514   5.763   2.752 -0.1961 -0.1531 -0.2266
  101MOL    H5430254   5.429   5.865   2.575 -1.2981  1.5749  0.1038
  101MOL    H5530255   5.840   5.992   2.501 -0.2486 -2.1212 -0.8758
  101MOL    H5630256   5.786   6.001   2.337 -1.0878 -1.0136 -0.6563
  101MOL    H5730257   5.816   6.229   2.497  0.8640 -1.2399  1.0509
  101MOL    H5830258   5.714   6.214   2.358  1.2804  0.0723  0.2911
  101MOL    H5930259   5.639   6.188   2.511  0.5896 -0.6365  2.2259
  101MOL    H6030260   5.559   5.789   2.848 -0.7908  0.6900 -0.1674
  101MOL    H6130261   5.414   5.734   2.783  0.3266 -0.4644  1.2237
  101MOL    C6230262   5.596   5.640   2.696 -0.8495 -0.3715  0.7357
  101MOL    O6330263   5.735   5.670   2.692  0.1405 -0.0827  0.3373
  101MOL    C6430264   5.822   5.643   2.591 -0.2849 -0.6451  0.2586
  101MOL    O6530265   5.786   5.613   2.477  0.4759  0.2048  0.0143
  101MOL    C6630266   5.968   5.652   2.627  0.0026  0.5603 -0.0129
  101MOL    C6730267   6.020   5.526   2.702  0.5343  0.0647 -0.3186
  101MOL    C6830268   5.600   5.524   2.796 -0.0599 -0.3242  0.1381
  101MOL    H6930269   5.574   5.605   2.596 -1.0758  0.8881  0.3291
  101MOL    H7030270   6.022   5.672   2.535 -0.6527  2.8223  0.0594
  101MOL    H7130271   5.981   5.736   2.695 -0.1029  0.1110  0.5667
  101MOL    H7230272   5.949   5.500   2.780  2.5262  0.5645  1.7188
  101MOL    H7330273   6.025   5.440   2.636  1.8697 -1.7863  2.1263
  101MOL    H7430274   6.126   5.527   2.730  0.8159  2.4944 -1.3181
  101MOL    H7530275   5.682   5.454   2.781 -0.1544 -0.3004 -0.5169
  101MOL    H7630276   5.637   5.567   2.889 -0.4357  0.6074 -0.1363
  101MOL    C7730277   5.470   5.445   2.824  0.1231  0.2193  0.1151
  101MOL    O7830278   5.433   5.340   2.733  0.3889  0.9754 -0.3760
  101MOL    C7930279   5.304   5.335   2.692 -0.0908 -0.4592  0.0696
  101MOL    O8030280   5.213   5.412   2.710  0.0481  0.4705 -0.1427
  101MOL    C8130281   5.286   5.216   2.603  0.5572 -0.3202 -0.2073
  101MOL    C8230282   5.288   5.235   2.453 -0.3681  0.2780  0.6467
  101MOL    C8330283   5.484   5.380   2.962  0.3393  0.3459 -0.4292
  101MOL    H8430284   5.392   5.520   2.829  0.2497  0.4052 -0.5973
  101MOL    H8530285   5.361   5.142   2.632 -2.4087 -2.3329  2.7583
  101MOL    H8630286   5.192   5.165   2.627  0.9589 -0.7539  0.4633
  101MOL    H8730287   5.219   5.316   2.431 -0.8732 -0.1675  0.5844
  101MOL    H8830288   5.385   5.246   2.405 -0.1145 -1.0030  0.8272
  101MOL    H8930289   5.240   5.153   2.399 -0.3648  1.0499 -0.5394
  101MOL    H9030290   5.405   5.306   2.962  0.6897 -0.0783 -3.0246
  101MOL    H9130291   5.572   5.320   2.987  0.5950 -0.3344 -2.9129
  101MOL    C9230292   5.460   5.474   3.081 -0.1924  0.2007 -0.0241
  101MOL    O9330293   5.324   5.502   3.071 -0.0134 -0.4208 -0.1292
  101MOL    C9430294   5.271   5.624   3.081  0.9548  0.1312  0.6391
  101MOL    O9530295   5.343   5.722   3.098  0.0423  0.0717 -0.3207
  101MOL    C9630296   5.121   5.629   3.072  0.2147 -1.1524  0.1908
  101MOL    C9730297   5.073   5.655   2.924 -0.4897  0.1839  0.2604
  101MOL    C9830298   5.493   5.397   3.213 -0.2155 -0.1349 -0.1270
  101MOL    H9930299   5.524   5.562   3.076  1.5548 -0.9800  0.7662
  101MOL   H10030300   5.092   5.535   3.118 -1.9268 -1.6484 -2.0161
  101MOL   H10130301   5.073   5.705   3.133  0.7642  1.1111 -2.1090
  101MOL   H10230302   4.966   5.654   2.906 -0.3445 -0.1807 -0.6223
  101MOL   H10330303   5.117   5.747   2.886  0.3797 -0.3532 -0.0689
  101MOL   H10430304   5.103   5.569   2.863  1.2092  2.0140 -1.5493
  101MOL   H10530305   5.460   5.461   3.295  1.0118 -0.6171  0.7657
  101MOL   H10630306   5.425   5.312   3.206 -0.5405 -0.0168  1.3897
  101MOL   C10730307   5.635   5.334   3.243 -0.4257 -0.0428  0.2503
  101MOL   O10830308   5.732   5.434   3.224  0.2534 -0.4786 -0.4103
  101MOL   C10930309   5.831   5.423   3.129  0.0734 -0.3862 -0.3559
  101MOL   O11030310   5.833   5.342   3.038 -0.1813 -0.1057  0.1721
  101MOL   C11130311   5.942   5.526   3.141 -0.1608  0.2785 -0.3836
  101MOL   C11230312   5.998   5.521   3.289 -0.1748  0.2231  0.4897
  101MOL   C11330313   5.652   5.283   3.393 -0.4831 -0.3206  0.2558
  101MOL   H11430314   5.661   5.251   3.177  0.9182  0.8416 -0.3384
  101MOL   H11530315   6.022   5.495   3.072  0.0816  0.3962 -0.1560
  101MOL   H11630316   5.898   5.624   3.121  1.0174  0.6312 -1.3035
  101MOL   H11730317   5.983   5.419   3.325 -0.1350  0.3736  0.9338
  101MOL   H11830318   6.107   5.530   3.288 -0.0430 -1.1893  1.1389
  101MOL   H11930319   5.958   5.597   3.356 -0.7848  0.6039 -0.2960
  101MOL   H12030320   5.756   5.254   3.408 -0.5694 -0.4946  0.5107
  101MOL   H12130321   5.638   5.366   3.461 -0.2808 -0.8278  0.9234
  101MOL   C12230322   5.561   5.162   3.444  0.7417 -0.1590 -0.1312
  101MOL   O12330323   5.580   5.050   3.360  0.1399  0.2102 -0.1844
  101MOL   C12430324   5.483   5.004   3.281  0.0879  0.6595  0.6439
  101MOL   O12530325   5.369   5.040   3.276  0.3463 -0.6470  0.0981
  101MOL   C12630326   5.541   4.903   3.194  0.4427 -0.3884 -0.2895
  101MOL   C12730327   5.606   4.953   3.063 -0.0557 -0.3388  1.3983
  101MOL   C12830328   5.589   5.123   3.588 -0.0876 -0.0795 -0.7794
  101MOL   H12930329   5.458   5.193   3.430  0.5832 -0.9679 -0.8028
  101MOL   H13030330   5.599   4.843   3.264 -1.5242 -2.5956 -0.4887
  101MOL   H13130331   5.461   4.836   3.162 -0.5572 -0.2542  1.8647
  101MOL   H13230332   5.534   5.001   2.996 -1.2958  0.3295  3.1605
  101MOL   H13330333   5.683   5.025   3.091 -0.8938  0.9711  0.3952
  101MOL   H13430334   5.649   4.871   3.006 -0.3636  0.3949  0.0686
  101MOL   H13530335   5.659   5.039   3.585  0.0618  0.0761 -1.9842
  101MOL   H13630336   5.628   5.210   3.640 -1.2786 -0.8655  1.4762
  101MOL   C13730337   5.468   5.065   3.662  0.6923 -0.1059 -0.3045
  101MOL   O13830338   5.523   4.989   3.770  0.5517 -0.0653  0.0783
  101MOL   C13930339   5.463   4.875   3.806  0.1159  0.0324  0.6858
  101MOL   O14030340   5.352   4.832   3.767  0.2025  0.3907 -0.1161
  101MOL   C14130341   5.537   4.798   3.913 -0.4266 -0.6994 -0.1393
  101MOL   C14230342   5.459   4.685   3.984 -0.3438  0.3723 -0.5987
  101MOL   C14330343   5.379   5.170   3.734 -0.0593  0.4078  0.3258
  101MOL   H14430344   5.408   5.014   3.587  1.9224 -0.3183 -1.1620
  101MOL   H14530345   5.618   4.748   3.860 -0.8985 -1.0119 -0.5686
  101MOL   H14630346   5.581   4.867   3.985 -1.8404  0.7049 -0.5799
  101MOL   H14730347   5.520   4.599   4.008  0.4490  0.3593 -2.5512
  101MOL   H14830348   5.425   4.717   4.083  0.3599  0.5957 -0.4310
  101MOL   H14930349   5.369   4.653   3.930 -0.9393 -0.4625  0.8559
  101MOL   H15030350   5.304   5.118   3.795  0.3015  0.0543  0.4704
  101MOL   H15130351   5.446   5.212   3.808  1.2005 -0.7824 -0.0999
  101MOL   C15230352   5.319   5.281   3.653 -0.3240  0.0206  0.3189
  101MOL   O15330353   5.215   5.233   3.570 -0.0210 -0.2786 -0.8759
  101MOL   C15430354   5.193   5.289   3.444  0.7375 -0.0952  0.3430
  101MOL   O15530355   5.247   5.387   3.396 -0.2436  0.0651 -0.2527
  101MOL   C15630356   5.082   5.220   3.365 -0.4016  0.0115  0.1939
  101MOL   C15730357   4.971   5.155   3.448  0.1464 -0.1060 -0.1998
  101MOL   C15830358   5.257   5.383   3.754 -0.1549  0.0096 -0.3550
  101MOL   H15930359   5.405   5.325   3.603 -0.0358  0.4358  1.1562
  101MOL   H16030360   5.040   5.302   3.308  0.5674  0.0958 -0.4059
  101MOL   H16130361   5.128   5.151   3.293  0.2869  1.3230 -0.6339
  101MOL   H16230362   4.945   5.230   3.523 -0.2266  1.4175 -1.8180
  101MOL   H16330363   4.888   5.135   3.380 -1.9135 -0.9464  2.4470
  101MOL   H16430364   4.997   5.059   3.493  1.6050 -0.1327 -1.0725
  101MOL   H16530365   5.170   5.425   3.704 -0.5714 -0.6612 -0.2086
  101MOL   H16630366   5.215   5.336   3.843  3.3901 -2.2440  0.2365
  101MOL   C16730367   5.354   5.499   3.785  0.3238 -0.5221  0.6042
  101MOL   O16830368   5.327   5.607   3.688 -0.2576 -0.0661  0.2479
  101MOL   C16930369   5.410   5.630   3.583 -0.5094 -0.0783  0.0796
  101MOL   O17030370   5.525   5.586   3.579  0.3030 -0.6802  0.2826
  101MOL   C17130371   5.348   5.730   3.488  0.1797 -0.6320 -0.5513
  101MOL   C17230372   5.193   5.738   3.488  0.2988  0.0240 -0.2253
  101MOL   C17330373   5.347   5.578   3.914  0.4467 -0.3375  0.2304
  101MOL   H17430374   5.458   5.475   3.765 -0.3299 -1.9679 -1.2441
  101MOL   H17530375   5.390   5.823   3.527 -0.1425 -0.6238 -0.2172
  101MOL   H17630376   5.389   5.708   3.389  3.7192 -1.3776  0.9853
  101MOL   H17730377   5.143   5.649   3.449  0.4709 -0.3129  0.3199
  101MOL   H17830378   5.154   5.754   3.588 -0.0078  2.6774 -0.7334
  101MOL   H17930379   5.155   5.824   3.432 -0.6424  0.1223  0.5485
  101MOL   H18030380   5.378   5.682   3.903 -1.7451  0.3116 -0.2339
  101MOL   H18130381   5.239   5.591   3.930  0.1582 -1.7915 -0.5306
  101MOL   C18230382   5.417   5.505   4.033  0.4123 -0.0926 -0.0101
  101MOL   O18330383   5.541   5.575   4.060  0.3011  0.2123  0.3393
  101MOL   C18430384   5.652   5.499   4.045 -0.4654 -0.3916  0.2237
  101MOL   O18530385   5.655   5.388   3.994 -0.3862 -0.0233 -0.1450
  101MOL   C18630386   5.776   5.571   4.089 -0.4849 -0.4271 -0.1746
  101MOL   C18730387   5.795   5.700   4.021 -0.6322  0.4881 -0.5292
  101MOL   C18830388   5.342   5.525   4.172  0.0175 -0.8002 -0.2386
  101MOL   H18930389   5.417   5.398   4.011 -1.6548  0.4212 -2.8147
  101MOL   H19030390   5.768   5.580   4.197 -1.7860 -1.4442 -0.1652
  101MOL   H19130391   5.852   5.498   4.060 -2.2200 -2.2821 -0.2392
  101MOL   H19230392   5.828   5.680   3.919  2.5545 -0.2573  0.5829
  101MOL   H19330393   5.716   5.776   4.021 -0.6745  0.4492 -1.0921
  101MOL   H19430394   5.880   5.745   4.071 -1.8302  2.0873  0.0924
  101MOL   H19530395   5.415   5.522   4.253 -1.9844 -2.6385  1.5923
  101MOL   H19630396   5.302   5.627   4.167 -0.6893 -1.0003  1.1253
  101MOL   C19730397   5.225   5.427   4.192 -1.2203  0.0446 -0.1328
  101MOL   O19830398   5.282   5.300   4.218  0.7752 -0.2045 -0.0652
  101MOL   C19930399   5.215   5.183   4.191  0.2282  0.8604  0.0251
  101MOL   O20030400   5.104   5.170   4.136 -0.3279 -0.0928 -0.6702
  101MOL   C20130401   5.299   5.060   4.225  0.0334  0.3905  0.9925
  101MOL   C20230402   5.420   5.030   4.125  0.5868  0.0690 -0.2103
  101MOL   C20330403   5.149   5.468   4.327 -0.2019  0.4281 -0.1912
  101MOL   H20430404   5.157   5.432   4.107 -0.3942 -2.6464 -0.9873
  101MOL   H20530405   5.343   5.072   4.324  0.1311  1.8543  0.7858
  101MOL   H20630406   5.227   4.977   4.227  0.3722  0.0603  0.0497
  101MOL   H20730407   5.367   5.005   4.033  1.2944 -0.7419 -0.4056
  101MOL   H20830408   5.480   5.117   4.098  0.1255  0.2106 -0.8027
  101MOL   H20930409   5.492   4.954   4.155 -0.7375 -0.2652  2.2491
  101MOL   H21030410   5.097   5.382   4.368  0.2763  0.2639  0.0801
  101MOL   H21130411   5.225   5.502   4.398  0.1468 -1.4692  0.3902
  101MOL   C21230412   5.052   5.577   4.311 -0.3130 -0.2365  0.2045
  101MOL   O21330413   4.951   5.517   4.230 -0.1924 -0.0774  0.2446
  101MOL   C21430414   4.913   5.591   4.119 -1.0516 -0.3469  0.1201
  101MOL   O21530415   4.928   5.712   4.106 -0.1275 -0.5286  0.0210
  101MOL   C21630416   4.845   5.510   4.008  0.1910 -0.2564 -0.8781
  101MOL   C21730417   4.724   5.587   3.948  0.6345 -0.7074 -0.2904
  101MOL   C21830418   4.982   5.607   4.450 -0.4768 -0.2131  0.1266
  101MOL   H21930419   5.081   5.672   4.267 -0.5707  0.5845  1.7443
  101MOL   H22030420   4.915   5.495   3.926 -0.0309 -2.8842 -0.6236
  101MOL   H22130421   4.815   5.408   4.035 -0.7470  1.2480  4.3921
  101MOL   H22230422   4.634   5.591   4.010  2.0277 -1.0062  1.7803
  101MOL   H22330423   4.755   5.683   3.907  1.5567 -0.7212  0.3741
  101MOL   H22430424   4.684   5.537   3.860  2.2767  0.8902 -1.9851
  101MOL   H22530425   4.883   5.644   4.424 -0.5825 -0.4922  0.1414
  101MOL   H22630426   4.967   5.509   4.495  0.1478 -0.6135 -0.5186
  101MOL   C22730427   5.052   5.706   4.544 -0.3014 -0.0048 -0.2724
  101MOL   O22830428   5.034   5.842   4.505  0.5685 -1.0595  0.2076
  101MOL   C22930429   5.134   5.919   4.447 -0.2369  0.2511 -1.2983
  101MOL   O23030430   5.256   5.888   4.438 -0.4125 -0.0398  0.4114
  101MOL   C23130431   5.077   6.049   4.394  0.0319 -1.2155  0.1371
  101MOL   C23230432   5.053   6.055   4.241 -0.2872  0.1938  0.2575
  101MOL   C23330433   5.006   5.683   4.688 -0.6322 -0.1774 -0.2083
  101MOL   H23430434   5.160   5.689   4.543 -0.5502 -1.5783 -0.4027
  101MOL   H23530435   4.989   6.080   4.448 -1.1980 -0.2084 -2.3533
  101MOL   H23630436   5.156   6.117   4.425 -0.5036 -0.6311  0.2159
  101MOL   H23730437   5.138   6.013   4.186 -1.6142  0.6404 -2.2405
  101MOL   H23830438   4.966   6.000   4.205  0.0381  0.2299 -0.6139
  101MOL   H23930439   5.027   6.152   4.198 -1.6222  0.4206  1.5662
  101MOL   H24030440   4.900   5.705   4.700 -1.2954 -2.9478 -0.6327
  101MOL   H24130441   5.007   5.574   4.699  1.8706 -0.3307 -1.5646
  101MOL   C24230442   5.093   5.751   4.789 -0.5800 -0.0804 -0.2405
  101MOL   O24330443   5.028   5.869   4.844  0.7152 -0.4114 -0.3340
  101MOL   C24430444   4.948   5.854   4.949 -0.4402  0.6492  0.0445
  101MOL   O24530445   4.919   5.751   5.007 -0.2593  0.1962 -0.0044
  101MOL   C24630446   4.898   5.991   5.005  0.2649  0.3952 -0.2820
  101MOL   C24730447   4.929   6.008   5.150 -0.0178 -0.1613  0.1429
  101MOL   C24830448   5.165   5.657   4.888 -0.1433  0.0018 -0.0963
  101MOL   H24930449   5.175   5.807   4.745  1.9314 -1.2944  2.6884
  101MOL   H25030450   4.922   6.081   4.947  2.1777 -0.1016 -0.2751
  101MOL   H25130451   4.789   5.989   5.007  0.2623  0.4222 -0.3470
  101MOL   H25230452   4.907   5.917   5.206  3.3832  0.1559  2.1347
  101MOL   H25330453   5.031   6.046   5.157  0.5015 -1.2214 -1.3261
  101MOL   H25430454   4.864   6.087   5.186  0.8827  1.5195 -1.8388
  101MOL   H25530455   5.212   5.701   4.976  0.4036 -1.8476  0.5640
  101MOL   H25630456   5.096   5.586   4.934  0.6960 -0.2553  0.7652
  101MOL   C25730457   5.272   5.575   4.803 -0.1582  0.2012  0.0385
  101MOL   O25830458   5.369   5.664   4.751  0.2259 -0.2815 -0.8115
  101MOL   C25930459   5.429   5.653   4.633  0.1688 -0.4453 -0.3983
  101MOL   O26030460   5.411   5.566   4.549  0.1205  0.2398 -0.1984
  101MOL   C26130461   5.518   5.764   4.596 -1.2000  0.2037  0.0054
  101MOL   C26230462   5.614   5.743   4.475 -0.3010  0.1806 -0.0598
  101MOL   C26330463   5.350   5.470   4.881 -0.5528  0.2102  0.7686
  101MOL   H26430464   5.222   5.545   4.711  0.3901  3.3154 -1.3243
  101MOL   H26530465   5.448   5.838   4.559  0.7370  1.1812 -1.7862
  101MOL   H26630466   5.562   5.824   4.675  2.0480  1.8835 -2.9619
  101MOL   H26730467   5.562   5.696   4.392 -0.9471  0.8121 -0.0185
  101MOL   H26830468   5.647   5.843   4.445  1.0623 -0.2095  0.1050
  101MOL   H26930469   5.703   5.682   4.492 -0.3407  0.3952  0.9401
  101MOL   H27030470   5.429   5.427   4.818  0.5266  1.1112  1.5026
  101MOL   H27130471   5.389   5.520   4.969 -1.2583 -1.5510  2.1034
  101MOL   C27230472   5.265   5.345   4.922 -0.6789 -0.2573 -0.0732
  101MOL   O27330473   5.273   5.237   4.828 -0.5843  0.2030  0.2906
  101MOL   C27430474   5.199   5.234   4.707 -0.2549  0.5544 -0.2413
  101MOL   O27530475   5.129   5.327   4.665 -0.3088  0.1438 -0.3553
  101MOL   C27630476   5.220   5.104   4.626  0.6821  0.3995 -0.3154
  101MOL   C27730477   5.127   5.090   4.505 -0.0936  0.2288 -0.0960
  101MOL   C27830478   5.310   5.285   5.051 -0.3395 -0.3176 -1.0276
  101MOL   H27930479   5.158   5.364   4.924 -0.0457  4.1439 -2.1684
  101MOL   H28030480   5.326   5.090   4.604  0.8919 -0.0190  0.9143
  101MOL   H28130481   5.206   5.019   4.693  0.9271  0.2269 -0.4847
  101MOL   H28230482   5.136   4.995   4.452  0.0293 -0.8078  1.7422
  101MOL   H28330483   5.025   5.094   4.543  0.4658  1.2640  1.3235
  101MOL   H28430484   5.137   5.172   4.434 -2.9493  1.4861  0.8963
  101MOL   H28530485   5.384   5.209   5.024  0.5207  0.6423 -1.3866
  101MOL   H28630486   5.359   5.360   5.112 -1.5966 -0.6768  0.4419
  101MOL   C28730487   5.200   5.212   5.128  0.3438  0.0587 -0.0316
  101MOL   O28830488   5.148   5.108   5.039  0.1672 -0.7145  0.3302
  101MOL   C28930489   5.016   5.110   5.009  1.1094 -0.2071  0.0020
  101MOL   O29030490   4.930   5.190   5.036 -0.0315 -0.0711  0.2988
  101MOL   C29130491   4.977   4.987   4.928  0.3946 -0.3079  0.2815
  101MOL   C29230492   4.856   5.017   4.830 -0.0690 -0.1556  0.3493
  101MOL   C29330493   5.256   5.141   5.255  0.2361 -0.3228 -0.2661
  101MOL   H29430494   5.120   5.283   5.150  0.1425 -0.2084  0.0915
  101MOL   H29530495   5.065   4.970   4.865 -1.0217 -1.1089 -1.5213
  101MOL   H29630496   4.952   4.902   4.991  0.0600  0.0884  0.6838
  101MOL   H29730497   4.835   4.925   4.776  1.0406  0.8293 -1.8571
  101MOL   H29830498   4.770   5.058   4.882  1.3065  0.6193  2.0593
  101MOL   H29930499   4.891   5.096   4.764 -0.0949  0.2710  0.8380
  101MOL   H30030500   5.333   5.065   5.237  0.3631  0.2116 -2.1206
  101MOL   H30130501   5.299   5.215   5.323  0.4843  0.3742 -1.1746
  101MOL   H30230502   5.174   5.093   5.308  0.2271 -0.0012  0.0092
  102MOL     C130503   7.244   0.169   5.476  0.1291  0.5419  0.3764
  102MOL     O230504   7.198   0.079   5.581  0.5089 -0.1139 -0.5131
  102MOL     C330505   7.065   0.068   5.615 -0.2430 -0.1595 -0.2498
  102MOL     O430506   6.977   0.119   5.549  0.8141  0.4887 -0.1386
  102MOL     C530507   7.045   7.909   5.722 -0.1839 -0.0729 -0.2851
  102MOL     C630508   7.161   7.798   5.721  0.7269 -0.5302 -0.3343
  102MOL     C730509   7.364   0.109   5.394  0.6305  0.2961  0.2180
  102MOL     H830510   7.275   0.261   5.524  2.2883 -0.6511  1.3309
  102MOL     H930511   7.042   0.024   5.813 -2.2473  1.4197 -1.2927
  102MOL    H1030512   6.946   7.870   5.701 -0.3633 -0.5744  1.3809
  102MOL    H1130513   7.261   7.839   5.730  0.7093 -0.4960 -0.2899
  102MOL    H1230514   7.152   7.727   5.804  1.4199 -1.0125 -0.6670
  102MOL    H1330515   7.168   7.732   5.635 -0.0073 -1.2935  0.1722
  102MOL    H1430516   7.441   0.072   5.462  0.7923  0.0918 -0.0781
  102MOL    H1530517   7.321   0.025   5.340 -0.2900  0.3683  0.8239
  102MOL    H1630518   7.164   0.198   5.408 -0.3808 -2.5769 -0.4280
  102MOL    C1730519   7.420   0.215   5.293 -0.3528 -0.2505 -0.0302
  102MOL    O1830520   7.320   0.277   5.226  0.1670 -0.5845  0.3672
  102MOL    C1930521   7.276   0.233   5.099  1.0569 -0.4200 -0.0109
  102MOL    O2030522   7.335   0.143   5.040 -0.1648  0.5029 -0.2498
  102MOL    C2130523   7.160   0.317   5.050 -0.4810 -0.2012  0.6678
  102MOL    C2230524   7.219   0.430   4.978  0.2365 -0.3036 -0.1096
  102MOL    C2330525   7.506   0.320   5.356  0.2546  0.4439  0.2018
  102MOL    H2430526   7.472   0.149   5.223  0.8067 -0.5663  1.0957
  102MOL    H2530527   7.086   0.260   4.993 -0.9304  0.2383  0.8044
  102MOL    H2630528   7.112   0.348   5.143  1.1363  2.2905  0.7206
  102MOL    H2730529   7.133   0.471   4.924 -0.5434 -0.7433  0.7900
  102MOL    H2830530   7.248   0.512   5.043  1.5955 -0.0535 -1.0250
  102MOL    H2930531   7.293   0.412   4.900  0.7948  0.4301  0.2582
  102MOL    H3030532   7.523   0.378   5.266 -2.1500 -2.6604 -2.3615
  102MOL    H3130533   7.448   0.385   5.421  1.0841 -0.8109  2.2723
  102MOL    C3230534   7.635   0.263   5.412 -0.5607 -0.0269 -0.2597
  102MOL    O3330535   7.714   0.209   5.300  0.3965  0.5575  0.0588
  102MOL    C3430536   7.762   0.085   5.316 -0.0965 -0.6185  0.4324
  102MOL    O3530537   7.749   0.014   5.420 -0.0641  0.0649 -0.1427
  102MOL    C3630538   7.848   0.042   5.194 -0.2573  0.3435  0.0193
  102MOL    C3730539   0.045   0.103   5.201 -0.1589 -0.7319 -0.3641
  102MOL    C3830540   7.730   0.374   5.455  0.2482  0.0211  0.4851
  102MOL    H3930541   7.613   0.197   5.496 -0.9953 -0.0834 -0.4195
  102MOL    H4030542   7.872   7.880   5.196  1.2697  0.6433 -1.3594
  102MOL    H4130543   7.791   0.063   5.104 -1.3023 -0.5094  0.4750
  102MOL    H4230544   0.079   0.060   5.295 -0.3394 -0.1002 -0.0034
  102MOL    H4330545   0.110   0.064   5.123 -1.0543 -1.1917 -0.8923
  102MOL    H4430546   0.047   0.212   5.206  3.3480 -0.7123 -0.9019
  102MOL    H4530547   7.818   0.323   5.492 -0.2585 -0.6564  0.7535
  102MOL    H4630548   7.745   0.435   5.366 -0.5785 -0.7662 -0.2021
  102MOL    C4730549   7.671   0.463   5.568  0.2919 -0.4413 -0.6533
  102MOL    O4830550   7.665   0.385   5.690  0.4136 -0.2792  0.3232
  102MOL    C4930551   7.556   0.319   5.729  0.3975 -0.0172 -0.1687
  102MOL    O5030552   7.456   0.307   5.667  0.0659  0.4016  0.0160
  102MOL    C5130553   7.570   0.265   5.865  0.8439  0.3457 -1.1267
  102MOL    C5230554   7.558   0.111   5.876  0.2803  0.2883  0.0400
  102MOL    C5330555   7.757   0.586   5.606  0.2073  0.4365 -0.4658
  102MOL    H5430556   7.566   0.487   5.551 -0.1606 -1.3964  0.6516
  102MOL    H5530557   7.669   0.296   5.900  0.5823  0.4658 -0.4738
  102MOL    H5630558   7.501   0.318   5.932 -0.8279 -1.5060 -1.3563
  102MOL    H5730559   7.589   0.065   5.782  1.7760  1.0940  0.1120
  102MOL    H5830560   7.627   0.075   5.952 -0.3939 -1.0544  0.0382
  102MOL    H5930561   7.460   0.071   5.902 -0.9408  1.7735 -2.0834
  102MOL    H6030562   7.731   0.629   5.703  1.1845  0.2593 -0.1155
  102MOL    H6130563   7.862   0.557   5.612  0.0510  0.1354  1.0561
  102MOL    C6230564   7.751   0.696   5.494  0.0500 -0.5322 -0.5611
  102MOL    O6330565   7.621   0.746   5.483  0.4697  0.7978 -0.1978
  102MOL    C6430566   7.537   0.704   5.388 -0.4247  0.2875 -0.3929
  102MOL    O6530567   7.573   0.640   5.289  0.1653 -0.0469  0.2616
  102MOL    C6630568   7.394   0.748   5.402  0.1822  0.0300 -0.3745
  102MOL    C6730569   7.299   0.693   5.290 -0.1350  0.2469  0.0917
  102MOL    C6830570   7.849   0.800   5.526  0.5300  0.1919 -0.2337
  102MOL    H6930571   7.787   0.648   5.403  2.1728  3.2427 -1.7904
  102MOL    H7030572   7.348   0.712   5.493  1.0797 -2.2528 -0.8049
  102MOL    H7130573   7.385   0.857   5.411  0.0041 -0.1586  1.9475
  102MOL    H7230574   7.353   0.687   5.195  0.6081 -1.0939  0.5872
  102MOL    H7330575   7.269   0.592   5.318 -0.1236  0.5415  1.1633
  102MOL    H7430576   7.220   0.767   5.276 -2.0765 -2.1214 -2.0041
  102MOL    H7530577   7.826   0.842   5.624  0.3667  1.3771 -0.7720
  102MOL    H7630578   0.003   0.754   5.539  1.0564  1.6486  1.0234
  102MOL    C7730579   7.861   0.906   5.414  0.4792  0.0403  0.1708
  102MOL    O7830580   0.017   0.998   5.450  0.0555  0.6071 -0.2528
  102MOL    C7930581   7.936   1.117   5.497  0.1059 -0.1861  0.2719
  102MOL    O8030582   7.824   1.171   5.514 -0.6018  0.1508  0.5525
  102MOL    C8130583   0.121   1.188   5.532 -0.2526 -0.3815  0.2513
  102MOL    C8230584   0.226   1.179   5.416  0.5090  0.1086  0.3192
  102MOL    C8330585   7.883   0.854   5.270 -0.5311  0.7406 -0.1213
  102MOL    H8430586   7.767   0.960   5.423 -1.7437 -3.5861 -0.4160
  102MOL    H8530587   0.112   1.294   5.553 -1.6005 -0.6823  1.3470
  102MOL    H8630588   0.158   1.155   5.629  0.4413 -0.0649  0.0923
  102MOL    H8730589   0.178   1.192   5.319 -2.0953 -0.6410  1.4764
  102MOL    H8830590   0.291   1.266   5.426  0.9919 -0.0176 -1.5575
  102MOL    H8930591   0.279   1.084   5.414 -1.0823 -0.7907  0.6558
  102MOL    H9030592   7.790   0.804   5.242  0.1463 -1.3377  1.2838
  102MOL    H9130593   7.876   0.956   5.232 -0.1544  1.4635  1.6833
  102MOL    C9230594   0.076   0.782   5.222 -0.4890  0.2164  0.5022
  102MOL    O9330595   0.081   0.656   5.284  0.3312  0.5488  0.3363
  102MOL    C9430596   0.185   0.610   5.363  0.0401  0.0606 -0.0427
  102MOL    O9530597   0.293   0.669   5.383 -0.1792  0.2442 -0.0099
  102MOL    C9630598   0.146   0.472   5.421 -0.3366 -0.2910  0.1423
  102MOL    C9730599   0.209   0.457   5.557 -0.0581  0.0631  0.4472
  102MOL    C9830600   0.098   0.774   5.067 -0.1018 -0.2822  1.1199
  102MOL    H9930601   0.151   0.851   5.261 -0.9335  1.4358 -0.7766
  102MOL   H10030602   0.040   0.474   5.447 -0.3995 -0.1756 -0.1191
  102MOL   H10130603   0.171   0.391   5.352 -0.4404  2.4467 -3.2269
  102MOL   H10230604   0.317   0.445   5.542 -0.4930 -3.5752 -0.2225
  102MOL   H10330605   0.191   0.547   5.616  1.3252  0.5894  0.0978
  102MOL   H10430606   0.165   0.369   5.602 -0.6734  0.6421  0.9767
  102MOL   H10530607   0.152   0.687   5.028  0.6511 -0.5235  2.6517
  102MOL   H10630608   7.944   0.776   5.021  0.0937 -0.8984  0.6587
  102MOL   C10730609   0.187   0.896   5.021  0.7021  1.1834 -0.3131
  102MOL   O10830610   0.328   0.870   5.026  0.0471 -0.6433 -0.1607
  102MOL   C10930611   0.408   0.962   5.073 -1.2688  0.0696 -0.1579
  102MOL   O11030612   0.388   1.074   5.117 -0.4823 -0.1324  0.0722
  102MOL   C11130613   0.550   0.915   5.063  0.0732  0.2407 -0.2231
  102MOL   C11230614   0.604   0.901   4.926  1.0823 -0.6143 -0.3428
  102MOL   C11330615   0.164   0.941   4.881  0.0914 -0.5404 -0.0399
  102MOL   H11430616   0.163   0.968   5.099 -1.8101 -1.0812  1.0970
  102MOL   H11530617   0.620   0.976   5.120 -0.1221 -0.2718  0.5575
  102MOL   H11630618   0.554   0.819   5.114 -0.6447  0.0242 -0.5611
  102MOL   H11730619   0.711   0.881   4.921  0.7210 -2.2665 -2.3054
  102MOL   H11830620   0.554   0.815   4.881  0.6350 -1.0926  1.0460
  102MOL   H11930621   0.588   0.994   4.871  0.7183 -0.4523  0.0403
  102MOL   H12030622   0.229   1.024   4.854 -3.4972  2.2350 -0.5855
  102MOL   H12130623   0.175   0.858   4.810  0.9342 -1.1920  0.8369
  102MOL   C12230624   0.029   1.017   4.860 -0.3504 -0.0705 -0.6277
  102MOL   O12330625   0.025   1.130   4.951  0.3780 -1.3728 -0.6678
  102MOL   C12430626   7.857   1.164   5.021  0.0436 -0.0741 -0.0863
  102MOL   O12530627   7.751   1.097   5.036 -0.3097  0.8810  0.0587
  102MOL   C12630628   7.865   1.298   5.094  0.0614 -0.0776  0.1748
  102MOL   C12730629   7.755   1.328   5.197 -0.6909  0.5092  0.0768
  102MOL   C12830630   0.014   1.071   4.721 -0.0599 -0.4094 -0.0665
  102MOL   H12930631   7.892   0.952   4.891  1.0510 -1.9064 -0.7746
  102MOL   H13030632   0.016   1.274   5.139  1.0808  2.9762 -0.2599
  102MOL   H13130633   7.865   1.388   5.033  0.1434  0.5013  1.0172
  102MOL   H13230634   7.730   1.237   5.252  1.3805 -0.2580 -0.2086
  102MOL   H13330635   7.779   1.409   5.265 -0.0135 -0.6458  1.2439
  102MOL   H13430636   7.669   1.357   5.137 -1.4510 -1.4656  0.1616
  102MOL   H13530637   7.886   1.152   4.725  0.6899  0.2060  1.9644
  102MOL   H13630638   0.097   1.131   4.686 -1.0798  1.2284  0.2447
  102MOL   C13730639   7.895   0.976   4.607  0.8309 -0.6389  0.2977
  102MOL   O13830640   7.757   0.934   4.633  0.1428  0.4282 -0.2134
  102MOL   C13930641   7.650   1.012   4.619 -0.2469 -0.0741  0.0190
  102MOL   O14030642   7.651   1.135   4.608 -0.7722  0.0572  0.0477
  102MOL   C14130643   7.518   0.935   4.646  0.2442 -0.0885  0.1133
  102MOL   C14230644   7.479   0.936   4.792  0.2507  0.3350 -0.0433
  102MOL   C14330645   7.915   1.021   4.456  0.6603 -0.1762 -0.1828
  102MOL   H14430646   0.012   0.886   4.609  1.4548 -0.3019 -1.7339
  102MOL   H14530647   7.439   0.980   4.586  0.6326 -1.0850 -1.1885
  102MOL   H14630648   7.537   0.839   4.598 -0.1336 -0.8312  1.4381
  102MOL   H14730649   7.424   1.027   4.816  1.7638  1.5492 -1.1627
  102MOL   H14830650   7.410   0.853   4.813  1.9708 -1.5814 -1.7701
  102MOL   H14930651   7.569   0.933   4.854  1.0185 -1.3100 -1.1914
  102MOL   H15030652   7.859   0.947   4.399 -0.2201  0.7053 -0.4774
  102MOL   H15130653   7.866   1.114   4.429 -1.5069 -1.6176 -1.3542
  102MOL   C15230654   0.125   1.028   4.414 -0.3788  0.6193 -0.3437
  102MOL   O15330655   0.180   0.899   4.429 -0.6410 -0.0354  0.1201
  102MOL   C15430656   0.282   0.868   4.513  0.6973  0.4742 -0.2014
  102MOL   O15530657   0.327   0.931   4.611 -0.2823 -0.2522  0.1537
  102MOL   C15630658   0.348   0.733   4.470  0.5211 -0.0536  0.0554
  102MOL   C15730659   0.467   0.701   4.558  0.0164 -0.5301 -1.0790
  102MOL   C15830660   0.136   1.063   4.261 -0.2695  0.3197  0.1699
  102MOL   H15930661   0.177   1.112   4.461 -0.3836  0.1717  0.4789
  102MOL   H16030662   0.277   0.650   4.478  0.9997 -0.8453 -3.1698
  102MOL   H16130663   0.388   0.748   4.370 -3.1556  1.4527 -1.3023
  102MOL   H16230664   0.428   0.700   4.660  0.9559 -1.6140 -0.7159
  102MOL   H16330665   0.506   0.602   4.536  0.0242 -1.1115  1.3525
  102MOL   H16430666   0.546   0.776   4.557  0.6830 -1.1589  1.4871
  102MOL   H16530667   0.240   1.041   4.237 -0.6906  0.8912 -2.2422
  102MOL   H16630668   0.074   0.992   4.207  2.5727 -0.7451 -1.8425
  102MOL   C16730669   0.104   1.206   4.218 -0.1359  0.7274 -0.2737
  102MOL   O16830670   0.231   1.266   4.196 -0.7192  0.2445  0.4157
  102MOL   C16930671   0.290   1.328   4.302  0.0281  0.6722 -0.2385
  102MOL   O17030672   0.263   1.308   4.422  0.2643  0.1568  0.5664
  102MOL   C17130673   0.404   1.418   4.260 -0.1008 -0.5769 -0.3664
  102MOL   C17230674   0.372   1.565   4.254 -0.5875  0.2446 -0.3324
  102MOL   C17330675   0.026   1.220   4.080  1.0252 -0.5449  0.4356
  102MOL   H17430676   0.039   1.258   4.288  0.1352 -1.3601  1.5839
  102MOL   H17530677   0.493   1.399   4.319 -0.8461 -1.9429  0.3502
  102MOL   H17630678   0.415   1.379   4.159 -2.8990 -0.6347 -0.6954
  102MOL   H17730679   0.264   1.570   4.240 -0.5576 -1.5890 -1.3926
  102MOL   H17830680   0.384   1.618   4.348 -1.5034  0.4907 -0.3509
  102MOL   H17930681   0.407   1.630   4.174  0.0475  1.9930  1.3365
  102MOL   H18030682   0.031   1.323   4.046 -2.0405 -1.1549 -2.1329
  102MOL   H18130683   0.062   1.162   3.994 -0.6227  1.6959 -1.8226
  102MOL   C18230684   7.811   1.187   4.089  0.5402  0.2642  0.6714
  102MOL   O18330685   7.749   1.278   4.180 -0.6049  0.2134  0.3674
  102MOL   C18430686   7.656   1.237   4.275 -0.4688  0.3516  0.2231
  102MOL   O18530687   7.616   1.125   4.294 -0.2273 -0.1953 -0.2159
  102MOL   C18630688   7.597   1.360   4.347  0.7077 -0.1075  0.2280
  102MOL   C18730689   7.536   1.453   4.248  0.2880  0.7396 -1.1985
  102MOL   C18830690   7.738   1.203   3.951  0.8381 -0.8101 -0.1258
  102MOL   H18930691   7.801   1.092   4.142 -1.1676  0.0693  0.0402
  102MOL   H19030692   7.524   1.324   4.419  1.5159 -0.6474  0.7983
  102MOL   H19130693   7.674   1.413   4.403  1.8039 -0.3634 -0.9906
  102MOL   H19230694   7.473   1.399   4.178 -0.0288  0.6321 -0.8346
  102MOL   H19330695   7.468   1.524   4.296 -0.9327 -1.7469  0.8258
  102MOL   H19430696   7.613   1.507   4.192  1.1992  1.2611  0.5106
  102MOL   H19530697   7.640   1.248   3.962  1.1398 -0.1470 -0.1507
  102MOL   H19630698   7.798   1.268   3.887 -0.6217 -0.1686 -0.8530
  102MOL   C19730699   7.709   1.072   3.876  0.3475 -0.1610 -0.3398
  102MOL   O19830700   7.836   1.015   3.853  0.3217  0.3119 -0.0281
  102MOL   C19930701   7.869   0.956   3.739  0.9466 -0.3295 -0.0598
  102MOL   O20030702   7.793   0.955   3.640  0.2552  0.3319 -0.1682
  102MOL   C20130703   0.061   0.888   3.741 -0.2705  0.4319  0.5348
  102MOL   C20230704   0.173   0.987   3.718  0.6600  0.5972  0.0295
  102MOL   C20330705   7.618   0.967   3.946  0.0893 -0.4392  0.3306
  102MOL   H20430706   7.657   1.102   3.785 -2.3123  2.3964  1.9218
  102MOL   H20530707   0.064   0.830   3.833 -2.0459 -2.5773 -1.2132
  102MOL   H20630708   0.064   0.814   3.661 -1.2720 -1.1541  1.9321
  102MOL   H20730709   0.269   0.945   3.688 -0.2906 -1.2408 -0.4988
  102MOL   H20830710   0.136   1.060   3.646 -3.0963  0.4413  1.6634
  102MOL   H20930711   0.178   1.048   3.809  0.4103  0.3042  0.2422
  102MOL   H21030712   7.616   0.876   3.886  0.5885  0.0510 -0.4343
  102MOL   H21130713   7.667   0.935   4.038  1.4695 -0.6517 -0.4551
  102MOL   C21230714   7.478   1.009   3.986 -0.0587 -0.0434  0.7841
  102MOL   O21330715   7.389   0.992   3.885 -0.1199 -0.0337 -0.0384
  102MOL   C21430716   7.335   1.091   3.821  0.0002  0.5839  0.8866
  102MOL   O21530717   7.365   1.211   3.837  0.2380 -0.0325 -0.3686
  102MOL   C21630718   7.242   1.038   3.707  0.7933 -0.8146  0.3091
  102MOL   C21730719   7.139   1.144   3.658  0.3318  0.4065  0.2752
  102MOL   C21830720   7.413   0.922   4.098 -0.3734  0.1078  0.1594
  102MOL   H21930721   7.495   1.105   4.035  0.1065  1.2295 -1.6874
  102MOL   H22030722   7.303   0.993   3.628 -1.8245 -1.4157 -1.4065
  102MOL   H22130723   7.187   0.953   3.746  3.5008 -1.7222  2.3111
  102MOL   H22230724   7.067   1.073   3.618  0.4433  0.4917 -0.0793
  102MOL   H22330725   7.085   1.210   3.726 -0.6692 -1.5975  1.4687
  102MOL   H22430726   7.163   1.206   3.571 -1.9942  0.9649  0.0164
  102MOL   H22530727   7.375   0.830   4.054 -0.3768  0.0249  0.3336
  102MOL   H22630728   7.493   0.883   4.162  0.2459 -0.3744 -0.8975
  102MOL   C22730729   7.306   0.995   4.177 -0.4979 -0.6300 -0.3390
  102MOL   O22830730   7.186   0.986   4.105 -0.1326  0.1380 -0.1807
  102MOL   C22930731   7.083   1.081   4.106  0.6652  0.0116  0.7223
  102MOL   O23030732   7.090   1.190   4.161 -0.4117 -0.5107 -0.2269
  102MOL   C23130733   6.972   1.046   4.006  0.1336 -0.1522 -0.3873
  102MOL   C23230734   6.854   0.966   4.065 -0.4581  0.2010 -0.4671
  102MOL   C23330735   7.285   0.951   4.322  0.0753  0.4409 -0.3620
  102MOL   H23430736   7.322   1.103   4.172  0.0575 -0.6477  0.9086
  102MOL   H23530737   6.940   1.138   3.957  0.1851 -0.8866 -1.8328
  102MOL   H23630738   7.014   0.983   3.927 -2.9583 -1.7226 -0.8736
  102MOL   H23730739   6.894   0.879   4.117 -0.6128  1.2925  1.5145
  102MOL   H23830740   6.798   1.028   4.135 -1.3810 -2.3773  1.1433
  102MOL   H23930741   6.788   0.938   3.983 -1.2196  3.4073 -1.0385
  102MOL   H24030742   7.226   0.859   4.314  1.3975 -0.5105  0.6339
  102MOL   H24130743   7.377   0.924   4.373 -0.0440 -3.4153 -1.9692
  102MOL   C24230744   7.205   1.056   4.411 -0.1505  0.4749 -0.4784
  102MOL   O24330745   7.192   0.991   4.533  0.3882 -0.3659  0.9728
  102MOL   C24430746   7.076   0.990   4.605  0.6634 -0.1009 -0.0098
  102MOL   O24530747   6.972   1.039   4.568  0.1266  0.6293 -0.3827
  102MOL   C24630748   7.097   0.933   4.741 -0.0941 -0.4034  0.2459
  102MOL   C24730749   6.999   0.978   4.849  0.1224  0.7926  0.5089
  102MOL   C24830750   7.279   1.191   4.433  0.6303  0.9134 -0.0069
  102MOL   H24930751   7.104   1.060   4.371 -1.2294 -0.3654  2.0673
  102MOL   H25030752   7.079   0.826   4.731 -1.1015 -0.1955 -0.2611
  102MOL   H25130753   7.197   0.944   4.783  0.9071 -1.9292 -1.6379
  102MOL   H25230754   6.896   0.958   4.821 -0.1371  0.6429  1.5754
  102MOL   H25330755   7.019   0.931   4.945  1.1263 -0.1279 -0.1356
  102MOL   H25430756   7.009   1.085   4.867  1.4749  1.1552 -2.0910
  102MOL   H25530757   7.378   1.154   4.458  0.5325  0.3744 -0.3940
  102MOL   H25630758   7.286   1.237   4.334 -2.5613  2.1235  0.2690
  102MOL   C25730759   7.225   1.279   4.542  0.2670 -0.4777 -0.2113
  102MOL   O25830760   7.329   1.361   4.592 -0.0683 -0.2769  0.7288
  102MOL   C25930761   7.382   1.329   4.709 -0.1072  0.1979  0.2716
  102MOL   O26030762   7.333   1.251   4.789 -0.4545  0.5961  0.1348
  102MOL   C26130763   7.502   1.420   4.740  0.0251  0.2964  0.2282
  102MOL   C26230764   7.574   1.379   4.871  0.1085  0.1877 -0.4048
  102MOL   C26330765   7.113   1.375   4.492  0.2679  0.1966 -0.0828
  102MOL   H26430766   7.181   1.223   4.625 -1.9154 -0.3081 -1.2022
  102MOL   H26530767   7.577   1.416   4.661  2.0431  1.0052  2.0597
  102MOL   H26630768   7.460   1.520   4.740 -1.5885 -0.3737  0.0284
  102MOL   H26730769   7.584   1.271   4.884  1.8434  0.6510  2.4809
  102MOL   H26830770   7.670   1.427   4.890 -0.0603 -0.4139  2.0905
  102MOL   H26930771   7.501   1.403   4.948 -0.3150 -2.7605  0.1627
  102MOL   H27030772   7.151   1.454   4.427 -2.2009  2.4553  1.1351
  102MOL   H27130773   7.055   1.309   4.427 -0.5137 -1.6847  2.4472
  102MOL   C27230774   7.028   1.437   4.598  0.1260 -0.2076 -0.3577
  102MOL   O27330775   7.103   1.504   4.700 -0.4055 -0.2741 -0.2840
  102MOL   C27430776   7.089   1.482   4.827 -0.0443  0.0997 -0.6688
  102MOL   O27530777   7.018   1.398   4.880 -0.0532 -0.7657 -0.5243
  102MOL   C27630778   7.169   1.575   4.916 -0.0468 -0.1228  0.3022
  102MOL   C27730779   7.177   1.715   4.858  0.2838  0.4842  0.3407
  102MOL   C27830780   6.917   1.533   4.546  0.1913 -0.5648  0.0247
  102MOL   H27930781   6.978   1.351   4.643 -1.4268  0.5138 -0.6751
  102MOL   H28030782   7.110   1.581   5.008  0.5751  0.2322  0.6826
  102MOL   H28130783   7.271   1.542   4.935 -0.2762 -1.4357 -0.7097
  102MOL   H28230784   7.210   1.728   4.755 -0.8039  0.8410  0.0272
  102MOL   H28330785   7.078   1.762   4.863 -0.6612 -1.2560 -1.1257
  102MOL   H28430786   7.252   1.761   4.922  0.5943  1.8206 -0.9505
  102MOL   H28530787   6.863   1.573   4.632  0.0611  0.0162 -0.3225
  102MOL   H28630788   6.970   1.616   4.501  0.0763 -1.4660 -1.8174
  102MOL   C28730789   6.823   1.478   4.448  0.8254 -0.0767  0.2026
  102MOL   O28830790   6.774   1.353   4.503 -0.1714  0.6494 -0.1335
  102MOL   C28930791   6.709   1.257   4.425 -0.0935  0.0329  0.7603
  102MOL   O29030792   6.673   1.272   4.307 -0.0165  0.4649  0.3716
  102MOL   C29130793   6.667   1.129   4.503 -0.2184 -0.0688 -0.2174
  102MOL   C29230794   6.679   0.994   4.425  0.6058  0.2979  0.3852
  102MOL   C29330795   6.716   1.588   4.422  0.6565 -0.2618 -0.0655
  102MOL   H29430796   6.873   1.448   4.356 -0.1996  1.0973 -0.7403
  102MOL   H29530797   6.729   1.117   4.593  0.8037  1.4665 -0.7018
  102MOL   H29630798   6.564   1.140   4.537 -0.5380 -3.4893  0.0836
  102MOL   H29730799   6.695   0.905   4.486  3.0421 -0.2043 -0.9182
  102MOL   H29830800   6.593   0.971   4.362  0.3097 -0.1312  0.9385
  102MOL   H29930801   6.753   0.987   4.345 -1.8245 -2.2835 -1.7062
  102MOL   H30030802   6.776   1.672   4.385 -0.0261  0.1034 -0.3659
  102MOL   H30130803   6.644   1.548   4.351  2.1214  0.2352 -1.8699
  102MOL   H30230804   6.669   1.622   4.514  0.4797 -2.1755  0.5574
  103MOL     C130805   5.702   2.088   2.005  0.1257 -0.2258  0.1688
  103MOL     O230806   5.772   1.983   2.075 -0.3113 -0.3071 -0.0259
  103MOL     C330807   5.811   1.880   2.008 -1.2249 -0.4346  0.5495
  103MOL     O430808   5.813   1.860   1.886  0.2119 -0.5204  0.6264
  103MOL     C530809   5.864   1.767   2.100 -0.8939 -0.2567 -0.1672
  103MOL     C630810   5.965   1.683   2.033  0.1949  0.5221  0.0531
  103MOL     C730811   5.621   2.185   2.094 -0.1982 -0.0993 -0.0296
  103MOL     H830812   5.635   2.031   1.940  0.8398 -1.1963  0.2861
  103MOL     H930813   5.901   1.805   2.195 -0.6237 -1.3988  0.1970
  103MOL    H1030814   5.776   1.708   2.129 -0.9597  0.7165  1.6985
  103MOL    H1130815   5.927   1.627   1.948 -0.7514  0.6568  0.3763
  103MOL    H1230816   6.056   1.733   2.000  0.9105 -1.4766 -1.0467
  103MOL    H1330817   5.989   1.603   2.104  1.4681  0.2798 -0.6470
  103MOL    H1430818   5.679   2.211   2.182  0.1639  3.9131 -1.3711
  103MOL    H1530819   5.595   2.279   2.045  1.3155  0.6774  0.6337
  103MOL    H1630820   5.767   2.144   1.938 -2.1835 -0.3042 -2.2372
  103MOL    C1730821   5.499   2.115   2.153  0.7653 -0.3169 -0.3281
  103MOL    O1830822   5.457   2.201   2.264  0.0066  0.3987 -0.1175
  103MOL    C1930823   5.412   2.155   2.382  0.2615  0.2628 -0.3465
  103MOL    O2030824   5.388   2.041   2.401 -0.4180 -0.0193 -0.3818
  103MOL    C2130825   5.399   2.261   2.489  0.2219  0.0872  0.5974
  103MOL    C2230826   5.316   2.210   2.610 -0.0177  0.0224  0.1071
  103MOL    C2330827   5.389   2.110   2.042  0.9745  0.2556  1.0277
  103MOL    H2430828   5.523   2.018   2.196  1.3080 -0.0150  0.0607
  103MOL    H2530829   5.497   2.293   2.525  0.7187 -0.9300  0.1897
  103MOL    H2630830   5.347   2.349   2.452 -0.9950 -0.7107  0.3675
  103MOL    H2730831   5.346   2.114   2.651  0.3444 -0.3645 -1.0491
  103MOL    H2830832   5.324   2.286   2.689 -0.5847 -0.2422  0.4243
  103MOL    H2930833   5.209   2.201   2.589  0.2388  0.1112 -1.2449
  103MOL    H3030834   5.294   2.129   2.092  0.9063  1.7042  0.3719
  103MOL    H3130835   5.395   2.201   1.982  0.3918  0.7110  1.6500
  103MOL    C3230836   5.370   1.980   1.955 -0.0139 -0.2176  0.5951
  103MOL    O3330837   5.319   1.875   2.034 -0.3963 -0.4411  0.8682
  103MOL    C3430838   5.402   1.772   2.062  0.6180  0.1485  0.2283
  103MOL    O3530839   5.517   1.758   2.016  0.2793  0.2496  0.3182
  103MOL    C3630840   5.325   1.655   2.121  0.4028  0.4486 -0.0600
  103MOL    C3730841   5.212   1.692   2.216  0.1356  0.6597  0.3411
  103MOL    C3830842   5.268   2.004   1.843 -0.1252 -0.4033  0.2694
  103MOL    H3930843   5.463   1.949   1.907 -0.8325  0.3862 -1.4493
  103MOL    H4030844   5.284   1.592   2.042  0.2833 -0.0213  0.3709
  103MOL    H4130845   5.389   1.602   2.191 -0.5490  0.1029  0.5739
  103MOL    H4230846   5.117   1.708   2.165  0.3800  1.0729  0.0107
  103MOL    H4330847   5.212   1.639   2.311  1.0505 -0.4032 -0.2386
  103MOL    H4430848   5.229   1.796   2.244  1.0146  0.8351 -0.7984
  103MOL    H4530849   5.247   1.902   1.809 -1.4979 -0.5011  1.3551
  103MOL    H4630850   5.174   2.050   1.873 -0.9932 -2.1952  0.3756
  103MOL    C4730851   5.323   2.085   1.721 -0.0236 -0.4139  0.1724
  103MOL    O4830852   5.430   2.008   1.673 -0.4420  0.4104 -0.3898
  103MOL    C4930853   5.552   2.053   1.672 -0.8588  0.0505  0.0387
  103MOL    O5030854   5.590   2.161   1.731  0.3926  0.8309  0.2043
  103MOL    C5130855   5.652   1.970   1.597  0.1578  0.1738  0.2406
  103MOL    C5230856   5.628   1.966   1.446 -0.1790  0.1332 -0.2700
  103MOL    C5330857   5.235   2.083   1.596  0.0535 -0.1252 -0.5283
  103MOL    H5430858   5.351   2.187   1.746  1.9024 -0.7869 -0.3954
  103MOL    H5530859   5.753   2.004   1.619  0.5025 -0.5311 -0.2689
  103MOL    H5630860   5.632   1.869   1.631 -0.9546  1.0002  2.1142
  103MOL    H5730861   5.530   1.932   1.413 -0.0616  1.1730 -1.7620
  103MOL    H5830862   5.664   2.051   1.387  0.2058  0.0414 -0.1716
  103MOL    H5930863   5.691   1.882   1.416  1.0367  0.5962  0.9408
  103MOL    H6030864   5.217   1.976   1.581 -0.6330 -0.6995  3.7296
  103MOL    H6130865   5.137   2.128   1.614  1.8946  3.5466  0.7363
  103MOL    C6230866   5.294   2.154   1.474 -0.3575 -0.3762 -0.6957
  103MOL    O6330867   5.209   2.153   1.359 -1.2454 -0.0467  0.2649
  103MOL    C6430868   5.211   2.046   1.279 -0.1096 -0.0593 -0.1389
  103MOL    O6530869   5.272   1.946   1.295 -0.2181  0.0044 -0.3425
  103MOL    C6630870   5.128   2.071   1.164  0.5261  0.1797 -0.9576
  103MOL    C6730871   5.194   2.160   1.065  0.2144 -0.3188 -0.2273
  103MOL    C6830872   5.327   2.305   1.487 -0.4834  0.4488  0.0659
  103MOL    H6930873   5.391   2.111   1.448 -0.1431  0.4947 -1.3526
  103MOL    H7030874   5.084   1.983   1.118 -0.0735  0.0395 -0.1152
  103MOL    H7130875   5.038   2.116   1.205  0.7821 -1.5084  1.5330
  103MOL    H7230876   5.226   2.255   1.107  2.8041 -0.5697 -1.5253
  103MOL    H7330877   5.282   2.115   1.019 -1.1126 -1.8998 -1.2641
  103MOL    H7430878   5.121   2.188   0.990  1.3715 -2.7971 -2.3421
  103MOL    H7530879   5.414   2.317   1.551  0.7531 -0.1114 -1.4791
  103MOL    H7630880   5.360   2.338   1.388  0.4162  0.1714  0.2730
  103MOL    C7730881   5.205   2.389   1.528  0.3422  0.0635  0.7521
  103MOL    O7830882   5.199   2.388   1.667 -0.3027  0.5347  0.3850
  103MOL    C7930883   5.086   2.393   1.727 -0.0696  0.3413  0.1317
  103MOL    O8030884   4.977   2.396   1.675 -0.5616 -0.0608 -0.0768
  103MOL    C8130885   5.108   2.373   1.876 -0.3296 -0.2347  0.8385
  103MOL    C8230886   4.997   2.304   1.941 -0.3835  0.2125  0.2680
  103MOL    C8330887   5.230   2.532   1.478 -0.6737 -0.2030 -0.5564
  103MOL    H8430888   5.118   2.338   1.487 -0.0428 -0.0610  1.7131
  103MOL    H8530889   5.202   2.321   1.890 -1.5179 -2.0351  2.3107
  103MOL    H8630890   5.112   2.473   1.919 -0.0939  0.3406 -0.4742
  103MOL    H8730891   4.973   2.209   1.894 -4.2209  0.7079  1.0710
  103MOL    H8830892   5.037   2.253   2.028  0.1487  2.0927  1.1598
  103MOL    H8930893   4.912   2.363   1.977 -0.5331  0.0387  0.2007
  103MOL    H9030894   5.183   2.596   1.553 -1.6398 -0.7212 -0.7155
  103MOL    H9130895   5.336   2.556   1.472 -0.1442 -2.2552  0.2403
  103MOL    C9230896   5.164   2.560   1.343  0.5229  0.3128  0.4822
  103MOL    O9330897   5.023   2.569   1.366  0.2269 -0.1304 -0.1931
  103MOL    C9430898   4.944   2.518   1.281  0.5559  0.6788 -0.0300
  103MOL    O9530899   4.976   2.449   1.181  0.8731 -0.2728  0.2061
  103MOL    C9630900   4.799   2.548   1.323 -0.0437  0.1401 -0.0379
  103MOL    C9730901   4.701   2.433   1.301  0.0669  0.0719  0.2706
  103MOL    C9830902   5.209   2.695   1.291 -0.3042  0.2148  0.4552
  103MOL    H9930903   5.204   2.488   1.272  1.7538  1.1028  0.3691
  103MOL   H10030904   4.818   2.569   1.429 -1.1610  0.6424  0.0717
  103MOL   H10130905   4.782   2.652   1.295 -0.4473  0.4392  1.2755
  103MOL   H10230906   4.673   2.400   1.201 -1.2549 -0.5157  0.8314
  103MOL   H10330907   4.746   2.341   1.338 -1.6679 -0.6846  0.5186
  103MOL   H10430908   4.612   2.442   1.362  1.1686 -1.3784  2.1324
  103MOL   H10530909   5.133   2.735   1.224 -0.0248  2.0387  1.2176
  103MOL   H10630910   5.207   2.770   1.369  0.4369  0.2668  0.4320
  103MOL   C10730911   5.347   2.705   1.216 -0.0025  0.2235  0.2869
  103MOL   O10830912   5.334   2.664   1.083 -0.5590  0.2554 -0.6525
  103MOL   C10930913   5.385   2.540   1.049 -0.1086 -0.1431  0.0989
  103MOL   O11030914   5.433   2.458   1.124  0.3986 -0.6149  0.2377
  103MOL   C11130915   5.357   2.506   0.906  0.4082  0.3915  0.2549
  103MOL   C11230916   5.210   2.500   0.870  0.9885  0.1026 -0.5473
  103MOL   C11330917   5.390   2.851   1.208 -0.0620 -0.2103 -0.1849
  103MOL   H11430918   5.425   2.655   1.272  0.3755  0.8639  0.3275
  103MOL   H11530919   5.425   2.567   0.846  0.5867  1.4315  1.4894
  103MOL   H11630920   5.382   2.402   0.886  0.5564  0.7034 -1.2437
  103MOL   H11730921   5.183   2.454   0.775 -2.4074 -0.6289  0.7083
  103MOL   H11830922   5.152   2.437   0.938 -2.0955  2.8541 -0.4985
  103MOL   H11930923   5.161   2.597   0.875  2.3809  0.9210 -2.0760
  103MOL   H12030924   5.316   2.895   1.141 -1.8024 -0.0072  1.7887
  103MOL   H12130925   5.372   2.899   1.305 -0.2332  1.1546 -0.8783
  103MOL   C12230926   5.530   2.878   1.140  0.2489  0.6541  0.0593
  103MOL   O12330927   5.497   2.960   1.029 -0.2012  0.1999  0.3322
  103MOL   C12430928   5.527   2.919   0.894  0.3077 -0.5601  0.5951
  103MOL   O12530929   5.607   2.834   0.866 -0.3384  0.3160 -0.6640
  103MOL   C12630930   5.452   2.997   0.791 -0.7101 -0.3543 -0.5033
  103MOL   C12730931   5.306   2.972   0.804 -0.1652  0.3303 -0.9083
  103MOL   C12830932   5.635   2.962   1.229  0.5561  0.6195  0.1991
  103MOL   H12930933   5.575   2.787   1.100 -3.4184 -0.3681 -1.9345
  103MOL   H13030934   5.483   3.101   0.795 -3.3098  0.4665 -0.5788
  103MOL   H13130935   5.484   2.977   0.688 -0.2005  0.0224 -0.4208
  103MOL   H13230936   5.228   3.036   0.762 -0.6915  0.1360 -0.2535
  103MOL   H13330937   5.283   2.869   0.775 -0.6901 -0.5863  2.5012
  103MOL   H13430938   5.268   2.982   0.906 -0.9047  1.6060 -1.3002
  103MOL   H13530939   5.719   2.977   1.161  1.5328  0.5033  1.3519
  103MOL   H13630940   5.594   3.057   1.262 -1.4172 -0.8684  2.1823
  103MOL   C13730941   5.689   2.882   1.350  0.0688 -0.9525 -0.3693
  103MOL   O13830942   5.763   2.769   1.303 -0.4313 -0.3782 -0.1161
  103MOL   C13930943   5.721   2.642   1.325  0.4241 -0.1775 -0.3208
  103MOL   O14030944   5.612   2.609   1.372 -0.4043  0.4863 -0.1675
  103MOL   C14130945   5.813   2.541   1.261 -0.5767 -0.0612  0.1362
  103MOL   C14230946   5.763   2.396   1.258 -0.2332 -0.3226  0.6026
  103MOL   C14330947   5.778   2.965   1.448  0.1028  0.5257 -0.0725
  103MOL   H14430948   5.597   2.858   1.404 -0.9624 -0.8113 -2.0395
  103MOL   H14530949   5.826   2.558   1.154 -0.2571 -0.8695  0.0416
  103MOL   H14630950   5.906   2.553   1.317 -0.2257  0.7716 -0.6381
  103MOL   H14730951   5.719   2.372   1.355 -2.6955 -2.8681 -1.0457
  103MOL   H14830952   5.674   2.391   1.195 -1.2392 -0.8974  2.0612
  103MOL   H14930953   5.830   2.316   1.227  0.4500  0.5365 -0.1786
  103MOL   H15030954   5.871   2.991   1.397 -0.2800 -1.1350 -1.7095
  103MOL   H15130955   5.723   3.059   1.452 -0.7410 -0.0051  1.1605
  103MOL   C15230956   5.788   2.908   1.592 -0.3240 -0.3325  0.1222
  103MOL   O15330957   5.667   2.859   1.642  0.2721 -0.0157 -0.3724
  103MOL   C15430958   5.580   2.935   1.709  0.1778  0.4755 -0.6657
  103MOL   O15530959   5.592   3.056   1.733  0.1279  0.5637 -0.2114
  103MOL   C15630960   5.450   2.860   1.747 -0.2816  0.2663 -0.5681
  103MOL   C15730961   5.368   2.825   1.625  0.1363  0.4193 -0.0874
  103MOL   C15830962   5.904   2.807   1.626 -0.3488 -0.1809  0.5901
  103MOL   H15930963   5.824   2.992   1.651  0.2089 -0.7645  0.4203
  103MOL   H16030964   5.476   2.767   1.798 -1.9320 -0.2232 -0.6021
  103MOL   H16130965   5.391   2.926   1.811  0.8532  0.3600  0.3930
  103MOL   H16230966   5.274   2.778   1.654 -0.4042  2.0283  0.8471
  103MOL   H16330967   5.351   2.895   1.544 -0.0869  2.2611  1.5122
  103MOL   H16430968   5.419   2.748   1.567 -1.5742 -0.2569 -0.7409
  103MOL   H16530969   5.876   2.781   1.728 -0.4861 -2.5238 -0.0255
  103MOL   H16630970   5.886   2.724   1.558  0.5024  0.0267  0.1131
  103MOL   C16730971   6.057   2.851   1.630  0.7082  0.4395  0.1181
  103MOL   O16830972   6.102   2.868   1.497  0.2228 -0.7344 -0.0755
  103MOL   C16930973   6.128   2.750   1.422 -0.1285 -0.4689  0.1990
  103MOL   O17030974   6.105   2.634   1.446  0.8352 -0.0253 -0.1052
  103MOL   C17130975   6.179   2.782   1.277 -0.1497  0.3644  0.1319
  103MOL   C17230976   6.322   2.849   1.283 -0.1302  0.3634 -0.3012
  103MOL   C17330977   6.072   2.987   1.708 -0.3270 -0.0376  0.7304
  103MOL   H17430978   6.121   2.775   1.674  0.4945 -0.4493 -1.1087
  103MOL   H17530979   6.187   2.686   1.224 -0.2764  1.0014 -1.0580
  103MOL   H17630980   6.106   2.836   1.218  1.9331  0.1001 -2.8145
  103MOL   H17730981   6.349   2.906   1.194 -0.3122 -1.2748 -1.4236
  103MOL   H17830982   6.325   2.927   1.359 -1.4744 -2.0488  2.3259
  103MOL   H17930983   6.404   2.782   1.308  0.2638  1.1189  0.4478
  103MOL   H18030984   6.044   3.068   1.641 -2.1217 -1.1353  0.0906
  103MOL   H18130985   5.994   3.000   1.783 -0.5965  1.0992  0.2590
  103MOL   C18230986   6.201   2.989   1.789 -0.0736 -0.3717  0.6044
  103MOL   O18330987   6.310   3.038   1.702  0.0005  0.3465  0.0587
  103MOL   C18430988   6.388   2.946   1.640 -0.4631  0.2344 -0.3992
  103MOL   O18530989   6.369   2.824   1.639  0.2262  0.3246  0.0401
  103MOL   C18630990   6.512   3.001   1.575 -0.4679 -0.2743  0.6293
  103MOL   C18730991   6.507   3.150   1.525 -0.3152  0.8708 -0.3733
  103MOL   C18830992   6.184   3.088   1.907  0.2598 -0.3500  0.4192
  103MOL   H18930993   6.221   2.887   1.821  0.3711 -0.7524 -0.8560
  103MOL   H19030994   6.587   2.968   1.647 -0.8219  0.1958  1.2235
  103MOL   H19130995   6.539   2.944   1.487 -1.2252 -0.1139  0.2863
  103MOL   H19230996   6.442   3.208   1.590 -3.3893 -3.3809  0.6396
  103MOL   H19330997   6.604   3.199   1.528 -0.8728  1.9433  0.1782
  103MOL   H19430998   6.468   3.162   1.424 -0.9788  0.0108 -0.2311
  103MOL   H19530999   6.155   3.189   1.877 -2.7899 -1.5399 -0.8986
  103MOL   H19631000   6.116   3.040   1.977 -0.9905  2.7964  1.4806
  103MOL   C19731001   6.309   3.111   1.993  0.3382  0.4887 -0.6151
  103MOL   O19831002   6.388   3.214   1.929 -0.3557 -0.1419  0.4177
  103MOL   C19931003   6.515   3.187   1.893  0.1353 -0.2218 -0.9039
  103MOL   O20031004   6.575   3.077   1.883  0.2212  0.4494  0.1405
  103MOL   C20131005   6.581   3.314   1.837  0.2270  0.0292  0.1362
  103MOL   C20231006   6.649   3.414   1.929 -0.5266  0.3213 -0.1566
  103MOL   C20331007   6.279   3.173   2.131  0.0359  0.1434 -0.8961
  103MOL   H20431008   6.366   3.018   1.998 -0.8424 -0.2791 -1.3379
  103MOL   H20531009   6.665   3.280   1.775 -0.2279 -1.1471  0.1447
  103MOL   H20631010   6.509   3.357   1.767  0.7187  0.9827  0.2074
  103MOL   H20731011   6.685   3.492   1.862 -0.7791  1.4064  0.9456
  103MOL   H20831012   6.567   3.448   1.993 -0.0381 -0.8161  1.0936
  103MOL   H20931013   6.735   3.369   1.979 -0.7728 -0.7770 -0.7032
  103MOL   H21031014   6.370   3.200   2.184 -0.6242  0.3982  0.1368
  103MOL   H21131015   6.222   3.264   2.110 -0.7841 -0.6533 -2.1799
  103MOL   C21231016   6.195   3.094   2.228 -0.1858 -0.4728  0.0026
  103MOL   O21331017   6.281   2.985   2.263  0.5347 -0.2587  0.5020
  103MOL   C21431018   6.240   2.849   2.243 -0.4761  0.7715  0.2168
  103MOL   O21531019   6.143   2.812   2.185 -0.1968 -0.2380  0.8065
  103MOL   C21631020   6.353   2.754   2.291  0.0802  1.4023  0.1427
  103MOL   C21731021   6.382   2.771   2.446 -0.8126 -0.6928  0.0933
  103MOL   C21831022   6.162   3.157   2.365  0.0532  0.2965 -0.5896
  103MOL   H21931023   6.101   3.062   2.183 -0.0781 -0.6241 -0.1183
  103MOL   H22031024   6.329   2.652   2.261  3.4080  1.6057 -3.6530
  103MOL   H22131025   6.443   2.772   2.232 -0.8649  0.6826 -1.5255
  103MOL   H22231026   6.487   2.753   2.467 -1.0427 -0.0603  1.8726
  103MOL   H22331027   6.361   2.870   2.486  3.8771  0.5124 -0.1566
  103MOL   H22431028   6.344   2.687   2.504  3.7510 -1.5108  2.0267
  103MOL   H22531029   6.246   3.202   2.420 -1.3544  0.9302  1.0979
  103MOL   H22631030   6.109   3.251   2.350 -1.6410 -0.7612 -1.3798
  103MOL   C22731031   6.083   3.061   2.460 -0.8318  0.0156 -0.0015
  103MOL   O22831032   6.041   3.114   2.585 -0.1739 -0.1413  0.2448
  103MOL   C22931033   6.104   3.084   2.699 -0.2863  0.2343 -0.2437
  103MOL   O23031034   6.186   2.991   2.719 -0.2343 -0.0932 -0.1997
  103MOL   C23131035   6.068   3.191   2.803 -0.3819  0.0980 -0.6941
  103MOL   C23231036   6.161   3.184   2.919 -0.3063 -0.0942 -0.0618
  103MOL   C23331037   5.949   3.016   2.402  0.1436  0.4204  0.3899
  103MOL   H23431038   6.136   2.970   2.487 -1.1896  0.2836  1.6831
  103MOL   H23531039   6.062   3.285   2.748  3.2083  1.1456  0.5901
  103MOL   H23631040   5.970   3.167   2.844 -0.0782 -0.9140 -0.5404
  103MOL   H23731041   6.176   3.086   2.964  0.0001  0.3949  0.9216
  103MOL   H23831042   6.264   3.208   2.894  0.0661 -2.1584 -0.5829
  103MOL   H23931043   6.142   3.250   3.003  0.9222 -0.6433  0.6588
  103MOL   H24031044   5.887   3.103   2.383 -0.6199 -0.2496 -0.2461
  103MOL   H24131045   5.967   2.962   2.309 -1.2180 -0.4333  0.6130
  103MOL   C24231046   5.869   2.915   2.484 -0.0681  0.2133 -0.2195
  103MOL   O24331047   5.740   2.896   2.425 -0.0370 -0.3333 -0.0814
  103MOL   C24431048   5.640   2.981   2.463  0.1947 -0.0642 -0.3976
  103MOL   O24531049   5.656   3.068   2.551 -0.4155  0.3645  0.0395
  103MOL   C24631050   5.501   2.962   2.395 -0.0726 -0.1269 -0.1002
  103MOL   C24731051   5.420   2.844   2.463 -0.4568 -0.5171 -0.0204
  103MOL   C24831052   5.929   2.769   2.494 -0.1682 -0.3096 -0.1733
  103MOL   H24931053   5.862   2.948   2.588  0.2057 -0.3008 -0.0349
  103MOL   H25031054   5.443   3.054   2.396 -1.7017 -1.1389  0.3034
  103MOL   H25131055   5.521   2.932   2.292 -2.1003 -0.5045 -0.4018
  103MOL   H25231056   5.312   2.851   2.449 -0.2230  1.4280 -1.0932
  103MOL   H25331057   5.459   2.752   2.421  1.0831 -0.3346  0.9830
  103MOL   H25431058   5.439   2.852   2.570 -1.4032 -1.5019  0.2365
  103MOL   H25531059   5.891   2.704   2.416 -0.9914 -1.4557  1.1689
  103MOL   H25631060   6.037   2.776   2.478 -0.2566 -0.1413 -0.7057
  103MOL   C25731061   5.899   2.699   2.628  0.5555  0.4888  0.4137
  103MOL   O25831062   5.930   2.779   2.744 -0.4081  0.0094  0.3337
  103MOL   C25931063   6.012   2.725   2.847 -0.1983 -0.1373 -0.1087
  103MOL   O26031064   6.065   2.611   2.851 -0.0229  0.4596 -0.4599
  103MOL   C26131065   6.022   2.827   2.954 -0.2662 -0.2173 -0.0840
  103MOL   C26231066   5.905   2.819   3.052  0.0655  0.1822  0.2150
  103MOL   C26331067   5.751   2.652   2.636  0.6778 -0.4563  0.3730
  103MOL   H26431068   5.959   2.608   2.628 -0.5005 -0.2493 -1.6678
  103MOL   H26531069   6.117   2.814   3.005 -0.1101  1.8151  0.1829
  103MOL   H26631070   6.028   2.919   2.895  0.3891 -0.8587 -1.0395
  103MOL   H26731071   5.927   2.738   3.121 -0.9117 -0.1789  0.1109
  103MOL   H26831072   5.908   2.906   3.117  0.1066  1.3216 -1.2865
  103MOL   H26931073   5.810   2.803   3.002  0.8894  0.8092 -1.5973
  103MOL   H27031074   5.684   2.738   2.648  1.5175  0.1418  0.8496
  103MOL   H27131075   5.716   2.593   2.552 -1.6727 -0.9088  1.6377
  103MOL   C27231076   5.727   2.551   2.749  0.2539 -0.5392 -0.3203
  103MOL   O27331077   5.587   2.544   2.767 -0.5045  0.0654 -0.5248
  103MOL   C27431078   5.513   2.624   2.851 -0.2224 -0.2085 -0.1461
  103MOL   O27531079   5.553   2.706   2.935 -0.0553  0.5412  0.1384
  103MOL   C27631080   5.367   2.592   2.838 -0.1325  0.1951 -0.3166
  103MOL   C27731081   5.324   2.466   2.918 -0.7401 -0.5756 -0.3728
  103MOL   C27831082   5.778   2.409   2.728 -0.0708 -0.7641  0.0923
  103MOL   H27931083   5.753   2.583   2.850 -2.1611 -1.8451  0.7723
  103MOL   H28031084   5.320   2.681   2.881 -1.1825 -0.6941  0.3828
  103MOL   H28131085   5.321   2.585   2.739  1.0582  1.1819 -0.9502
  103MOL   H28231086   5.228   2.424   2.889  0.7368 -2.4533 -2.6569
  103MOL   H28331087   5.402   2.390   2.920 -1.7156 -1.6239 -1.2072
  103MOL   H28431088   5.313   2.504   3.020  0.6997 -1.7914  0.2492
  103MOL   H28531089   5.715   2.359   2.654  0.3660 -0.4352 -0.4992
  103MOL   H28631090   5.877   2.415   2.683  1.0968 -2.4493  2.3179
  103MOL   C28731091   5.785   2.325   2.858 -0.2798 -0.6998 -0.2805
  103MOL   O28831092   5.808   2.191   2.821  0.1146 -0.5782  0.1320
  103MOL   C28931093   5.712   2.114   2.764 -0.0515 -0.1048 -0.1160
  103MOL   O29031094   5.591   2.139   2.759  0.7169 -0.0313 -0.8250
  103MOL   C29131095   5.764   1.987   2.696 -0.8191 -0.6101 -0.1595
  103MOL   C29231096   5.830   2.018   2.553  0.5594  0.3624 -0.5671
  103MOL   C29331097   5.911   2.356   2.942 -0.0585 -0.4379  0.4603
  103MOL   H29431098   5.697   2.343   2.920 -0.9000 -0.5590 -1.1890
  103MOL   H29531099   5.844   1.945   2.757 -0.4211  1.2323  0.6232
  103MOL   H29631100   5.686   1.911   2.698  0.5053 -2.0149 -0.9136
  103MOL   H29731101   5.765   2.059   2.475 -1.6910 -0.9570  0.5466
  103MOL   H29831102   5.903   2.097   2.565  0.1538  0.6605 -0.0183
  103MOL   H29931103   5.893   1.937   2.516 -0.4627 -0.0485 -1.4499
  103MOL   H30031104   5.916   2.281   3.021 -2.4890 -2.4269 -1.2011
  103MOL   H30131105   6.003   2.350   2.884 -0.4876  0.5207 -0.3331
  103MOL   H30231106   5.924   2.453   2.990  1.7424  0.3568 -1.5439
  104MOL     C131107   1.421   5.932   3.393 -0.0228 -0.1571 -0.3736
  104MOL     O231108   1.466   5.946   3.525 -0.4367  0.5421  0.1554
  104MOL     C331109   1.586   5.893   3.566  0.4434  0.1646 -0.4735
  104MOL     O431110   1.658   5.825   3.498 -0.5240 -0.5408 -0.5786
  104MOL     C531111   1.612   5.921   3.721 -0.7775  0.4177  0.0586
  104MOL     C631112   1.634   5.791   3.799  0.4432  0.1053  0.1050
  104MOL     C731113   1.310   5.821   3.392 -0.3674 -0.4379 -0.2032
  104MOL     H831114   1.509   5.926   3.329  0.7967  1.8859  0.5103
  104MOL     H931115   1.698   5.987   3.725  1.9019 -3.0670  2.2259
  104MOL    H1031116   1.525   5.978   3.754  0.0909  1.7162  0.1302
  104MOL    H1131117   1.692   5.816   3.888  0.7791  0.6947 -0.2772
  104MOL    H1231118   1.544   5.739   3.831 -0.0166  1.5100  1.1443
  104MOL    H1331119   1.698   5.719   3.748  1.8707  0.5448  1.2477
  104MOL    H1431120   1.367   5.735   3.428  0.1213  1.0014  2.5383
  104MOL    H1531121   1.237   5.854   3.466 -1.2250 -0.7618 -0.8896
  104MOL    H1631122   1.365   6.018   3.358  2.5869  0.8713 -2.1417
  104MOL    C1731123   1.239   5.782   3.257  0.4132  0.6211  0.0022
  104MOL    O1831124   1.326   5.727   3.161 -0.1044 -0.4845  0.1772
  104MOL    C1931125   1.320   5.760   3.031 -0.1024  0.4102  0.4347
  104MOL    O2031126   1.243   5.845   2.988  0.3874  0.1050  0.5791
  104MOL    C2131127   1.414   5.668   2.943  0.2091  0.2230  0.3004
  104MOL    C2231128   1.335   5.547   2.895  0.9582 -0.1277  0.1591
  104MOL    C2331129   1.122   5.687   3.281 -0.6111 -0.1602  0.2438
  104MOL    H2431130   1.217   5.884   3.223 -1.4896 -0.2656 -1.5375
  104MOL    H2531131   1.440   5.727   2.855 -1.0361 -1.0083 -0.9281
  104MOL    H2631132   1.503   5.637   2.998 -0.5202 -0.7450  0.9601
  104MOL    H2731133   1.310   5.482   2.978 -3.2053  0.1051 -0.7737
  104MOL    H2831134   1.239   5.574   2.849  0.9159 -1.6795 -0.6711
  104MOL    H2931135   1.399   5.492   2.827 -0.8959 -0.9079 -1.0079
  104MOL    H3031136   1.109   5.607   3.208  2.9964 -1.6716  1.1338
  104MOL    H3131137   1.133   5.632   3.375  2.7061  1.4400  0.8783
  104MOL    C3231138   0.996   5.776   3.290  0.5085  0.3076 -0.6748
  104MOL    O3331139   0.956   5.804   3.157  0.2976 -0.7534 -0.2939
  104MOL    C3431140   0.860   5.898   3.125 -0.2423  0.0862  0.7449
  104MOL    O3531141   0.804   5.974   3.211 -0.3281 -0.4845 -0.4897
  104MOL    C3631142   0.818   5.880   2.985  0.2591  0.4217  0.1051
  104MOL    C3731143   0.930   5.865   2.884 -0.1107 -0.0603  0.0017
  104MOL    C3831144   0.883   5.706   3.371 -0.3208 -0.3248  0.0986
  104MOL    H3931145   1.012   5.875   3.333 -0.3555  1.7737 -3.5714
  104MOL    H4031146   0.760   5.789   2.978  3.2695 -1.3619 -3.3799
  104MOL    H4131147   0.754   5.961   2.951  1.0961  0.9373 -0.2728
  104MOL    H4231148   0.993   5.777   2.898 -0.8482 -0.2781  2.0482
  104MOL    H4331149   0.881   5.854   2.787 -0.9868 -0.6229  0.5023
  104MOL    H4431150   0.991   5.956   2.882 -0.3867  0.1053 -2.1584
  104MOL    H4531151   0.799   5.775   3.376 -0.3185 -0.1564 -1.7747
  104MOL    H4631152   0.848   5.620   3.315 -1.8159 -0.1017  0.6727
  104MOL    C4731153   0.909   5.677   3.527  0.3938 -0.1778 -0.4456
  104MOL    O4831154   0.968   5.792   3.589 -0.5362 -0.1238 -0.3533
  104MOL    C4931155   1.070   5.775   3.691 -0.1432 -0.0171  0.0290
  104MOL    O5031156   1.124   5.669   3.714 -0.0408  0.0849  0.2428
  104MOL    C5131157   1.124   5.904   3.753  0.3847 -0.3939  0.2202
  104MOL    C5231158   1.260   5.904   3.812  0.2317  0.3550  0.6408
  104MOL    C5331159   0.782   5.666   3.614 -0.8749  0.0625  0.0942
  104MOL    H5431160   0.978   5.593   3.533  0.0464 -0.3918  0.6772
  104MOL    H5531161   1.119   5.988   3.684 -2.0596  0.2503  1.1409
  104MOL    H5631162   1.059   5.940   3.833  1.1296  2.2460 -0.3044
  104MOL    H5731163   1.336   5.899   3.734 -0.7844  0.5508 -0.3871
  104MOL    H5831164   1.274   6.001   3.861 -1.5431  0.6581  0.5905
  104MOL    H5931165   1.272   5.823   3.883 -0.1382  3.1349  3.9982
  104MOL    H6031166   0.807   5.684   3.719  1.6697 -2.9898  0.0936
  104MOL    H6131167   0.697   5.725   3.581 -0.1956 -0.4956 -2.7569
  104MOL    C6231168   0.705   5.529   3.603 -0.1759 -0.7151  0.0837
  104MOL    O6331169   0.782   5.419   3.656  0.4199  0.4231  0.1315
  104MOL    C6431170   0.842   5.333   3.570 -0.5559  0.3843 -0.6352
  104MOL    O6531171   0.796   5.299   3.464 -0.4663 -0.0722 -0.2289
  104MOL    C6631172   0.962   5.263   3.637 -0.6889 -0.4757 -0.8522
  104MOL    C6731173   0.962   5.231   3.779 -0.4931 -0.6659 -0.8314
  104MOL    C6831174   0.580   5.542   3.693 -0.2629  0.2430 -0.6263
  104MOL    H6931175   0.677   5.524   3.498 -0.1816  3.0987 -0.1841
  104MOL    H7031176   0.990   5.176   3.578 -0.9442 -2.0652  1.3313
  104MOL    H7131177   1.052   5.321   3.617  0.0278 -1.6205 -0.9639
  104MOL    H7231178   0.935   5.322   3.834  0.3276  0.0599 -1.6168
  104MOL    H7331179   0.900   5.148   3.813  0.0194 -1.7864 -2.5655
  104MOL    H7431180   1.060   5.210   3.822 -1.5697 -0.8467  1.6630
  104MOL    H7531181   0.600   5.569   3.797 -0.2294  0.1523 -0.6088
  104MOL    H7631182   0.518   5.623   3.654  0.3046  0.2899 -1.4348
  104MOL    C7731183   0.495   5.419   3.679 -0.5049  0.2065 -0.0880
  104MOL    O7831184   0.545   5.318   3.769  0.2318  0.2007  0.2840
  104MOL    C7931185   0.533   5.188   3.750  0.9639 -0.0722  0.0913
  104MOL    O8031186   0.467   5.137   3.656  1.3463  0.0992 -0.6110
  104MOL    C8131187   0.605   5.097   3.854 -0.0835 -0.3959 -0.5102
  104MOL    C8231188   0.507   4.986   3.901 -0.1637 -0.0510  0.0323
  104MOL    C8331189   0.340   5.426   3.718  0.1674 -0.1818 -0.4168
  104MOL    H8431190   0.510   5.387   3.576  0.7941  1.2930 -0.2424
  104MOL    H8531191   0.677   5.044   3.791  0.1600 -0.9707  0.2540
  104MOL    H8631192   0.657   5.159   3.928 -0.2365  1.1758 -1.6755
  104MOL    H8731193   0.443   5.011   3.986 -0.7098  0.1852 -0.4521
  104MOL    H8831194   0.447   4.934   3.827  1.0602 -0.1835 -0.8868
  104MOL    H8931195   0.578   4.910   3.934  2.4143  2.1521 -0.2506
  104MOL    H9031196   0.305   5.325   3.698  0.4110 -0.7193  1.7539
  104MOL    H9131197   0.338   5.454   3.823 -0.0896  1.0227 -0.7357
  104MOL    C9231198   0.266   5.532   3.643 -0.2832 -0.4394  0.5360
  104MOL    O9331199   0.246   5.486   3.510 -0.6802 -0.0058  0.1907
  104MOL    C9431200   0.259   5.568   3.402 -0.5209 -0.5128 -0.0526
  104MOL    O9531201   0.288   5.686   3.405 -0.2417 -0.3623 -0.3101
  104MOL    C9631202   0.250   5.490   3.268  0.0738  0.0912 -0.4375
  104MOL    C9731203   0.104   5.465   3.236  0.0335  0.2634  0.4563
  104MOL    C9831204   0.124   5.552   3.703  0.2327 -0.3765  0.2446
  104MOL    H9931205   0.317   5.628   3.645  1.7614 -1.5161  0.9927
  104MOL   H10031206   0.290   5.566   3.200 -1.2016  1.0077 -0.1712
  104MOL   H10131207   0.315   5.403   3.262 -1.7452 -1.3800  0.9147
  104MOL   H10231208   0.094   5.399   3.149 -1.3384 -1.0810  1.6051
  104MOL   H10331209   0.050   5.421   3.319  0.9852 -2.1194 -0.1346
  104MOL   H10431210   0.057   5.562   3.220  0.0687 -0.0894 -1.9650
  104MOL   H10531211   0.061   5.466   3.679  1.1091 -0.8332 -0.4835
  104MOL   H10631212   0.137   5.559   3.811  0.7854  1.9682  0.0445
  104MOL   C10731213   0.055   5.686   3.664 -0.0749 -0.4687 -0.1440
  104MOL   O10831214   7.864   5.652   3.670  0.7425  0.4946  0.0288
  104MOL   C10931215   7.790   5.622   3.552 -0.3779  0.4889 -0.3245
  104MOL   O11031216   7.834   5.607   3.444  0.2941 -0.0886 -0.5385
  104MOL   C11131217   7.649   5.584   3.573  0.1542  0.5682 -0.6810
  104MOL   C11231218   7.628   5.465   3.667 -0.4402 -0.1909  0.3590
  104MOL   C11331219   0.089   5.806   3.761 -0.6007  0.6369 -0.5207
  104MOL   H11431220   0.092   5.704   3.563 -0.7195 -1.1383 -0.5054
  104MOL   H11531221   7.594   5.663   3.623 -0.9786 -0.7448  0.2050
  104MOL   H11631222   7.599   5.551   3.481  0.7455  0.0964 -0.8369
  104MOL   H11731223   7.535   5.417   3.639  0.6055 -0.8065 -2.1761
  104MOL   H11831224   7.699   5.383   3.652 -1.2878 -0.3824 -3.0257
  104MOL   H11931225   7.644   5.485   3.773  0.5390  1.0158  0.0075
  104MOL   H12031226   0.022   5.888   3.736 -2.3408 -0.5395  0.1391
  104MOL   H12131227   0.061   5.769   3.860  1.1307 -1.7489 -0.8679
  104MOL   C12231228   0.232   5.850   3.771 -1.2095  0.1672 -0.3490
  104MOL   O12331229   0.265   5.932   3.655  0.4644 -0.3557  0.3219
  104MOL   C12431230   0.382   5.920   3.588  0.3352 -0.7779 -0.8503
  104MOL   O12531231   0.481   5.852   3.621  0.2861  0.1934 -0.7760
  104MOL   C12631232   0.372   5.998   3.463  0.0535 -0.0547 -0.4182
  104MOL   C12731233   0.473   5.972   3.353 -0.2267 -0.1853 -0.1060
  104MOL   C12831234   0.253   5.938   3.900  0.0199 -0.1694  0.0032
  104MOL   H12931235   0.299   5.766   3.787 -1.1948  0.1991 -0.2486
  104MOL   H13031236   0.269   5.992   3.426  0.5226 -2.5057 -1.4076
  104MOL   H13131237   0.377   6.103   3.493  0.8071 -0.1002 -0.4001
  104MOL   H13231238   0.571   5.986   3.401 -0.1947 -2.2492  0.4641
  104MOL   H13331239   0.448   5.879   3.303 -0.6798 -0.3443  0.4181
  104MOL   H13431240   0.481   6.050   3.277 -0.6781  0.0027  0.0433
  104MOL   H13531241   0.235   6.041   3.869 -1.5206 -1.1109 -2.4067
  104MOL   H13631242   0.183   5.919   3.981 -1.0298  0.4301 -0.7554
  104MOL   C13731243   0.407   5.924   3.949 -0.4706  0.2984 -0.4978
  104MOL   O13831244   0.498   6.016   3.889  0.2493 -0.2402 -0.1064
  104MOL   C13931245   0.623   5.969   3.868  0.5205 -0.2556  0.1806
  104MOL   O14031246   0.665   5.861   3.909 -0.2464  0.1468 -0.0374
  104MOL   C14131247   0.702   6.080   3.802  0.5586 -0.3069 -0.0953
  104MOL   C14231248   0.704   6.219   3.876  0.9085 -0.6144 -0.3384
  104MOL   C14331249   0.429   5.935   4.103  0.9642 -0.2352  0.6857
  104MOL   H14431250   0.426   5.818   3.929  1.6093  0.6654 -0.5610
  104MOL   H14531251   0.804   6.042   3.801  0.6018 -0.2175  0.5984
  104MOL   H14631252   0.665   6.087   3.700  1.5015 -0.6314 -0.4598
  104MOL   H14731253   0.618   6.278   3.845  0.7765  0.0715  1.3006
  104MOL   H14831254   0.693   6.212   3.984 -0.5702  1.1672 -0.3451
  104MOL   H14931255   0.786   6.289   3.859  0.9422 -0.6483 -0.3165
  104MOL   H15031256   0.527   5.926   4.149  2.4931 -1.9134 -2.6875
  104MOL   H15131257   0.390   6.029   4.143  0.2566 -1.0766  2.0159
  104MOL   C15231258   0.337   5.823   4.176  0.0518 -0.5790 -0.8102
  104MOL   O15331259   0.393   5.701   4.151 -0.4644  0.8610 -0.3209
  104MOL   C15431260   0.338   5.601   4.096 -0.5958 -0.2841 -0.3968
  104MOL   O15531261   0.224   5.600   4.052  0.1709  0.4426 -0.2208
  104MOL   C15631262   0.426   5.475   4.095 -0.3497  0.3858  0.2410
  104MOL   C15731263   0.476   5.445   4.231  0.0701  0.5837  0.7862
  104MOL   C15831264   0.341   5.841   4.325 -0.0605  0.0446 -0.1364
  104MOL   H15931265   0.232   5.828   4.147 -0.0612 -0.0758 -0.3185
  104MOL   H16031266   0.372   5.385   4.066  1.3542 -0.8336  0.7945
  104MOL   H16131267   0.511   5.483   4.028 -0.5050 -0.3301 -0.0424
  104MOL   H16231268   0.499   5.338   4.235 -0.7559  0.1590 -3.5438
  104MOL   H16331269   0.560   5.507   4.263  1.2706 -0.7302  0.2386
  104MOL   H16431270   0.395   5.458   4.303 -0.4954  1.4572 -0.0008
  104MOL   H16531271   0.276   5.759   4.355  0.3821  0.1142  1.0345
  104MOL   H16631272   0.444   5.839   4.361 -0.0640 -0.1044 -0.1381
  104MOL   C16731273   0.272   5.971   4.380  0.1658 -0.1690  0.1655
  104MOL   O16831274   0.130   5.966   4.347  0.2091 -0.6662 -0.3300
  104MOL   C16931275   0.072   6.036   4.251  0.0179  0.4794  0.4492
  104MOL   O17031276   0.124   6.114   4.172 -0.3510 -0.4722 -0.1130
  104MOL   C17131277   7.865   6.029   4.264  0.2703  0.5321 -0.4689
  104MOL   C17231278   7.820   6.150   4.357  0.2293 -0.2949 -0.2690
  104MOL   C17331279   0.285   5.981   4.537 -0.3828  0.1031  0.2751
  104MOL   H17431280   0.309   6.065   4.339  0.4713 -0.4073 -0.1062
  104MOL   H17531281   7.820   6.040   4.166  0.7286  0.8545 -0.6497
  104MOL   H17631282   7.844   5.933   4.310  0.3343  0.0048 -1.5414
  104MOL   H17731283   7.714   6.145   4.382  0.6574  2.6565  2.5507
  104MOL   H17831284   7.871   6.156   4.453  0.2488 -1.9908 -0.1711
  104MOL   H17931285   7.831   6.235   4.289  1.5086 -1.3462 -1.4045
  104MOL   H18031286   0.223   6.067   4.565  3.2092  2.7838  0.4175
  104MOL   H18131287   0.255   5.889   4.587 -1.4112  0.7007  0.7853
  104MOL   C18231288   0.427   6.016   4.588 -0.4956 -0.1754 -0.6650
  104MOL   O18331289   0.484   6.140   4.542  0.0523  0.3931 -0.3672
  104MOL   C18431290   0.564   6.142   4.439 -0.1833 -0.3730 -0.3619
  104MOL   O18531291   0.592   6.045   4.365 -0.3094  0.1977  0.4062
  104MOL   C18631292   0.619   6.282   4.404  0.0539  0.6306  0.6491
  104MOL   C18731293   0.678   6.288   4.262 -0.6787  0.3003 -0.3897
  104MOL   C18831294   0.433   6.016   4.741 -0.1144 -0.4306  0.3904
  104MOL   H18931295   0.490   5.931   4.563 -2.6041 -2.1047  0.3580
  104MOL   H19031296   0.534   6.350   4.405 -1.2928 -1.0235  0.2524
  104MOL   H19131297   0.688   6.318   4.480 -0.3447 -0.0614  1.3376
  104MOL   H19231298   0.756   6.213   4.249 -0.4546  0.8561 -2.3396
  104MOL   H19331299   0.599   6.270   4.189 -0.9945 -0.4617  0.1315
  104MOL   H19431300   0.722   6.385   4.240  0.3996 -0.3537 -1.1523
  104MOL   H19531301   0.372   6.093   4.789  1.3456  1.5040 -0.7647
  104MOL   H19631302   0.379   5.925   4.765 -0.7602 -0.0348  0.4455
  104MOL   C19731303   0.577   6.027   4.797  0.6403  0.1204 -0.2359
  104MOL   O19831304   0.575   6.121   4.901  0.2416  0.0741 -0.2391
  104MOL   C19931305   0.601   6.245   4.868 -0.4734  0.5594 -0.3891
  104MOL   O20031306   0.617   6.291   4.754  0.1390  0.1076  0.0134
  104MOL   C20131307   0.604   6.351   4.979  1.4556  0.2233 -0.2642
  104MOL   C20231308   0.491   6.326   5.082  0.4921  0.5839  0.2418
  104MOL   C20331309   0.618   5.888   4.853  0.0722 -0.3840  0.9654
  104MOL   H20431310   0.658   6.051   4.729  0.6563  1.7798  0.3365
  104MOL   H20531311   0.705   6.352   5.020  0.5019 -1.1121  2.2196
  104MOL   H20631312   0.587   6.450   4.938 -2.3465  0.3446  1.4282
  104MOL   H20731313   0.518   6.231   5.129 -0.1121 -0.0358 -0.6698
  104MOL   H20831314   0.508   6.403   5.158  3.7000  0.6012 -0.4023
  104MOL   H20931315   0.391   6.319   5.041  0.1832  0.3078  1.0283
  104MOL   H21031316   0.699   5.915   4.920  1.2402  0.7136 -0.8300
  104MOL   H21131317   0.537   5.841   4.908 -0.2900 -2.6543 -1.3978
  104MOL   C21231318   0.659   5.782   4.748 -0.1798 -0.1683 -0.2163
  104MOL   O21331319   0.539   5.737   4.686  0.1802 -0.1273 -0.1726
  104MOL   C21431320   0.527   5.602   4.641 -1.0794 -0.6730 -0.2682
  104MOL   O21531321   0.620   5.518   4.637 -0.5777  0.1121  0.0853
  104MOL   C21631322   0.384   5.574   4.608  0.8091  0.0088 -0.0491
  104MOL   C21731323   0.304   5.544   4.728 -0.2370  0.3220 -0.2403
  104MOL   C21831324   0.760   5.818   4.635  0.2652  0.5124 -0.4762
  104MOL   H21931325   0.687   5.692   4.803  0.7585  1.0514  1.3302
  104MOL   H22031326   0.346   5.662   4.555 -0.5468  1.0998  2.6326
  104MOL   H22131327   0.393   5.488   4.542  0.7537  0.7866 -1.0865
  104MOL   H22231328   0.310   5.633   4.790 -0.3316 -0.7624  1.3461
  104MOL   H22331329   0.202   5.510   4.710 -0.8636  0.5562  2.5956
  104MOL   H22431330   0.341   5.458   4.783  0.6568 -0.0894 -1.4673
  104MOL   H22531331   0.792   5.725   4.588  0.8976  0.1714  0.6279
  104MOL   H22631332   0.707   5.869   4.554  0.7832 -0.4238 -1.4166
  104MOL   C22731333   0.890   5.883   4.688 -0.3765  0.2552  0.1976
  104MOL   O22831334   0.964   5.785   4.758 -0.3230  0.1135  0.3938
  104MOL   C22931335   1.018   5.799   4.879  0.3266 -0.2675  0.4130
  104MOL   O23031336   0.981   5.884   4.964  0.2026  0.3600  0.8288
  104MOL   C23131337   1.116   5.690   4.913 -0.1391  0.6496  1.0333
  104MOL   C23231338   1.036   5.566   4.957 -0.3655  0.0883 -0.8983
  104MOL   C23331339   0.967   5.921   4.559  0.3269  0.3344  0.0831
  104MOL   H23431340   0.869   5.974   4.743  4.0330  0.7960  1.1611
  104MOL   H23531341   1.180   5.669   4.827 -0.9129  0.8867  0.3886
  104MOL   H23631342   1.173   5.734   4.995  1.1883  0.0301  0.4559
  104MOL   H23731343   0.928   5.581   4.954 -0.2141  1.1156 -4.5690
  104MOL   H23831344   1.048   5.490   4.880 -0.1443 -1.9724  1.1096
  104MOL   H23931345   1.072   5.531   5.053  0.0043  2.4676 -0.1314
  104MOL   H24031346   0.997   5.834   4.501  0.4154  0.4865 -0.1046
  104MOL   H24131347   0.895   5.974   4.496 -0.8632  1.8448  2.6381
  104MOL   C24231348   1.078   6.028   4.569  0.0863 -0.1806 -0.4486
  104MOL   O24331349   1.022   6.144   4.636 -0.0709  0.0194 -0.3534
  104MOL   C24431350   1.002   6.257   4.570 -0.0467  0.7035  0.0720
  104MOL   O24531351   1.017   6.276   4.452 -0.2742  0.1686 -0.1850
  104MOL   C24631352   0.971   6.372   4.670  0.5897 -0.1670 -0.1637
  104MOL   C24731353   0.933   6.500   4.590 -0.2150 -0.5947  0.0887
  104MOL   C24831354   1.216   5.993   4.632 -0.5973  0.0157 -0.3779
  104MOL   H24931355   1.108   6.055   4.468  0.0245 -1.9158 -0.9355
  104MOL   H25031356   0.892   6.329   4.731 -1.2083  0.4707 -1.9834
  104MOL   H25131357   1.064   6.395   4.723  1.1563 -0.4208 -1.0320
  104MOL   H25231358   0.906   6.565   4.673 -1.1150 -0.0643 -0.6184
  104MOL   H25331359   1.019   6.535   4.534  0.3109 -0.6859  0.8344
  104MOL   H25431360   0.845   6.487   4.527 -0.4113 -1.7536  0.5702
  104MOL   H25531361   1.243   6.042   4.726  2.0874 -1.2284 -0.4437
  104MOL   H25631362   1.214   5.885   4.652 -0.8986  0.3579  1.5499
  104MOL   C25731363   1.329   6.009   4.535  1.0326 -0.8470  0.4310
  104MOL   O25831364   1.354   6.153   4.509 -0.4366  0.0242 -0.1731
  104MOL   C25931365   1.353   6.213   4.391  0.6017 -1.0500  0.5889
  104MOL   O26031366   1.343   6.156   4.285  0.1991 -0.3891  0.3169
  104MOL   C26131367   1.351   6.361   4.409  0.0066 -0.4856  1.0413
  104MOL   C26231368   1.379   6.441   4.279  0.2093 -0.3929  0.2329
  104MOL   C26331369   1.466   5.953   4.582 -0.1388  0.3677 -0.2975
  104MOL   H26431370   1.295   5.957   4.446  2.4668  2.5327 -2.2219
  104MOL   H26531371   1.252   6.379   4.452  0.4785 -0.3286  2.0753
  104MOL   H26631372   1.430   6.376   4.483 -0.4111 -0.4628  1.4835
  104MOL   H26731373   1.371   6.373   4.194  0.7935 -2.4475  1.7803
  104MOL   H26831374   1.299   6.513   4.265  0.7987 -0.0436 -1.4819
  104MOL   H26931375   1.475   6.493   4.277 -0.9555  1.9180  2.3015
  104MOL   H27031376   1.542   5.968   4.505 -0.1227  1.5294 -0.0625
  104MOL   H27131377   1.499   6.004   4.673  2.1868  2.1941 -2.1130
  104MOL   C27231378   1.469   5.795   4.605 -0.2728 -0.0026 -0.0146
  104MOL   O27331379   1.433   5.736   4.476  0.1760 -0.4019  0.0618
  104MOL   C27431380   1.321   5.677   4.456  0.3382  0.4902  0.5707
  104MOL   O27531381   1.229   5.658   4.533 -0.4737 -0.5764 -0.4674
  104MOL   C27631382   1.295   5.632   4.309  0.0320 -0.7179  0.5203
  104MOL   C27731383   1.223   5.752   4.229 -0.8608 -0.1927  0.0769
  104MOL   C27831384   1.612   5.748   4.646 -0.7324  0.0423  0.7781
  104MOL   H27931385   1.398   5.764   4.682 -0.4640 -0.3545 -0.3231
  104MOL   H28031386   1.377   5.592   4.249  1.3113 -0.5252  2.1192
  104MOL   H28131387   1.218   5.555   4.317 -0.1212 -0.3304  3.1106
  104MOL   H28231388   1.190   5.713   4.133 -0.1523 -0.9687  0.1417
  104MOL   H28331389   1.137   5.794   4.281  0.3887  0.4684  1.6707
  104MOL   H28431390   1.302   5.823   4.202  1.2192 -2.3426  0.2801
  104MOL   H28531391   1.622   5.639   4.640  0.0776  0.1051  0.8198
  104MOL   H28631392   1.676   5.793   4.570 -3.0899 -1.7979 -2.4172
  104MOL   C28731393   1.656   5.789   4.787  0.1218 -0.1529 -0.3961
  104MOL   O28831394   1.594   5.711   4.886 -0.2916 -0.0792  0.2585
  104MOL   C28931395   1.479   5.741   4.942 -0.7588  0.1791 -0.1022
  104MOL   O29031396   1.397   5.828   4.908  0.1710  0.2633  0.1933
  104MOL   C29131397   1.452   5.666   5.075 -1.0435  0.3556  0.2274
  104MOL   C29231398   1.553   5.698   5.185 -0.6678 -0.5075 -0.4441
  104MOL   C29331399   1.807   5.776   4.814  0.3502 -0.2212  0.0326
  104MOL   H29431400   1.633   5.892   4.813 -1.2496 -0.2692 -1.0959
  104MOL   H29531401   1.357   5.703   5.115 -0.9707  0.5091  0.2567
  104MOL   H29631402   1.449   5.559   5.055 -0.3018  0.9313 -3.3314
  104MOL   H29731403   1.572   5.805   5.190  1.6758 -0.8255 -1.5877
  104MOL   H29831404   1.528   5.670   5.287  0.5074 -0.4592 -0.1325
  104MOL   H29931405   1.653   5.657   5.172 -1.2597 -1.7702 -1.0465
  104MOL   H30031406   1.840   5.847   4.889  0.4403 -1.4436  1.1624
  104MOL   H30131407   1.847   5.676   4.827  2.8576  0.9701  1.8016
  104MOL   H30231408   1.863   5.813   4.727 -0.5029 -1.5810 -1.1227
  105MOL     C131409   0.135   3.634   0.192 -0.5887  0.4789 -0.5532
  105MOL     O231410   0.076   3.510   0.233  0.1060 -0.4988  0.1968
  105MOL     C331411   0.156   3.417   0.290 -0.3778  0.9078 -0.8534
  105MOL     O431412   0.279   3.408   0.284 -0.9943 -0.4929 -0.1226
  105MOL     C531413   0.081   3.297   0.354 -0.0245  0.1837  0.4058
  105MOL     C631414   7.894   3.334   0.415  0.5501  0.3096 -0.2734
  105MOL     C731415   0.043   3.746   0.246 -0.2278  0.8167  0.0389
  105MOL     H831416   0.150   3.642   0.084 -1.1138 -0.2221 -0.6840
  105MOL     H931417   0.053   3.231   0.273  2.4684  0.5528 -0.8047
  105MOL    H1031418   0.139   3.241   0.428 -0.1174 -0.2461  0.1516
  105MOL    H1131419   7.851   3.416   0.358  0.0398 -0.6406 -1.2728
  105MOL    H1231420   7.818   3.257   0.403  1.1084 -0.2877 -0.0356
  105MOL    H1331421   7.895   3.359   0.521  2.8567  0.1684 -0.2300
  105MOL    H1431422   7.886   3.708   0.246  0.6178 -1.5194 -0.3325
  105MOL    H1531423   0.072   3.773   0.347  0.3260 -1.4332  0.5041
  105MOL    H1631424   0.236   3.650   0.228 -0.9141  3.0457 -0.6462
  105MOL    C1731425   0.072   3.880   0.172  0.0764  0.2479 -0.3915
  105MOL    O1831426   0.007   3.875   0.047 -0.3314 -0.7678 -0.0190
  105MOL    C1931427   0.058   3.959   7.895 -0.0175  0.5815  0.5402
  105MOL    O2031428   0.152   4.036   7.907 -0.2384 -0.2043 -0.5856
  105MOL    C2131429   7.938   3.955   7.755  0.0899  0.3985  0.3747
  105MOL    C2231430   0.036   4.056   7.649 -0.3901 -0.1544  0.2193
  105MOL    C2331431   0.024   3.997   0.258  0.0573 -0.8412  0.0796
  105MOL    H2431432   0.180   3.892   0.161  0.1918 -0.2047  0.2594
  105MOL    H2531433   0.008   3.863   7.699 -0.2005  0.1905  0.6365
  105MOL    H2631434   7.832   3.964   7.780 -0.6324 -0.9593 -2.0671
  105MOL    H2731435   0.139   4.043   7.617 -0.3231 -0.3776  0.5268
  105MOL    H2831436   7.921   4.051   7.558 -0.4922 -1.0481  0.3314
  105MOL    H2931437   0.019   4.154   7.694  2.0648 -0.8002  2.6818
  105MOL    H3031438   0.087   4.009   0.347 -2.5546 -2.1087  2.1566
  105MOL    H3131439   0.056   4.088   0.208 -3.1099 -0.9229 -2.2108
  105MOL    C3231440   7.822   4.020   0.297  0.0880  0.4370 -0.3355
  105MOL    O3331441   7.792   3.938   0.412 -0.3706  0.5674  0.0029
  105MOL    C3431442   7.664   3.882   0.426 -0.6148  0.1086 -0.0707
  105MOL    O3531443   7.563   3.897   0.354  0.2806 -0.0496  0.1680
  105MOL    C3631444   7.665   3.789   0.543 -1.1985 -0.0683 -0.6088
  105MOL    C3731445   7.755   3.668   0.510 -0.4432 -0.2167  0.0936
  105MOL    C3831446   7.789   4.166   0.328 -0.9224  0.3001  0.9377
  105MOL    H3931447   7.770   3.986   0.208  1.2539  0.5101 -1.0541
  105MOL    H4031448   7.691   3.839   0.636  0.4826  0.0275 -1.1201
  105MOL    H4131449   7.563   3.756   0.563  0.1704 -3.6674  0.8281
  105MOL    H4231450   7.728   3.624   0.414  0.9654  0.3964 -0.6033
  105MOL    H4331451   7.863   3.681   0.504 -0.4321 -0.6218 -0.6750
  105MOL    H4431452   7.737   3.594   0.588 -2.2368 -1.4707 -1.4418
  105MOL    H4531453   7.699   4.173   0.390 -1.8006  0.3429 -0.3164
  105MOL    H4631454   7.868   4.210   0.389 -0.2207  2.6957 -1.6112
  105MOL    C4731455   7.774   4.255   0.203 -0.8081 -0.0540  0.3914
  105MOL    O4831456   7.641   4.243   0.150 -0.3366  0.1136 -0.3009
  105MOL    C4931457   7.613   4.155   0.052  0.7565  0.5831  0.0976
  105MOL    O5031458   7.696   4.080   7.944  0.7430  0.5086 -0.0809
  105MOL    C5131459   7.464   4.140   0.018  0.4758 -0.6119  0.0903
  105MOL    C5231460   7.382   4.059   0.112  0.7156 -0.8386  0.1231
  105MOL    C5331461   7.810   4.394   0.244 -0.6792  1.3198  0.2212
  105MOL    H5431462   7.842   4.227   0.123  2.1548  0.4788  2.6402
  105MOL    H5531463   7.435   4.243   7.942  1.1048 -0.7272 -1.3772
  105MOL    H5631464   7.466   4.092   7.865 -2.7845  0.1654 -0.4204
  105MOL    H5731465   7.289   4.039   0.059  0.4682 -0.7972  0.5421
  105MOL    H5831466   7.429   3.966   0.145  0.5655 -0.4044  1.5928
  105MOL    H5931467   7.350   4.117   0.198 -1.5938  0.6163 -1.6460
  105MOL    H6031468   7.911   4.397   0.284  1.0438 -1.2256 -3.6386
  105MOL    H6131469   7.826   4.449   0.151 -0.8168  0.7602 -0.1396
  105MOL    C6231470   7.705   4.484   0.306  0.4256  0.4615 -0.4317
  105MOL    O6331471   7.717   4.480   0.448  0.2102  0.1281 -0.0113
  105MOL    C6431472   7.597   4.495   0.518 -0.3158 -0.5206 -0.1630
  105MOL    O6531473   7.493   4.519   0.462  0.2633 -0.6917  0.3485
  105MOL    C6631474   7.612   4.487   0.670 -0.2837 -0.3888 -0.1261
  105MOL    C6731475   7.639   4.624   0.744  0.0984  0.2368 -0.2193
  105MOL    C6831476   7.710   4.634   0.264  0.5097  0.2477 -0.6805
  105MOL    H6931477   7.606   4.450   0.277  1.0163  0.4126 -2.4151
  105MOL    H7031478   7.522   4.437   0.706 -0.1937 -0.6232 -0.2269
  105MOL    H7131479   7.692   4.417   0.693 -0.4684 -0.6415 -0.2561
  105MOL    H7231480   7.592   4.618   0.842 -0.7658  0.9827 -0.5862
  105MOL    H7331481   7.745   4.648   0.756  0.0362 -0.0601  1.0168
  105MOL    H7431482   7.591   4.701   0.684 -1.7119 -1.7875 -1.4633
  105MOL    H7531483   7.709   4.636   0.155  1.7445  0.9530 -0.6876
  105MOL    H7631484   7.621   4.687   0.301  0.9448  0.9973 -0.6938
  105MOL    C7731485   7.836   4.702   0.322 -0.7401  0.0565 -0.1131
  105MOL    O7831486   0.021   4.653   0.275  0.7204  0.3016 -0.8024
  105MOL    C7931487   0.121   4.659   0.358  0.1110  0.9244 -0.2366
  105MOL    O8031488   0.120   4.702   0.475 -0.4180 -0.0120 -0.3338
  105MOL    C8131489   0.246   4.609   0.294 -0.5204 -0.0339  0.6535
  105MOL    C8231490   0.376   4.622   0.385 -0.0135  0.3953  0.9253
  105MOL    C8331491   7.839   4.856   0.295  0.3909  0.5284 -0.6047
  105MOL    H8431492   7.828   4.696   0.431 -0.4890 -1.0038 -0.1501
  105MOL    H8531493   0.242   4.503   0.272 -0.8892  0.1710 -0.2897
  105MOL    H8631494   0.263   4.648   0.194  1.2031 -1.3160  0.4305
  105MOL    H8731495   0.351   4.592   0.487 -0.7650 -1.1318  0.3108
  105MOL    H8831496   0.444   4.542   0.359  0.4209  1.9679 -3.0987
  105MOL    H8931497   0.429   4.717   0.373  0.2987  0.1437  0.3502
  105MOL    H9031498   7.941   4.887   0.314 -0.4995  0.4266  4.9678
  105MOL    H9131499   7.817   4.867   0.188 -0.0049  2.1203 -0.3787
  105MOL    C9231500   7.735   4.937   0.380  0.1119 -0.4993  0.6159
  105MOL    O9331501   7.796   4.945   0.506 -0.0616  0.0629 -0.6460
  105MOL    C9431502   7.725   4.962   0.618  0.0426  0.2747  0.9153
  105MOL    O9531503   7.602   4.953   0.619  0.4399 -0.0456 -0.1919
  105MOL    C9631504   7.812   4.988   0.741 -0.2980 -0.6426 -0.3149
  105MOL    C9731505   7.914   5.100   0.718  0.7953  0.3634 -0.9922
  105MOL    C9831506   7.722   5.080   0.330 -0.7058  0.0585 -0.7935
  105MOL    H9931507   7.647   4.874   0.385  0.3527 -0.9101 -0.3195
  105MOL   H10031508   7.756   4.998   0.834 -0.6786  0.0430 -0.6167
  105MOL   H10131509   7.863   4.895   0.765  0.7178  0.2555  1.0533
  105MOL   H10231510   0.035   5.078   0.634  1.1253  1.4543 -1.0240
  105MOL   H10331511   7.864   5.197   0.711 -1.8691 -0.9661 -0.9692
  105MOL   H10431512   0.035   5.093   0.805 -2.5256 -1.0180  1.5069
  105MOL   H10531513   7.667   5.132   0.408  0.6975 -0.6254  0.6809
  105MOL   H10631514   7.824   5.118   0.338 -0.5182 -0.2180 -1.7786
  105MOL   C10731515   7.657   5.086   0.193  0.2218  0.0417  0.1058
  105MOL   O10831516   7.514   5.068   0.209 -0.4306 -0.0729  0.3606
  105MOL   C10931517   7.451   4.978   0.139  0.0193 -0.5311  0.2653
  105MOL   O11031518   7.513   4.895   0.064  0.5349  0.3834  0.0461
  105MOL   C11131519   7.295   4.978   0.164  0.2376  0.0549 -0.1571
  105MOL   C11231520   7.231   5.084   0.081  0.1545 -1.1304 -0.3665
  105MOL   C11331521   7.682   5.223   0.124  0.4663 -0.3568 -0.2497
  105MOL   H11431522   7.686   5.000   0.133 -2.4292  0.3640 -1.7285
  105MOL   H11531523   7.253   4.879   0.147 -1.3351  0.7487 -0.3849
  105MOL   H11631524   7.272   5.009   0.266 -0.0281  2.5231 -0.9469
  105MOL   H11731525   7.127   5.086   0.115 -0.0273  0.2033 -0.9776
  105MOL   H11831526   7.287   5.175   0.105 -1.6226 -0.5059  1.5708
  105MOL   H11931527   7.238   5.063   7.919 -1.8749  2.1555 -1.2405
  105MOL   H12031528   7.601   5.238   0.053  0.3056  1.6903  0.3212
  105MOL   H12131529   7.681   5.306   0.196  1.2480  0.4682 -1.1854
  105MOL   C12231530   7.818   5.224   0.051  0.1993  0.4311 -0.5151
  105MOL   O12331531   7.809   5.133   7.889  0.0332 -0.0848  0.5076
  105MOL   C12431532   7.881   5.025   7.883 -0.0465  0.1322  0.2602
  105MOL   O12531533   0.021   4.997   0.022 -0.3409 -0.3781 -0.6974
  105MOL   C12631534   7.841   4.935   7.766  0.4642  0.0615 -0.4660
  105MOL   C12731535   7.786   4.798   7.817  0.2142  0.0219 -0.4818
  105MOL   C12831536   7.873   5.360   0.006  0.0211 -0.2049  0.1515
  105MOL   H12931537   7.891   5.189   0.124  0.0056  0.5058 -0.2868
  105MOL   H13031538   7.765   4.988   7.707  0.7571 -0.1735 -1.0597
  105MOL   H13131539   7.927   4.906   7.706  1.8307  0.7437  1.1153
  105MOL   H13231540   7.685   4.830   7.845  0.8255  3.3072 -1.7394
  105MOL   H13331541   7.781   4.711   7.752 -1.4116 -0.7741  0.6762
  105MOL   H13431542   7.836   4.760   7.906 -1.6790 -1.0074  0.1841
  105MOL   H13531543   0.015   5.341   7.888  1.1441  0.0568  1.6125
  105MOL   H13631544   7.799   5.405   7.884 -1.7112 -0.6783  1.6967
  105MOL   C13731545   7.916   5.447   0.118  0.2972 -0.1603  0.5735
  105MOL   O13831546   0.088   5.384   0.155 -0.9604  0.4197 -0.1779
  105MOL   C13931547   0.111   5.367   0.287 -0.1808  0.1281  0.1468
  105MOL   O14031548   0.042   5.419   0.375  0.5855  0.3050 -0.6097
  105MOL   C14131549   0.222   5.266   0.316 -0.1684 -0.3185 -0.1032
  105MOL   C14231550   0.180   5.124   0.272 -0.7826  0.7948  0.1017
  105MOL   C14331551   0.001   5.597   0.080 -0.2048  0.4090  0.9830
  105MOL   H14431552   7.845   5.456   0.200 -1.8599  0.2712 -1.2924
  105MOL   H14531553   0.309   5.284   0.252 -0.4890  1.4121 -0.0685
  105MOL   H14631554   0.259   5.267   0.419 -0.4697 -1.6498  0.0377
  105MOL   H14731555   0.072   5.109   0.282 -0.2895 -2.5058  1.0842
  105MOL   H14831556   0.200   5.116   0.165  0.1479  1.0450  0.2543
  105MOL   H14931557   0.228   5.043   0.327 -0.6787  0.6787 -0.1610
  105MOL   H15031558   0.042   5.665   0.155 -0.2213  0.0755  1.2953
  105MOL   H15131559   0.075   5.590   0.000 -0.0751  1.4676  1.0117
  105MOL   C15231560   7.815   5.674   0.040  0.2234  0.0932  0.1056
  105MOL   O15331561   7.733   5.688   0.160  0.1270 -0.0486 -0.1399
  105MOL   C15431562   7.604   5.696   0.130 -0.2199  0.3444 -0.0442
  105MOL   O15531563   7.554   5.659   0.024 -0.0946  0.0599 -0.1083
  105MOL   C15631564   7.523   5.750   0.244 -0.1560 -0.5230  0.0200
  105MOL   C15731565   7.380   5.793   0.203  0.1020 -0.5688 -0.9529
  105MOL   C15831566   7.839   5.817   7.923 -0.2654  0.3008 -0.7485
  105MOL   H15931567   7.764   5.612   7.912  1.0259 -0.6345  0.1497
  105MOL   H16031568   7.518   5.684   0.331  0.6894 -1.8132 -0.8949
  105MOL   H16131569   7.579   5.833   0.285 -1.1365  0.3591 -0.4122
  105MOL   H16231570   7.316   5.825   0.285  2.5883 -0.0980  0.8240
  105MOL   H16331571   7.363   5.852   0.113 -1.7885 -1.4992 -1.2284
  105MOL   H16431572   7.333   5.697   0.182  0.1167 -0.4257 -1.6671
  105MOL   H16531573   7.742   5.866   7.922  0.7921  2.5773  2.0596
  105MOL   H16631574   7.901   5.884   0.037 -1.8447 -0.0103  1.2956
  105MOL   C16731575   7.899   5.805   7.782 -0.0464  0.1390  0.6860
  105MOL   O16831576   7.806   5.729   7.694 -0.4183 -0.5809  0.1625
  105MOL   C16931577   7.849   5.650   7.600 -0.1386 -0.4965 -0.2180
  105MOL   O17031578   0.022   5.624   7.572  0.2919  0.1765 -0.2832
  105MOL   C17131579   7.736   5.588   7.513 -0.5165 -0.1317  0.9255
  105MOL   C17231580   7.663   5.477   7.582 -0.1058 -0.6661 -0.9296
  105MOL   C17331581   7.941   5.930   7.712  0.4330 -0.1457  0.0653
  105MOL   H17431582   0.043   5.745   7.797 -0.2783 -0.1529  0.8941
  105MOL   H17531583   7.659   5.662   7.491  0.6956  1.4601  1.9101
  105MOL   H17631584   7.772   5.542   7.421  2.1114 -1.7663  2.7216
  105MOL   H17731585   7.575   5.450   7.524 -0.4218 -0.7149 -0.4293
  105MOL   H17831586   7.731   5.392   7.590 -1.5009 -1.8363 -1.2622
  105MOL   H17931587   7.638   5.507   7.684  1.5804  1.4925 -1.1173
  105MOL   H18031588   0.015   5.906   7.607  0.8536 -0.5964  0.2422
  105MOL   H18131589   7.853   5.993   7.705 -0.8268 -1.7348  1.1753
  105MOL   C18231590   0.108   6.018   7.766 -0.1552  0.1387 -0.5286
  105MOL   O18331591   0.237   5.965   7.739  0.4846  0.3880 -0.4854
  105MOL   C18431592   0.313   5.908   7.837 -0.4885  0.3540 -0.1558
  105MOL   O18531593   0.274   5.880   0.006  0.3487  0.1369 -0.1077
  105MOL   C18631594   0.448   5.861   7.786  0.0649 -0.1940  0.4250
  105MOL   C18731595   0.431   5.731   7.710 -0.4285 -0.1814  0.0450
  105MOL   C18831596   0.097   6.157   7.694 -0.2327  0.1077  0.9429
  105MOL   H18931597   0.090   6.039   7.871 -0.4317  2.3692 -1.0095
  105MOL   H19031598   0.480   5.935   7.712 -0.7939 -0.2436 -0.0016
  105MOL   H19131599   0.523   5.841   7.862 -0.6327 -1.2579  0.8453
  105MOL   H19231600   0.380   5.653   7.765  1.1419 -0.6130  0.9094
  105MOL   H19331601   0.377   5.738   7.616 -1.3018  0.2876  0.5754
  105MOL   H19431602   0.529   5.684   7.703 -0.5416 -0.6550  1.4641
  105MOL   H19531603   0.193   6.207   7.703 -0.1840  0.0862  0.5440
  105MOL   H19631604   0.085   6.147   7.586  2.2835 -2.4933  0.8459
  105MOL   C19731605   7.937   6.261   7.759  0.3132 -0.3750  0.5707
  105MOL   O19831606   0.050   6.329   7.870 -0.3827 -0.0920  0.4370
  105MOL   C19931607   7.942   6.317   0.046 -0.3663  0.6669 -0.3146
  105MOL   O20031608   7.864   6.231   0.082 -0.1271 -0.0484  1.1081
  105MOL   C20131609   0.058   6.404   0.153 -0.0292  0.2641 -0.0697
  105MOL   C20231610   0.009   6.543   0.135  0.2212  0.2044 -0.0728
  105MOL   C20331611   7.891   6.375   7.665  0.1345  0.1080 -0.4559
  105MOL   H20431612   7.842   6.212   7.780  0.7627 -1.6680 -0.3184
  105MOL   H20531613   0.019   6.364   0.246 -0.6094  1.0231  0.0178
  105MOL   H20631614   0.167   6.406   0.144 -0.1429  3.4157 -1.4859
  105MOL   H20731615   0.039   6.598   0.225 -0.1604  0.5382 -0.1441
  105MOL   H20831616   0.035   6.583   0.037 -0.3872  1.3703  0.2269
  105MOL   H20931617   7.845   6.544   0.135  0.1991 -0.6082  1.2069
  105MOL   H21031618   0.036   6.436   7.657  0.4744 -0.5094 -1.4600
  105MOL   H21131619   7.870   6.343   7.563  0.7831  1.7841 -1.1239
  105MOL   C21231620   7.770   6.455   7.715 -0.0856 -0.0295  0.1240
  105MOL   O21331621   7.756   6.571   7.634 -0.6703 -0.1890  0.3007
  105MOL   C21431622   7.808   6.682   7.657 -0.6603 -0.5542 -0.3514
  105MOL   O21531623   7.879   6.706   7.755  0.4428 -0.0018  0.3754
  105MOL   C21631624   7.776   6.785   7.544  0.5671  0.1487  0.5630
  105MOL   C21731625   7.683   6.899   7.589  0.4456  0.5079  0.3754
  105MOL   C21831626   7.637   6.378   7.695 -0.5970 -0.5107 -0.2878
  105MOL   H21931627   7.791   6.470   7.821  1.6534 -0.3140 -0.1784
  105MOL   H22031628   7.865   6.821   7.491 -0.0162  0.6653 -0.0630
  105MOL   H22131629   7.711   6.728   7.477 -0.3431  1.4290  0.3513
  105MOL   H22231630   7.577   6.876   7.581  0.7831 -0.8603 -0.4482
  105MOL   H22331631   7.712   6.925   7.690 -0.6966 -1.9863  1.3839
  105MOL   H22431632   7.701   6.988   7.529  0.0490  0.4204  0.1206
  105MOL   H22531633   7.608   6.390   7.591  2.2325 -0.8034 -1.1527
  105MOL   H22631634   7.640   6.271   7.718 -0.6594 -0.1381  1.5357
  105MOL   C22731635   7.524   6.452   7.768  1.0948 -0.3162 -0.8039
  105MOL   O22831636   7.397   6.416   7.720 -1.0605 -0.6641  0.1596
  105MOL   C22931637   7.356   6.470   7.601  0.3650  0.6228 -0.3051
  105MOL   O23031638   7.403   6.565   7.538  0.4295 -0.0632  0.0483
  105MOL   C23131639   7.238   6.394   7.539 -0.3033 -0.4671 -0.6594
  105MOL   C23231640   7.267   6.242   7.530  0.0719  0.2910  1.1891
  105MOL   C23331641   7.526   6.411   7.920  0.3149  0.1098 -0.4499
  105MOL   H23431642   7.525   6.560   7.757 -3.1347  0.1387  2.0224
  105MOL   H23531643   7.150   6.411   7.601 -1.0672 -1.6545 -1.4136
  105MOL   H23631644   7.227   6.429   7.436  0.5835 -1.0751 -0.9699
  105MOL   H23731645   7.257   6.201   7.429  0.4436  0.3791  1.1169
  105MOL   H23831646   7.359   6.202   7.573  0.8658 -1.6095 -2.1023
  105MOL   H23931647   7.176   6.193   7.565  0.2844  0.2506  1.6904
  105MOL   H24031648   7.482   6.311   7.921  0.8202 -0.1265  1.9226
  105MOL   H24131649   7.627   6.390   0.010  0.2680  0.0731 -0.3332
  105MOL   C24231650   7.452   6.511   0.067  0.6164  0.2940  0.3348
  105MOL   O24331651   7.528   6.636   0.083  0.1998  0.3401 -0.4129
  105MOL   C24431652   7.572   6.680   0.204  0.4301  0.4091  0.2835
  105MOL   O24531653   7.566   6.612   0.304 -0.5295  0.2241 -0.3677
  105MOL   C24631654   7.618   6.826   0.207 -0.1698 -0.1587 -0.0353
  105MOL   C24731655   7.634   6.887   0.066  0.3869  0.7945  0.4948
  105MOL   C24831656   7.310   6.552   0.042  1.0625  0.7528  0.2002
  105MOL   H24931657   7.440   6.469   0.167 -2.4433  1.0190  0.3380
  105MOL   H25031658   7.580   6.895   0.282 -0.9013  0.6902 -1.1922
  105MOL   H25131659   7.718   6.816   0.249 -0.1185 -0.0094 -0.1229
  105MOL   H25231660   7.546   6.921   0.012  0.2519  0.5732  0.5740
  105MOL   H25331661   7.707   6.967   0.071  0.2792  0.9568 -0.3643
  105MOL   H25431662   7.682   6.815   7.943 -1.3381  0.2342 -0.1732
  105MOL   H25531663   7.269   6.624   0.113  0.1594 -0.3585  0.8337
  105MOL   H25631664   7.313   6.593   7.886 -1.2809 -1.1414 -0.7035
  105MOL   C25731665   7.216   6.430   0.024 -0.3005  0.3593  0.4026
  105MOL   O25831666   7.208   6.364   0.147 -0.4845  0.4733  0.0360
  105MOL   C25931667   7.239   6.235   0.172 -0.1124  0.2645  0.2447
  105MOL   O26031668   7.273   6.150   0.092 -0.3312  0.3480 -0.2777
  105MOL   C26131669   7.214   6.201   0.322  0.2130  0.7755  0.1074
  105MOL   C26231670   7.077   6.135   0.347  0.5135 -0.4301  0.6431
  105MOL   C26331671   7.068   6.474   7.931 -0.6295  0.5602 -0.4398
  105MOL   H26431672   7.249   6.348   7.906  2.3763  0.4161  1.6757
  105MOL   H26531673   7.285   6.126   0.355  0.1421  0.0654 -1.3572
  105MOL   H26631674   7.230   6.297   0.373  1.5670  0.2342  0.7212
  105MOL   H26731675   7.075   6.034   0.306 -1.8196  0.2512 -0.9831
  105MOL   H26831676   7.039   6.134   0.449  1.9615  0.8110  1.2112
  105MOL   H26931677   6.997   6.170   0.282  0.5611  0.1725  0.9045
  105MOL   H27031678   7.033   6.543   0.063 -1.3701  0.9371 -1.1101
  105MOL   H27131679   7.057   6.537   7.842 -0.5311  1.1788 -0.0201
  105MOL   C27231680   6.974   6.356   7.906  0.1957  0.0356 -0.0091
  105MOL   O27331681   6.839   6.409   7.902 -0.3040  0.6259  0.2645
  105MOL   C27431682   6.749   6.365   0.046  0.0715 -0.3165 -0.0414
  105MOL   O27531683   6.776   6.299   0.146  0.0947  0.2937 -0.3185
  105MOL   C27631684   6.606   6.423   0.022 -0.1402  0.1458 -0.2652
  105MOL   C27731685   6.541   6.380   7.836  0.2838  0.0413 -0.9219
  105MOL   C27831686   6.991   6.279   7.784  0.0099  1.3895 -0.0048
  105MOL   H27931687   6.974   6.289   0.047 -2.2968  2.3224  1.8467
  105MOL   H28031688   6.540   6.392   0.103 -0.4672  0.0896 -0.5501
  105MOL   H28131689   6.602   6.532   0.017 -0.9856  0.2901  2.4843
  105MOL   H28231690   6.523   6.272   7.835 -0.9108  0.2047  0.3717
  105MOL   H28331691   6.444   6.429   7.829 -0.1240 -0.6186 -0.0290
  105MOL   H28431692   6.605   6.403   7.752  1.7061  1.9894  0.6641
  105MOL   H28531693   6.955   6.344   7.705 -0.9246 -2.1527 -2.6261
  105MOL   H28631694   7.094   6.259   7.755 -0.3337  0.3277 -0.5502
  105MOL   C28731695   6.915   6.144   7.766  0.0458 -0.3875 -0.3018
  105MOL   O28831696   6.912   6.105   7.624 -0.2013 -0.3502 -0.4800
  105MOL   C28931697   6.800   6.109   7.560 -1.4971  0.2808 -0.4291
  105MOL   O29031698   6.697   6.152   7.605 -0.2916 -0.2589 -0.3073
  105MOL   C29131699   6.804   6.045   7.421  0.1170  0.4884 -0.1261
  105MOL   C29231700   6.933   6.071   7.337 -0.1033  0.3655 -0.8249
  105MOL   C29331701   6.987   6.035   7.840  0.0813 -0.4668 -0.1893
  105MOL   H29431702   6.813   6.150   7.803 -0.2936 -1.7393 -0.9805
  105MOL   H29531703   6.795   5.937   7.430 -3.5129  0.7269 -0.0006
  105MOL   H29631704   6.714   6.071   7.364  0.3123  0.6207 -0.3717
  105MOL   H29731705   7.021   6.050   7.397 -1.9941 -2.1678  1.1822
  105MOL   H29831706   6.954   6.006   7.252  1.0770  1.7400 -1.6074
  105MOL   H29931707   6.921   6.176   7.308 -1.0823  0.8383  1.2310
  105MOL   H30031708   7.095   6.038   7.828  0.2271  1.8628  1.3986
  105MOL   H30131709   6.967   6.030   0.002 -0.8256 -0.2001 -0.3439
  105MOL   H30231710   6.962   5.938   7.796 -1.5502 -0.5380  0.8743
  106MOL     C131711   5.798   1.802   4.647 -0.5199  0.3910  0.0765
  106MOL     O231712   5.739   1.926   4.597  0.0183  0.7815 -0.2604
  106MOL     C331713   5.807   2.012   4.513  0.2704  0.3043  0.5469
  106MOL     O431714   5.925   2.007   4.477 -0.2874 -0.2320  1.1906
  106MOL     C531715   5.710   2.121   4.468 -0.8936 -1.1082  0.1030
  106MOL     C631716   5.595   2.064   4.376 -0.3521 -0.0559 -0.6465
  106MOL     C731717   5.685   1.699   4.680  0.1461 -0.0207  0.1139
  106MOL     H831718   5.861   1.815   4.735 -1.7921 -0.6383  1.1627
  106MOL     H931719   5.674   2.170   4.558 -0.4709  0.1061 -0.3783
  106MOL    H1031720   5.768   2.199   4.418 -0.5794 -0.7079  1.0922
  106MOL    H1131721   5.497   2.108   4.394  1.1567  3.1686  0.1419
  106MOL    H1231722   5.623   2.061   4.270  0.1969  0.1536 -0.5123
  106MOL    H1331723   5.572   1.964   4.411  1.1338  0.2257  1.1609
  106MOL    H1431724   5.655   1.731   4.780 -0.6957 -0.2636 -0.0605
  106MOL    H1531725   5.605   1.714   4.608  0.7622  3.5816  0.1080
  106MOL    H1631726   5.864   1.761   4.571  0.3485  1.6509  0.1470
  106MOL    C1731727   5.723   1.544   4.690 -0.5778  0.1278 -0.1192
  106MOL    O1831728   5.809   1.526   4.801 -0.0875 -0.2929  0.5176
  106MOL    C1931729   5.948   1.535   4.786  0.4539 -0.0153  0.2807
  106MOL    O2031730   6.013   1.543   4.678 -0.4934 -0.3471 -0.1415
  106MOL    C2131731   6.021   1.527   4.918 -0.2383 -0.3003  0.2062
  106MOL    C2231732   5.969   1.621   5.033  0.8675  0.0826  0.0128
  106MOL    C2331733   5.606   1.452   4.705 -0.2868 -0.3170  0.2825
  106MOL    H2431734   5.788   1.516   4.607  0.7904 -0.9103  1.2619
  106MOL    H2531735   6.018   1.421   4.944 -0.1699 -0.1708  0.7663
  106MOL    H2631736   6.125   1.556   4.901 -0.6410  0.6774 -0.6436
  106MOL    H2731737   5.941   1.716   4.987  2.6246  1.2878  1.3706
  106MOL    H2831738   5.880   1.585   5.084  1.3045 -0.7565  0.2086
  106MOL    H2931739   6.038   1.641   5.115 -0.0520 -1.8530  1.2920
  106MOL    H3031740   5.621   1.345   4.717  3.5432 -0.0171 -1.2095
  106MOL    H3131741   5.537   1.475   4.786 -1.1369 -2.3414  0.1499
  106MOL    C3231742   5.527   1.444   4.569 -0.0475  0.5290 -0.2929
  106MOL    O3331743   5.588   1.335   4.497 -0.2012 -0.1860 -0.1892
  106MOL    C3431744   5.605   1.330   4.362  0.2042  0.3560  0.6018
  106MOL    O3531745   5.568   1.411   4.278 -0.1266 -0.6870  0.1823
  106MOL    C3631746   5.662   1.191   4.322 -0.2357  0.3724  0.0912
  106MOL    C3731747   5.560   1.083   4.304 -0.0366  0.1963  0.4124
  106MOL    C3831748   5.379   1.407   4.591  0.4897 -0.5895 -0.6630
  106MOL    H3931749   5.530   1.539   4.516 -0.2130 -0.1058 -1.4589
  106MOL    H4031750   5.718   1.212   4.231 -0.2297  1.8696  0.4339
  106MOL    H4131751   5.742   1.171   4.394 -0.6070 -1.6611 -0.0233
  106MOL    H4231752   5.617   0.993   4.281  1.1964  0.6853  1.5240
  106MOL    H4331753   5.507   1.061   4.397 -0.4343 -2.2935 -0.3595
  106MOL    H4431754   5.484   1.104   4.228  1.4941 -0.7240 -1.4183
  106MOL    H4531755   5.346   1.344   4.508  0.4450 -0.3369 -0.8365
  106MOL    H4631756   5.360   1.351   4.682 -1.1274 -0.9595 -1.2271
  106MOL    C4731757   5.285   1.529   4.601 -0.5728 -0.1090  0.1929
  106MOL    O4831758   5.255   1.572   4.472  0.7098  0.2341 -0.8024
  106MOL    C4931759   5.321   1.677   4.407 -0.2188 -0.4037  0.9826
  106MOL    O5031760   5.410   1.750   4.453  0.7563 -0.1496  0.4375
  106MOL    C5131761   5.245   1.705   4.280  0.0705 -0.6347  0.2278
  106MOL    C5231762   5.253   1.589   4.184 -0.3081  0.0502 -0.3335
  106MOL    C5331763   5.153   1.490   4.678 -0.3045 -0.1530  0.6381
  106MOL    H5431764   5.346   1.605   4.650  1.1502 -1.6369  0.4779
  106MOL    H5531765   5.141   1.729   4.306  0.3803 -0.9211  1.7542
  106MOL    H5631766   5.286   1.794   4.232 -3.0891  1.0289  0.4643
  106MOL    H5731767   5.352   1.570   4.142 -0.3618  0.1391 -0.4991
  106MOL    H5831768   5.214   1.502   4.237  1.2939 -0.0584  0.7402
  106MOL    H5931769   5.192   1.614   4.098  2.9670 -0.3456 -2.8937
  106MOL    H6031770   5.110   1.407   4.622 -0.2175  1.0902 -1.3198
  106MOL    H6131771   5.182   1.439   4.770  1.6162  0.7592  0.5647
  106MOL    C6231772   5.064   1.609   4.712  0.0740 -0.1711  0.7081
  106MOL    O6331773   4.990   1.646   4.599  0.1232 -0.2044 -0.0382
  106MOL    C6431774   4.982   1.781   4.559 -0.2979  0.7575 -0.5312
  106MOL    O6531775   5.024   1.875   4.625  0.0510  0.4547  0.3148
  106MOL    C6631776   4.906   1.805   4.431  0.4120 -0.2802  0.1469
  106MOL    C6731777   4.770   1.870   4.457 -0.5367 -0.1441  0.1697
  106MOL    C6831778   4.965   1.589   4.827 -0.6923  0.2279  0.1863
  106MOL    H6931779   5.137   1.682   4.747  0.5712  0.7496 -2.1298
  106MOL    H7031780   4.970   1.873   4.374  1.4454 -1.0109  0.4211
  106MOL    H7131781   4.911   1.708   4.383 -0.8368 -0.5910  0.6381
  106MOL    H7231782   4.719   1.803   4.526 -1.1166  0.0813 -0.0356
  106MOL    H7331783   4.777   1.969   4.502 -0.3832 -1.8425  4.0508
  106MOL    H7431784   4.714   1.885   4.364 -0.2494 -0.6360 -0.0850
  106MOL    H7531785   4.906   1.679   4.837  0.2236  0.8006  0.4772
  106MOL    H7631786   4.893   1.511   4.801  1.1343 -1.6484  0.6335
  106MOL    C7731787   5.021   1.559   4.968  0.5453  0.0379 -0.0443
  106MOL    O7831788   5.067   1.422   4.972  0.1837 -0.9960  0.3205
  106MOL    C7931789   4.977   1.320   4.958  0.0087 -0.6038  0.4404
  106MOL    O8031790   4.851   1.326   4.958 -0.0455 -0.5725 -0.3289
  106MOL    C8131791   5.044   1.188   4.949  0.4394 -0.2335 -0.2680
  106MOL    C8231792   5.004   1.116   4.812  0.1095 -0.2572 -0.5796
  106MOL    C8331793   5.137   1.652   5.013 -0.1641 -0.4466 -0.1599
  106MOL    H8431794   4.934   1.563   5.032 -1.3369 -1.4911 -2.4186
  106MOL    H8531795   5.152   1.197   4.959  0.5933 -2.6259  0.5408
  106MOL    H8631796   5.004   1.130   5.032 -1.7765  1.9473  0.2398
  106MOL    H8731797   5.091   1.088   4.752  0.3126 -0.2164 -0.3079
  106MOL    H8831798   4.959   1.020   4.835  0.3597 -0.7394 -2.0615
  106MOL    H8931799   4.934   1.170   4.749 -0.3375 -0.6979 -0.4626
  106MOL    H9031800   5.184   1.610   5.102  1.5204  1.1376 -0.2879
  106MOL    H9131801   5.213   1.639   4.936  0.3673  1.1364  0.0876
  106MOL    C9231802   5.109   1.796   5.057 -0.0397 -0.2042 -0.7835
  106MOL    O9331803   5.004   1.790   5.154  0.0429 -0.1104 -0.0294
  106MOL    C9431804   4.931   1.906   5.183 -0.1939  0.3092 -0.3168
  106MOL    O9531805   4.955   2.020   5.136  0.0192  0.0229  0.4284
  106MOL    C9631806   4.835   1.881   5.292  0.3357  0.3008 -0.0068
  106MOL    C9731807   4.885   1.795   5.416 -0.2541  0.0805 -0.2189
  106MOL    C9831808   5.241   1.858   5.124 -0.5917  0.4399  0.6316
  106MOL    H9931809   5.088   1.856   4.969 -2.7225  1.8156  1.1549
  106MOL   H10031810   4.794   1.977   5.323  1.2598  0.7060 -0.0031
  106MOL   H10131811   4.763   1.817   5.242  1.6838 -1.8418  0.7631
  106MOL   H10231812   4.801   1.754   5.472 -0.5613  1.6444  0.4771
  106MOL   H10331813   4.940   1.711   5.372 -1.5777 -0.3789 -1.0547
  106MOL   H10431814   4.957   1.850   5.476 -1.2273  1.4539 -0.2866
  106MOL   H10531815   5.223   1.957   5.167  0.0666  0.7983  0.0838
  106MOL   H10631816   5.257   1.804   5.217  0.7084 -2.0034 -0.9750
  106MOL   C10731817   5.357   1.858   5.026  0.0014  0.1430  0.3724
  106MOL   O10831818   5.319   1.947   4.917  0.0647 -0.2970 -0.6305
  106MOL   C10931819   5.350   1.918   4.796 -0.2535 -0.5910 -0.4720
  106MOL   O11031820   5.416   1.820   4.768 -0.0863  0.3473 -0.0141
  106MOL   C11131821   5.300   2.017   4.683  0.1502  0.5259  0.2220
  106MOL   C11231822   5.376   2.143   4.691 -0.0670  0.0591 -0.2384
  106MOL   C11331823   5.489   1.910   5.082  0.6484 -0.3592  0.2643
  106MOL   H11431824   5.370   1.758   4.986 -0.1033 -0.2443  1.3176
  106MOL   H11531825   5.292   1.989   4.578  1.0060  0.9379  0.0412
  106MOL   H11631826   5.198   2.051   4.701  0.8390  2.9078 -0.1922
  106MOL   H11731827   5.435   2.147   4.783 -0.7582 -0.1713  0.2177
  106MOL   H11831828   5.455   2.138   4.617 -2.3427 -0.8314 -2.6845
  106MOL   H11931829   5.325   2.238   4.674 -0.3357 -0.1230 -0.4617
  106MOL   H12031830   5.552   1.940   4.998 -0.3702  1.2266  0.0424
  106MOL   H12131831   5.471   2.008   5.126  1.5302 -0.9432  1.9593
  106MOL   C12231832   5.573   1.818   5.170  0.0660  0.0999  0.3153
  106MOL   O12331833   5.571   1.688   5.107 -0.9979 -0.4476  0.0173
  106MOL   C12431834   5.540   1.584   5.179  0.6141 -0.5833  0.0612
  106MOL   O12531835   5.501   1.591   5.296  0.4916 -0.3583 -0.3075
  106MOL   C12631836   5.562   1.455   5.096 -0.7970  0.1412 -1.1607
  106MOL   C12731837   5.429   1.394   5.051 -0.1696 -0.2236 -0.1621
  106MOL   C12831838   5.710   1.889   5.191 -0.9406  0.6042  0.2534
  106MOL   H12931839   5.527   1.824   5.268  2.7839  1.6017  1.5557
  106MOL   H13031840   5.631   1.477   5.014  2.7155 -1.7716  1.1968
  106MOL   H13131841   5.614   1.379   5.153  0.6499  1.0381 -1.2620
  106MOL   H13231842   5.380   1.347   5.136  0.8172 -2.6808 -0.9138
  106MOL   H13331843   5.365   1.473   5.011  0.7102  0.0756 -1.0085
  106MOL   H13431844   5.436   1.322   4.969  0.3646  0.8208 -1.0532
  106MOL   H13531845   5.781   1.858   5.115  0.5097  1.4050  1.2618
  106MOL   H13631846   5.702   1.996   5.174  1.9443  0.9300  0.7962
  106MOL   C13731847   5.766   1.869   5.337 -1.1534 -1.0334  0.6585
  106MOL   O13831848   5.788   1.733   5.356 -0.2689  0.6759  0.3172
  106MOL   C13931849   5.756   1.675   5.477 -0.0887 -0.9674 -0.2546
  106MOL   O14031850   5.691   1.726   5.567 -0.6376 -0.0866  0.0992
  106MOL   C14131851   5.807   1.535   5.490  0.1590  0.5648  0.4001
  106MOL   C14231852   5.785   1.445   5.369  0.6466 -0.1325 -0.4128
  106MOL   C14331853   5.905   1.930   5.372  0.0156 -0.4616  0.1594
  106MOL   H14431854   5.689   1.903   5.407  0.8145  0.4031  2.1947
  106MOL   H14531855   5.912   1.532   5.518  0.3024 -1.3433 -0.2475
  106MOL   H14631856   5.760   1.496   5.581 -0.4624  3.3340  1.3356
  106MOL   H14731857   5.804   1.496   5.275  0.5139  0.5756 -0.0585
  106MOL   H14831858   5.853   1.360   5.367  1.7603  0.6551  1.7098
  106MOL   H14931859   5.680   1.415   5.367  0.1301  1.5731 -0.0575
  106MOL   H15031860   5.948   1.890   5.464  0.2970 -2.5268 -0.8498
  106MOL   H15131861   5.974   1.906   5.291  2.1575  3.2684  0.7848
  106MOL   C15231862   5.884   2.082   5.375 -0.0790 -0.4250  0.3844
  106MOL   O15331863   5.818   2.122   5.493  0.2732 -0.4204  0.0542
  106MOL   C15431864   5.691   2.155   5.490 -0.4100  0.1079 -0.1185
  106MOL   O15531865   5.607   2.130   5.404 -0.4844  0.3396 -0.1660
  106MOL   C15631866   5.657   2.231   5.617  0.0497  0.1542  0.5547
  106MOL   C15731867   5.632   2.382   5.597  0.5668  0.4062  0.1261
  106MOL   C15831868   6.009   2.167   5.379 -0.8458 -0.6453 -0.3439
  106MOL   H15931869   5.828   2.104   5.283  0.6656  0.4818  0.1386
  106MOL   H16031870   5.569   2.184   5.662 -0.9476  1.2808 -0.1597
  106MOL   H16131871   5.734   2.221   5.692  2.0634  1.7359 -1.2347
  106MOL   H16231872   5.723   2.442   5.603 -0.1528  1.6697 -1.0639
  106MOL   H16331873   5.588   2.404   5.499  0.3153 -0.9788 -0.0733
  106MOL   H16431874   5.557   2.420   5.666  0.5095  2.0431 -0.7863
  106MOL   H16531875   5.991   2.275   5.386 -0.3722 -0.5178 -0.9604
  106MOL   H16631876   6.059   2.134   5.470  1.9019  1.6103 -0.9493
  106MOL   C16731877   6.093   2.160   5.245  0.0511  0.0332  0.6066
  106MOL   O16831878   6.037   2.242   5.140 -0.3440 -0.3885  0.3702
  106MOL   C16931879   5.980   2.187   5.033  0.0172  0.0619 -0.2322
  106MOL   O17031880   5.946   2.071   5.011 -0.5352  0.5090  0.4435
  106MOL   C17131881   5.938   2.295   4.930  0.3188  0.2150  1.0525
  106MOL   C17231882   5.914   2.224   4.791  0.3446 -0.5316 -0.3009
  106MOL   C17331883   6.237   2.209   5.267  0.0593  0.5580  0.2410
  106MOL   H17431884   6.086   2.058   5.206 -1.5895  0.6897 -0.8803
  106MOL   H17531885   5.849   2.348   4.963  0.6308  1.2980  0.2085
  106MOL   H17631886   6.031   2.353   4.924  1.2373 -1.4467 -2.1245
  106MOL   H17731887   6.002   2.169   4.756 -0.3342 -1.9222  0.1668
  106MOL   H17831888   5.843   2.144   4.812  1.4123 -1.0996  1.2078
  106MOL   H17931889   5.883   2.299   4.718 -0.6439 -0.6059  0.0386
  106MOL   H18031890   6.294   2.207   5.174 -0.3380  4.3445 -0.1505
  106MOL   H18131891   6.222   2.313   5.296  0.2611  0.5153  0.4982
  106MOL   C18231892   6.316   2.135   5.371  0.3323 -0.1821  0.0665
  106MOL   O18331893   6.322   1.992   5.339 -0.1629 -0.0138 -0.3954
  106MOL   C18431894   6.277   1.906   5.425 -0.4894  0.1385 -0.0016
  106MOL   O18531895   6.218   1.932   5.531  0.5216 -0.1334  0.7675
  106MOL   C18631896   6.312   1.759   5.380  0.1115  0.4329 -0.2901
  106MOL   C18731897   6.459   1.719   5.411  0.8587  0.4774 -0.7171
  106MOL   C18831898   6.455   2.196   5.369  0.0886  0.0025  0.6492
  106MOL   H18931899   6.269   2.162   5.466  0.3057  2.8785 -0.7696
  106MOL   H19031900   6.237   1.689   5.419 -1.3589  1.4845 -1.1460
  106MOL   H19131901   6.296   1.764   5.272 -1.1437  1.3484 -0.0719
  106MOL   H19231902   6.498   1.748   5.508 -2.7899  1.6120  0.4672
  106MOL   H19331903   6.492   1.618   5.386 -1.2874 -0.5222  0.3790
  106MOL   H19431904   6.524   1.772   5.340  1.0377  0.4552 -0.5716
  106MOL   H19531905   6.511   2.172   5.279 -0.4289  2.0076 -0.2152
  106MOL   H19631906   6.449   2.304   5.381  3.3497 -0.1241  4.3206
  106MOL   C19731907   6.538   2.140   5.486 -0.7368  0.6233  0.3840
  106MOL   O19831908   6.668   2.170   5.444 -0.8022 -0.1657  0.1611
  106MOL   C19931909   6.741   2.070   5.378 -0.7867  0.9941 -0.3325
  106MOL   O20031910   6.709   1.952   5.357  0.0019 -0.1714  0.0530
  106MOL   C20131911   6.875   2.124   5.337  0.0145 -0.1387  0.3235
  106MOL   C20231912   6.990   2.102   5.441  0.3563  0.0886  0.6488
  106MOL   C20331913   6.494   2.186   5.628 -0.1367  0.1367 -0.0438
  106MOL   H20431914   6.521   2.032   5.490 -0.8421  0.6125 -0.2648
  106MOL   H20531915   6.902   2.057   5.255 -3.0805 -3.2756  1.7464
  106MOL   H20631916   6.866   2.226   5.298  0.7087 -0.6926 -1.3128
  106MOL   H20731917   7.089   2.112   5.397  0.6732 -0.6884  1.1903
  106MOL   H20831918   6.979   2.177   5.520  1.2631  1.7783 -0.7938
  106MOL   H20931919   6.979   2.002   5.483 -1.2557  0.5318  1.3509
  106MOL   H21031920   6.465   2.291   5.636  0.1940  0.2231  0.0313
  106MOL   H21131921   6.399   2.144   5.663 -0.6043 -0.1606 -1.6638
  106MOL   C21231922   6.596   2.160   5.743 -0.6001 -0.0665  0.6682
  106MOL   O21331923   6.538   2.217   5.859 -0.3037 -0.1649 -0.2945
  106MOL   C21431924   6.613   2.292   5.940 -1.5902 -0.8784  0.2668
  106MOL   O21531925   6.735   2.317   5.932 -0.1106  0.0607  0.0675
  106MOL   C21631926   6.539   2.348   6.061 -0.0010 -0.6641  0.0467
  106MOL   C21731927   6.483   2.235   6.153 -0.1514  0.1975  0.0509
  106MOL   C21831928   6.631   2.018   5.757 -0.1625  0.2676  0.3975
  106MOL   H21931929   6.685   2.221   5.724 -0.1978 -1.0871 -0.8072
  106MOL   H22031930   6.603   2.405   6.128  1.6686 -0.6670 -1.4879
  106MOL   H22131931   6.463   2.416   6.022  1.2661 -0.5262 -2.2496
  106MOL   H22231932   6.411   2.179   6.094 -1.9406  2.6309 -0.1710
  106MOL   H22331933   6.562   2.171   6.191 -1.3003 -1.4640 -0.3084
  106MOL   H22431934   6.422   2.273   6.236 -0.2479 -0.4724  0.2879
  106MOL   H22531935   6.542   1.965   5.792  0.0148 -1.1661 -1.2743
  106MOL   H22631936   6.643   1.980   5.656 -2.1383  0.0253  0.2228
  106MOL   C22731937   6.750   1.984   5.847  0.6208  0.4000  0.1474
  106MOL   O22831938   6.751   1.844   5.885 -0.2341 -0.4478  0.3718
  106MOL   C22931939   6.764   1.809   6.019  0.3070 -0.1218  0.0978
  106MOL   O23031940   6.801   1.881   6.106 -0.3158  0.1096 -0.4120
  106MOL   C23131941   6.702   1.671   6.071 -0.3989 -0.7082  0.4840
  106MOL   C23231942   6.769   1.609   6.199 -0.3619 -0.5429 -0.3963
  106MOL   C23331943   6.882   2.015   5.767 -0.0811  0.2790 -0.3295
  106MOL   H23431944   6.751   2.051   5.933 -0.4271  1.7011 -0.8323
  106MOL   H23531945   6.600   1.690   6.104 -0.0322 -1.4008  2.0373
  106MOL   H23631946   6.699   1.599   5.989  2.4406 -1.6759  1.1902
  106MOL   H23731947   6.865   1.653   6.228 -0.7709  0.7106 -0.9188
  106MOL   H23831948   6.705   1.621   6.286  0.5530 -0.0025  0.2153
  106MOL   H23931949   6.786   1.502   6.186 -1.3102 -0.9417  1.4666
  106MOL   H24031950   6.892   1.938   5.690 -1.1151 -0.3999  0.1971
  106MOL   H24131951   6.888   2.112   5.719 -2.3663  0.0998 -1.0549
  106MOL   C24231952   7.010   2.002   5.861  0.2798  0.0542 -0.5940
  106MOL   O24331953   7.136   2.004   5.790 -0.4065  0.6870 -0.3299
  106MOL   C24431954   7.169   1.902   5.713 -1.3867  0.5506 -0.2282
  106MOL   O24531955   7.104   1.796   5.705  0.6790 -0.4559  0.4068
  106MOL   C24631956   7.309   1.923   5.642 -0.3577  0.0668 -0.3741
  106MOL   C24731957   7.339   2.061   5.605  0.9813  0.0850  0.0901
  106MOL   C24831958   7.022   2.124   5.951  0.1855 -0.4142  0.4928
  106MOL   H24931959   6.998   1.916   5.927  0.7815 -0.2308 -0.8758
  106MOL   H25031960   7.392   1.882   5.700  0.9633 -2.2233 -3.7516
  106MOL   H25131961   7.318   1.862   5.553 -0.1000  1.6202 -1.4325
  106MOL   H25231962   7.334   2.136   5.684 -1.3333  0.0154  0.0443
  106MOL   H25331963   7.440   2.060   5.563  1.4734  0.2745  1.2428
  106MOL   H25431964   7.275   2.088   5.522  0.2610  0.8809  0.9008
  106MOL   H25531965   7.053   2.217   5.903  0.5996 -0.5934  0.4099
  106MOL   H25631966   6.924   2.142   5.996  0.2873  0.9369  0.1929
  106MOL   C25731967   7.129   2.108   6.059  0.4738 -0.3387  0.2687
  106MOL   O25831968   7.161   2.238   6.117  0.7819  0.4631  0.2723
  106MOL   C25931969   7.238   2.331   6.051 -0.8503  0.2224  0.5342
  106MOL   O26031970   7.315   2.302   5.950  0.7312 -0.2701  0.7296
  106MOL   C26131971   7.230   2.474   6.108  0.1174  0.6723 -0.3370
  106MOL   C26231972   7.183   2.588   6.014  0.2973 -0.3653 -1.2010
  106MOL   C26331973   7.087   2.012   6.170  0.5862  0.6849 -0.5386
  106MOL   H26431974   7.219   2.080   6.003 -1.3925 -3.1887 -1.4116
  106MOL   H26531975   7.169   2.478   6.198  0.8835 -0.3656  0.2474
  106MOL   H26631976   7.331   2.488   6.147 -0.4756 -0.9333  1.8616
  106MOL   H26731977   7.234   2.584   5.917 -0.2443 -0.5688 -1.4771
  106MOL   H26831978   7.076   2.590   5.991 -0.5915 -1.2746  2.6136
  106MOL   H26931979   7.191   2.674   6.081  1.0263 -1.0601 -0.3837
  106MOL   H27031980   6.990   2.036   6.214  1.6019  2.7787  0.6875
  106MOL   H27131981   7.089   1.915   6.121 -0.7439  0.7388 -0.7250
  106MOL   C27231982   7.186   1.994   6.286 -0.1834 -0.2177 -0.3566
  106MOL   O27331983   7.136   1.890   6.377 -0.0694  0.1244  0.2788
  106MOL   C27431984   7.110   1.915   6.504 -0.1465  0.3666  0.0001
  106MOL   O27531985   7.115   2.025   6.556  1.0114  0.3266  0.2467
  106MOL   C27631986   7.075   1.791   6.585 -0.2844  0.1310 -0.7841
  106MOL   C27731987   7.180   1.760   6.694 -0.6692  0.0066  0.8168
  106MOL   C27831988   7.316   1.945   6.231  0.6210  0.1314  0.2614
  106MOL   H27931989   7.208   2.085   6.341  1.2897 -0.5129 -0.4478
  106MOL   H28031990   6.976   1.819   6.621 -0.0147  1.0289 -0.7314
  106MOL   H28131991   7.064   1.710   6.513 -1.8150  0.9010 -1.4427
  106MOL   H28231992   7.200   1.845   6.760  0.7976  0.8705 -0.6961
  106MOL   H28331993   7.153   1.682   6.764 -0.5830 -0.5648  0.2140
  106MOL   H28431994   7.265   1.716   6.641 -0.0261 -0.9456  2.6088
  106MOL   H28531995   7.294   1.853   6.176  1.0209  0.3454 -0.2672
  106MOL   H28631996   7.354   2.026   6.168  1.9189  0.6685  1.7160
  106MOL   C28731997   7.427   1.919   6.332 -0.7937  0.0197  0.9686
  106MOL   O28831998   7.509   1.817   6.289 -0.4462 -0.0638  0.3003
  106MOL   C28931999   7.515   1.702   6.357  0.4884  0.2120 -0.2655
  106MOL   O29032000   7.478   1.679   6.474 -0.1690 -0.4788  0.3751
  106MOL   C29132001   7.572   1.593   6.271 -0.4279 -0.0406 -0.3045
  106MOL   C29232002   7.517   1.462   6.323  0.2034  0.0174  0.2416
  106MOL   C29332003   7.506   2.045   6.360  0.4206  0.3670 -0.3874
  106MOL   H29432004   7.386   1.900   6.431  1.7646  0.9328  2.2475
  106MOL   H29532005   7.532   1.601   6.170  0.4448  1.6161 -0.5407
  106MOL   H29632006   7.680   1.599   6.261 -0.4111  0.2293  0.0194
  106MOL   H29732007   7.552   1.376   6.266  1.0411  0.8115 -0.4629
  106MOL   H29832008   7.526   1.456   6.432  0.1548 -2.5474  0.1278
  106MOL   H29932009   7.408   1.457   6.325  0.2596 -1.6997 -0.0804
  106MOL   H30032010   7.587   2.033   6.432 -2.0170  0.6374  2.4851
  106MOL   H30132011   7.559   2.071   6.268  0.3170  0.9543 -0.2814
  106MOL   H30232012   7.446   2.134   6.377 -0.0399  0.2912 -1.5357
  107MOL     C132013   2.765   3.712   3.052  0.2886  0.1738  0.6253
  107MOL     O232014   2.754   3.823   3.141  0.7307 -0.3134  1.0479
  107MOL     C332015   2.828   3.824   3.260 -0.3498 -0.2605 -0.5841
  107MOL     O432016   2.905   3.738   3.290 -0.8015 -0.7679  0.5766
  107MOL     C532017   2.794   3.948   3.351 -0.2316 -0.2914 -0.2686
  107MOL     C632018   2.895   3.991   3.455  0.5536 -0.8035 -0.2831
  107MOL     C732019   2.868   3.746   2.943 -0.0060 -0.0148 -0.0046
  107MOL     H832020   2.664   3.693   3.014 -0.1910  2.5811  0.6310
  107MOL     H932021   2.770   4.033   3.287 -1.1800 -1.2099 -1.1290
  107MOL    H1032022   2.707   3.920   3.409  1.4092 -0.6049  2.1017
  107MOL    H1132023   2.881   4.095   3.485 -1.4797 -0.9267 -0.6953
  107MOL    H1232024   2.886   3.923   3.540 -0.1549  0.6532  0.8254
  107MOL    H1332025   2.994   4.004   3.411 -0.1408  1.0554 -1.3919
  107MOL    H1432026   2.871   3.854   2.927 -1.8523  0.0430 -0.0792
  107MOL    H1532027   2.970   3.728   2.978 -0.2937  0.8256  1.3145
  107MOL    H1632028   2.802   3.621   3.099  0.7032  0.6942  1.3147
  107MOL    C1732029   2.875   3.652   2.823  0.1298 -0.0678  0.3104
  107MOL    O1832030   2.764   3.683   2.743  0.7692  0.3385 -0.0116
  107MOL    C1932031   2.676   3.589   2.690 -0.6191 -0.6683 -0.1244
  107MOL    O2032032   2.670   3.469   2.722  0.2163  0.0732  0.3670
  107MOL    C2132033   2.593   3.648   2.572  0.2912  0.6940  0.3939
  107MOL    C2232034   2.569   3.541   2.460  0.0717 -0.0982  0.0444
  107MOL    C2332035   2.994   3.698   2.734 -0.2323 -0.2584 -0.6153
  107MOL    H2432036   2.867   3.549   2.858  0.9206 -0.8242 -1.6335
  107MOL    H2532037   2.502   3.688   2.616  0.5309  1.8696 -0.1633
  107MOL    H2632038   2.650   3.737   2.545 -2.7685  2.0571 -1.8227
  107MOL    H2732039   2.663   3.521   2.408 -0.7419 -0.5981 -1.2799
  107MOL    H2832040   2.528   3.445   2.492  0.9471  0.2252  2.2034
  107MOL    H2932041   2.494   3.579   2.390  0.4961  0.3149 -0.1859
  107MOL    H3032042   2.963   3.760   2.650 -3.1097 -0.2390  0.4251
  107MOL    H3132043   3.054   3.770   2.790 -0.0398 -0.9731  0.0996
  107MOL    C3232044   3.085   3.590   2.676 -0.2592 -0.0259 -0.0251
  107MOL    O3332045   3.150   3.513   2.779  0.4029 -0.1082  0.2802
  107MOL    C3432046   3.279   3.547   2.819 -0.8179  0.4587 -0.2353
  107MOL    O3532047   3.349   3.632   2.766 -0.1296  0.4078  0.7534
  107MOL    C3632048   3.335   3.458   2.930  0.1034 -0.1628  0.6050
  107MOL    C3732049   3.360   3.539   3.058  0.1265  0.2309  0.7433
  107MOL    C3832050   3.009   3.497   2.587  0.3308  0.1085 -0.0089
  107MOL    H3932051   3.161   3.642   2.617  0.0368  1.4274  1.5898
  107MOL    H4032052   3.285   3.362   2.927 -1.1502  0.5099 -1.0128
  107MOL    H4132053   3.433   3.424   2.899 -0.2287  0.0802 -0.7255
  107MOL    H4232054   3.422   3.491   3.134  0.3534  0.2385  0.5647
  107MOL    H4332055   3.420   3.625   3.032  0.8121 -0.6893 -0.8018
  107MOL    H4432056   3.271   3.579   3.107  0.3920 -0.8763  2.1635
  107MOL    H4532057   2.948   3.436   2.654 -3.2994  0.6068 -2.7048
  107MOL    H4632058   2.931   3.549   2.531 -1.0083  0.5716  2.1980
  107MOL    C4732059   3.084   3.393   2.506  0.7981 -0.5967  0.2995
  107MOL    O4832060   2.993   3.291   2.450  0.1374 -0.1299  0.5888
  107MOL    C4932061   2.949   3.186   2.520  0.7981  0.5779  0.1212
  107MOL    O5032062   2.981   3.153   2.633 -0.5329  0.1238 -0.3628
  107MOL    C5132063   2.855   3.090   2.433  0.2256  0.3005 -0.3621
  107MOL    C5232064   2.728   3.164   2.393 -0.3290 -0.4208 -0.1043
  107MOL    C5332065   3.168   3.467   2.401  0.2023  0.9042  0.3277
  107MOL    H5432066   3.156   3.338   2.568  1.2789  0.1612  0.4218
  107MOL    H5532067   2.913   3.047   2.351  0.8534  1.6923 -0.6537
  107MOL    H5632068   2.835   3.005   2.498  1.4716  0.5709  0.3771
  107MOL    H5732069   2.732   3.234   2.309 -1.0681 -0.4162 -0.1350
  107MOL    H5832070   2.652   3.090   2.368  0.3632 -1.7679  1.7002
  107MOL    H5932071   2.692   3.221   2.479 -1.8542 -0.5959 -0.6183
  107MOL    H6032072   3.235   3.540   2.447  0.5596  0.1252  1.0459
  107MOL    H6132073   3.244   3.394   2.372  0.0740  1.1979 -0.7648
  107MOL    C6232074   3.093   3.524   2.280 -0.0412 -0.1274 -0.0820
  107MOL    O6332075   3.165   3.637   2.235 -0.2830  0.2518  0.4619
  107MOL    C6432076   3.134   3.768   2.278  0.9995  0.3142 -0.0370
  107MOL    O6532077   3.054   3.795   2.370 -0.4704 -0.7455 -0.3305
  107MOL    C6632078   3.244   3.868   2.234  0.3585  0.2317 -0.0421
  107MOL    C6732079   3.366   3.840   2.310  0.0148 -0.3779  0.3464
  107MOL    C6832080   3.087   3.427   2.166 -0.4418  0.1626 -0.4865
  107MOL    H6932081   2.994   3.550   2.315  1.0585  1.2840  2.0962
  107MOL    H7032082   3.279   3.856   2.131 -1.3753  1.5909 -0.8180
  107MOL    H7132083   3.211   3.972   2.230  1.3868  0.5571 -0.1052
  107MOL    H7232084   3.452   3.891   2.266  0.2156  0.4057  1.6397
  107MOL    H7332085   3.343   3.872   2.411  1.6881  1.6418  0.1317
  107MOL    H7432086   3.389   3.733   2.306 -0.9965 -0.5469 -1.7089
  107MOL    H7532087   3.178   3.432   2.107 -1.7210 -1.3765 -2.6537
  107MOL    H7632088   3.078   3.323   2.196  3.2111 -1.3903 -4.2518
  107MOL    C7732089   2.978   3.471   2.065 -0.0826 -0.2418  0.5632
  107MOL    O7832090   3.011   3.423   1.933 -0.0353  0.2400 -0.4722
  107MOL    C7932091   3.056   3.509   1.838 -0.2059  0.1810  0.4956
  107MOL    O8032092   3.061   3.629   1.846 -0.0196 -0.1296 -0.1215
  107MOL    C8132093   3.108   3.437   1.718 -0.1012 -0.2006 -0.3898
  107MOL    C8232094   3.258   3.456   1.688 -0.8340 -0.1926  0.1093
  107MOL    C8332095   2.834   3.424   2.117 -1.1313  0.2942  0.3362
  107MOL    H8432096   2.980   3.579   2.053  1.3356 -0.2002  1.0488
  107MOL    H8532097   3.080   3.335   1.747  1.5845 -1.0229 -1.5741
  107MOL    H8632098   3.044   3.453   1.631 -1.9747 -1.5155  0.7089
  107MOL    H8732099   3.312   3.496   1.773  0.6236 -0.6205 -0.6106
  107MOL    H8832100   3.294   3.354   1.672 -1.9120 -0.8094  1.4549
  107MOL    H8932101   3.277   3.519   1.602 -0.1142 -0.4824  0.0532
  107MOL    H9032102   2.831   3.315   2.116 -2.7875  0.3262  1.0844
  107MOL    H9132103   2.819   3.436   2.224 -1.1714 -0.9225  0.4701
  107MOL    C9232104   2.711   3.500   2.057  0.3295  0.3434 -0.2285
  107MOL    O9332105   2.730   3.643   2.087 -0.1986 -0.2959 -0.5216
  107MOL    C9432106   2.624   3.711   2.134 -0.0690 -0.0435  0.4826
  107MOL    O9532107   2.514   3.665   2.142 -0.2200  0.5607  0.0561
  107MOL    C9632108   2.646   3.857   2.164  0.4133  0.7155  0.6283
  107MOL    C9732109   2.786   3.885   2.227  0.6486 -0.4281 -0.0435
  107MOL    C9832110   2.685   3.489   1.907 -0.1483 -0.1238  0.4049
  107MOL    H9932111   2.622   3.464   2.107  1.3953 -0.7509  0.9235
  107MOL   H10032112   2.628   3.916   2.074 -0.5898  1.2795  1.1775
  107MOL   H10132113   2.572   3.887   2.239  0.7107  2.1268  0.3757
  107MOL   H10232114   2.788   3.846   2.329 -1.8036 -1.4977 -0.3651
  107MOL   H10332115   2.874   3.846   2.175 -0.2801 -3.1493  0.3336
  107MOL   H10432116   2.802   3.991   2.243  0.8850 -0.6878  1.4860
  107MOL   H10532117   2.615   3.570   1.885  1.0562  1.2538  1.4788
  107MOL   H10632118   2.769   3.511   1.841  0.1001 -2.5120 -0.0947
  107MOL   C10732119   2.639   3.349   1.869  0.2032  0.7324 -0.3871
  107MOL   O10832120   2.517   3.322   1.944  0.0329  0.0877  0.1567
  107MOL   C10932121   2.504   3.240   2.047 -0.7544 -0.3080  0.0328
  107MOL   O11032122   2.599   3.186   2.104  0.2086 -0.1932  0.0973
  107MOL   C11132123   2.357   3.220   2.086  0.0274  0.7414  0.1461
  107MOL   C11232124   2.313   3.321   2.203  0.2283  0.0605 -0.0721
  107MOL   C11332125   2.607   3.331   1.720  0.0848  0.3555 -0.6327
  107MOL   H11432126   2.714   3.273   1.892 -0.1029  0.5051 -0.1308
  107MOL   H11532127   2.286   3.216   2.004 -0.9419 -1.6242  1.0629
  107MOL   H11632128   2.355   3.116   2.118  1.1640  0.8170  0.4957
  107MOL   H11732129   2.324   3.420   2.159  0.9366 -0.1334 -0.3458
  107MOL   H11832130   2.215   3.294   2.240 -0.2393 -1.3973 -2.2837
  107MOL   H11932131   2.382   3.323   2.288  0.7846  2.6294 -0.5334
  107MOL   H12032132   2.570   3.229   1.708  3.6838 -0.9595 -1.1435
  107MOL   H12132133   2.526   3.399   1.692 -1.3677 -0.9293  0.3439
  107MOL   C12232134   2.716   3.323   1.611 -0.5693  0.2238  0.5293
  107MOL   O12332135   2.780   3.454   1.595 -0.0530 -0.3935  0.1317
  107MOL   C12432136   2.807   3.504   1.471 -0.0720 -0.0589 -0.4210
  107MOL   O12532137   2.781   3.442   1.364 -0.4366 -0.4069  0.0585
  107MOL   C12632138   2.853   3.648   1.479  0.0934 -0.0202  0.1571
  107MOL   C12732139   3.004   3.670   1.469  0.3513  0.0565  0.3480
  107MOL   C12832140   2.827   3.218   1.629 -0.4416  0.7425  0.1222
  107MOL   H12932141   2.666   3.299   1.517  0.0928 -2.3616  0.8158
  107MOL   H13032142   2.796   3.710   1.410 -1.4753 -0.1585  1.2932
  107MOL   H13132143   2.826   3.695   1.574  2.1673  2.5139 -0.4371
  107MOL   H13232144   3.038   3.714   1.563  1.4060 -1.2479  0.5952
  107MOL   H13332145   3.058   3.576   1.454 -1.4020 -1.0384  0.8006
  107MOL   H13432146   3.037   3.736   1.389 -1.1950  0.5277  0.0966
  107MOL   H13532147   2.886   3.247   1.716  0.6738 -0.2054 -0.2974
  107MOL   H13632148   2.777   3.123   1.651 -1.8151  1.1308 -1.2380
  107MOL   C13732149   2.924   3.184   1.512  0.7355  0.0775 -0.4525
  107MOL   O13832150   3.021   3.103   1.577 -0.4160  0.4395 -0.1399
  107MOL   C13932151   3.150   3.108   1.553  0.2548 -0.1836  0.2461
  107MOL   O14032152   3.207   3.171   1.467  0.8497  0.7874  0.1101
  107MOL   C14132153   3.231   3.050   1.666  0.4365  0.0392  0.0846
  107MOL   C14232154   3.379   3.054   1.646  0.6179  0.3687  0.4713
  107MOL   C14332155   2.855   3.110   1.391  0.8712  0.4167  0.6449
  107MOL   H14432156   2.969   3.280   1.486  0.7509  0.7910  2.0146
  107MOL   H14532157   3.218   3.106   1.759 -0.5320 -0.9091  0.5448
  107MOL   H14632158   3.196   2.949   1.689  0.0531  0.6964  2.5342
  107MOL   H14732159   3.402   3.020   1.544 -1.2796  1.3849 -0.3178
  107MOL   H14832160   3.409   3.158   1.636 -0.0333  0.6796  1.7384
  107MOL   H14932161   3.444   2.994   1.710  0.5355 -0.6578 -0.3784
  107MOL   H15032162   2.805   3.021   1.428  0.4516  1.4497  2.6332
  107MOL   H15132163   2.773   3.174   1.358  2.0527  1.7450  0.2377
  107MOL   C15232164   2.941   3.090   1.267 -0.2285  0.1006 -0.3053
  107MOL   O15332165   2.887   2.989   1.180  0.7898 -0.2148 -0.0273
  107MOL   C15432166   2.914   2.862   1.205  0.4078 -1.1002 -0.5162
  107MOL   O15532167   2.973   2.823   1.307  0.0457  0.1860  0.4901
  107MOL   C15632168   2.847   2.767   1.104  0.9186 -0.4223 -0.2816
  107MOL   C15732169   2.747   2.670   1.170 -0.3142  0.5502  0.4635
  107MOL   C15832170   2.944   3.213   1.175  0.1419  0.6436 -0.1978
  107MOL   H15932171   3.046   3.067   1.285 -0.6083 -1.4361 -0.0347
  107MOL   H16032172   2.814   2.816   1.012 -1.0876  0.3151  0.8136
  107MOL   H16132173   2.931   2.702   1.078  2.3582 -0.0863  3.3144
  107MOL   H16232174   2.795   2.600   1.238 -2.4341  1.2777  2.7667
  107MOL   H16332175   2.671   2.730   1.220  0.0741  2.6592 -1.3657
  107MOL   H16432176   2.707   2.617   1.083 -1.1281  0.1192  1.0970
  107MOL   H16532177   2.839   3.229   1.151 -0.1324 -0.0682  0.4985
  107MOL   H16632178   2.984   3.293   1.237  3.7251 -0.6475 -0.7134
  107MOL   C16732179   3.022   3.192   1.041  0.3798 -0.0054 -0.2162
  107MOL   O16832180   2.981   3.299   0.955 -0.2040 -0.4436 -0.4739
  107MOL   C16932181   2.992   3.285   0.815  0.2366  0.2820  0.7247
  107MOL   O17032182   3.044   3.189   0.761  0.4438  0.5712 -0.2089
  107MOL   C17132183   2.925   3.392   0.734 -0.5091 -0.0069 -0.3029
  107MOL   C17232184   3.032   3.478   0.660 -0.0644  0.1687  0.1870
  107MOL   C17332185   3.173   3.195   1.057  1.0208  0.0394  0.1723
  107MOL   H17432186   2.992   3.100   0.991 -1.1136 -0.8249  2.0904
  107MOL   H17532187   2.857   3.328   0.677  0.0490 -0.2814 -0.6678
  107MOL   H17632188   2.864   3.446   0.806 -0.9976 -1.5432  0.4661
  107MOL   H17732189   3.074   3.558   0.722  1.9810  0.0097 -0.9571
  107MOL   H17832190   3.106   3.426   0.599  1.5526  0.2950  1.9830
  107MOL   H17932191   2.994   3.528   0.571  5.0471 -1.3327 -3.0397
  107MOL   H18032192   3.237   3.238   0.979  0.6684  0.7195  0.2568
  107MOL   H18132193   3.195   3.251   1.148 -2.0516  1.9609 -0.2128
  107MOL   C18232194   3.234   3.059   1.082  0.0234  0.2515  0.3467
  107MOL   O18332195   3.273   2.997   0.957 -0.3569 -0.0324 -0.8044
  107MOL   C18432196   3.208   2.895   0.914  0.5356  0.2292 -0.2767
  107MOL   O18532197   3.104   2.844   0.962  0.4655 -0.1737 -0.1213
  107MOL   C18632198   3.270   2.823   0.799  0.4261  0.7160  0.3241
  107MOL   C18732199   3.420   2.773   0.821  0.1190 -0.2499 -0.3769
  107MOL   C18832200   3.360   3.044   1.154  0.6927  0.2440 -1.0204
  107MOL   H18932201   3.144   3.013   1.125  0.2405  0.6228  1.2083
  107MOL   H19032202   3.222   2.727   0.778 -1.8045  2.1476 -1.3964
  107MOL   H19132203   3.262   2.886   0.711  1.4303 -0.5511 -0.7079
  107MOL   H19232204   3.478   2.858   0.857  0.4163 -0.7765  0.3943
  107MOL   H19332205   3.445   2.688   0.885 -0.7233 -0.1693  0.0748
  107MOL   H19432206   3.459   2.758   0.720 -1.6231 -1.7052 -0.8629
  107MOL   H19532207   3.434   3.101   1.099  0.8577  1.3498  0.3098
  107MOL   H19632208   3.356   3.096   1.250  1.4889 -0.0723 -0.8091
  107MOL   C19732209   3.418   2.901   1.179  0.3354 -0.6318  0.2759
  107MOL   O19832210   3.531   2.921   1.264 -0.3417 -1.1364 -0.2691
  107MOL   C19932211   3.647   2.859   1.243 -0.1471  0.4095  0.1464
  107MOL   O20032212   3.668   2.772   1.159  0.0512 -0.0053  0.6292
  107MOL   C20132213   3.759   2.896   1.343  0.0459  0.1281  0.0974
  107MOL   C20232214   3.707   2.885   1.488  0.2943 -0.5352 -0.2381
  107MOL   C20332215   3.314   2.820   1.265 -0.0489  0.8215 -0.1519
  107MOL   H20432216   3.435   2.848   1.085 -1.5549  0.1998 -0.5645
  107MOL   H20532217   3.835   2.822   1.320 -1.8512 -1.4143 -1.3221
  107MOL   H20632218   3.788   3.000   1.324  2.4352 -0.6109 -0.5354
  107MOL   H20732219   3.780   2.904   1.567  0.0335 -1.1409  0.1487
  107MOL   H20832220   3.635   2.962   1.518  1.4747 -0.3342  2.2133
  107MOL   H20932221   3.664   2.790   1.520  1.1106 -0.0976  2.2685
  107MOL   H21032222   3.292   2.875   1.357  0.2718  0.6447  0.0271
  107MOL   H21132223   3.215   2.827   1.219  0.9265  0.7569 -2.3307
  107MOL   C21232224   3.351   2.671   1.291  0.3896 -0.3963 -0.7110
  107MOL   O21332225   3.267   2.628   1.389 -0.0744  0.5099 -0.5058
  107MOL   C21432226   3.312   2.612   1.519 -0.4703  0.0789  0.3698
  107MOL   O21532227   3.428   2.626   1.560  0.8613  0.0093 -0.0975
  107MOL   C21632228   3.199   2.551   1.602 -0.4397  0.3605 -0.2763
  107MOL   C21732229   3.066   2.635   1.616  0.4377  0.1522  0.4466
  107MOL   C21832230   3.328   2.585   1.161  0.1370 -0.8370 -0.2656
  107MOL   H21932231   3.453   2.661   1.328 -0.0541  0.7226  0.8297
  107MOL   H22032232   3.184   2.455   1.553 -1.4645  0.8530 -0.9593
  107MOL   H22132233   3.240   2.529   1.700  0.8463 -2.1518 -1.3393
  107MOL   H22232234   3.038   2.673   1.714  0.1455 -0.7288  0.7107
  107MOL   H22332235   3.069   2.734   1.571 -2.4646  0.6256  1.1588
  107MOL   H22432236   2.982   2.581   1.572  1.4991 -0.1023 -1.2909
  107MOL   H22532237   3.221   2.595   1.143  0.0318 -2.7243 -0.7828
  107MOL   H22632238   3.385   2.626   1.078  1.4198 -0.0529  0.9809
  107MOL   C22732239   3.343   2.431   1.196 -0.2054 -0.2055  0.4315
  107MOL   O22832240   3.220   2.374   1.208  0.3784 -0.1388 -0.1345
  107MOL   C22932241   3.200   2.296   1.319 -0.1242  0.6371  0.2352
  107MOL   O23032242   3.275   2.275   1.413  0.4539 -0.0550  0.2123
  107MOL   C23132243   3.061   2.244   1.321 -0.2417 -0.2053  0.1928
  107MOL   C23232244   2.964   2.354   1.371 -0.4702 -0.2292 -0.3385
  107MOL   C23332245   3.424   2.357   1.085 -0.8896  0.2444  0.3863
  107MOL   H23432246   3.402   2.427   1.287  0.7404  0.5619 -0.1395
  107MOL   H23532247   3.038   2.202   1.223  1.8587  0.6829 -0.6926
  107MOL   H23632248   3.072   2.154   1.382  2.2106 -0.9450 -1.2591
  107MOL   H23732249   2.866   2.330   1.329  0.0176 -0.2457 -1.4830
  107MOL   H23832250   2.953   2.339   1.479 -0.2137 -2.0735 -0.5394
  107MOL   H23932251   2.997   2.452   1.337  0.0478  0.4711  2.0850
  107MOL   H24032252   3.424   2.249   1.099  1.0650 -0.1502 -2.3174
  107MOL   H24132253   3.389   2.384   0.985  0.5235  3.1908  0.6385
  107MOL   C24232254   3.569   2.388   1.102  0.5853 -0.3939 -0.0622
  107MOL   O24332255   3.605   2.336   1.230 -0.4233 -0.1053  0.2026
  107MOL   C24432256   3.695   2.391   1.313  0.4742  0.2025 -0.3834
  107MOL   O24532257   3.760   2.491   1.296  0.6537 -0.5285 -0.3131
  107MOL   C24632258   3.710   2.321   1.443  1.1011 -0.2998 -0.1509
  107MOL   C24732259   3.577   2.320   1.514 -0.2539  0.1757  0.2959
  107MOL   C24832260   3.660   2.317   0.994  0.8685  0.0767 -0.1233
  107MOL   H24932261   3.597   2.494   1.104 -2.2582  0.3755  1.8974
  107MOL   H25032262   3.764   2.226   1.443  1.6487 -0.0181  1.8330
  107MOL   H25132263   3.776   2.384   1.502 -0.3393  0.6110  0.5017
  107MOL   H25232264   3.583   2.284   1.616 -1.6785  2.0032  1.0669
  107MOL   H25332265   3.527   2.417   1.513  0.9732  0.8308  1.1347
  107MOL   H25432266   3.520   2.246   1.459  0.7941 -0.3502 -0.0930
  107MOL   H25532267   3.761   2.307   1.034  1.2403 -0.2294 -1.1290
  107MOL   H25632268   3.627   2.213   0.992  0.8997  0.0903 -2.3066
  107MOL   C25732269   3.671   2.371   0.849  0.6940 -0.6208 -0.1462
  107MOL   O25832270   3.545   2.349   0.791  0.2345 -0.4558 -0.3689
  107MOL   C25932271   3.530   2.318   0.659 -0.0433  0.3732  0.1366
  107MOL   O26032272   3.615   2.311   0.567 -0.0860 -0.5079  0.4323
  107MOL   C26132273   3.383   2.298   0.633  0.0427  0.1174  0.3557
  107MOL   C26232274   3.322   2.434   0.614  0.1195  0.0826 -0.6592
  107MOL   C26332275   3.705   2.518   0.835  0.4794  0.8473 -0.0947
  107MOL   H26432276   3.743   2.305   0.799 -1.1081 -3.1037  0.4414
  107MOL   H26532277   3.364   2.241   0.542  4.3954  0.7615 -1.1005
  107MOL   H26632278   3.340   2.245   0.718 -0.8892  3.4752  2.0671
  107MOL   H26732279   3.216   2.423   0.592 -0.1027  1.2073 -0.1868
  107MOL   H26832280   3.333   2.477   0.714  1.0561  0.3382 -0.8713
  107MOL   H26932281   3.373   2.492   0.537  0.5010 -1.9002 -1.9481
  107MOL   H27032282   3.682   2.563   0.739 -0.3739  2.0820  0.6588
  107MOL   H27132283   3.642   2.573   0.906  0.5525 -0.4321  0.9891
  107MOL   C27232284   3.856   2.549   0.864  0.4215  0.5805 -0.2727
  107MOL   O27332285   3.924   2.508   0.746  0.3062  0.5062  0.3158
  107MOL   C27432286   3.980   2.383   0.736 -0.8235  0.1334  0.1089
  107MOL   O27532287   3.975   2.293   0.819 -0.1102  0.1920 -0.3277
  107MOL   C27632288   4.053   2.367   0.601 -0.1744  1.1188 -0.6021
  107MOL   C27732289   4.119   2.224   0.601 -0.1647 -0.6814  0.3084
  107MOL   C27832290   3.882   2.694   0.882  0.6415  0.3776 -0.4661
  107MOL   H27932291   3.895   2.495   0.950 -1.8716 -0.2399  0.2839
  107MOL   H28032292   3.971   2.377   0.530 -0.8968 -0.6898 -0.0508
  107MOL   H28132293   4.130   2.443   0.590 -0.5257  1.3443 -1.6017
  107MOL   H28232294   4.185   2.211   0.687  1.3395 -0.3051 -0.7692
  107MOL   H28332295   4.041   2.149   0.599  1.1957 -2.1891  1.9707
  107MOL   H28432296   4.172   2.230   0.506  0.2160 -0.3122  0.5378
  107MOL   H28532297   3.857   2.761   0.799 -0.4624  1.1251  0.4420
  107MOL   H28632298   3.817   2.735   0.959 -0.3039  1.4175 -1.7898
  107MOL   C28732299   4.028   2.736   0.937  0.9829 -0.0160  0.2008
  107MOL   O28832300   4.142   2.736   0.843  0.1616 -0.1076  0.0740
  107MOL   C28932301   4.250   2.660   0.869 -0.6134 -0.6048  0.0594
  107MOL   O29032302   4.261   2.586   0.967 -0.5419  0.1305 -0.3503
  107MOL   C29132303   4.368   2.672   0.771 -0.3235 -0.5205  0.4214
  107MOL   C29232304   4.501   2.616   0.830  0.0068 -1.5787  0.2312
  107MOL   C29332305   4.037   2.874   0.989  0.9302  0.0777 -0.0963
  107MOL   H29432306   4.058   2.669   1.017  0.3774  0.1699  0.5903
  107MOL   H29532307   4.344   2.620   0.678 -0.9142  1.2367 -0.4363
  107MOL   H29632308   4.377   2.778   0.749 -2.2103 -0.7109 -1.4066
  107MOL   H29732309   4.540   2.540   0.762 -1.6417 -1.1964 -1.2060
  107MOL   H29832310   4.574   2.690   0.860 -2.0208  0.1359  1.0601
  107MOL   H29932311   4.492   2.572   0.929  0.0085  0.1542  1.0051
  107MOL   H30032312   3.978   2.893   1.078  2.5028  2.1308  0.5328
  107MOL   H30132313   4.139   2.906   1.008  0.6073  1.0543  0.0323
  107MOL   H30232314   4.004   2.947   0.915 -0.2011  2.5447  2.7672
  108MOL     C132315   2.602   7.525   1.165  0.2468 -0.3055 -0.1332
  108MOL     O232316   2.743   7.525   1.193 -0.1609 -0.3228  0.1691
  108MOL     C332317   2.812   7.416   1.174  0.3776 -0.1670  0.0845
  108MOL     O432318   2.756   7.307   1.158 -0.0653 -0.3433  0.2169
  108MOL     C532319   2.962   7.436   1.177  0.0951  0.3841 -0.0709
  108MOL     C632320   3.036   7.368   1.058  0.3813 -0.0511 -0.2866
  108MOL     C732321   2.573   7.564   1.028  0.5923 -0.1293 -0.1564
  108MOL     H832322   2.546   7.596   1.225 -0.4762 -2.2812  1.5998
  108MOL     H932323   2.991   7.541   1.174  1.2631  0.2267  3.3187
  108MOL    H1032324   2.998   7.396   1.271  0.5267  1.1713  0.0964
  108MOL    H1132325   3.003   7.405   0.960 -1.7536 -0.3843  0.2885
  108MOL    H1232326   3.143   7.391   1.063  0.4063 -0.2237 -0.0278
  108MOL    H1332327   3.017   7.261   1.050 -0.9513  0.0023  1.9563
  108MOL    H1432328   2.607   7.666   1.014 -1.5393  0.8437  1.5001
  108MOL    H1532329   2.642   7.508   0.965  0.7807 -1.6264  1.3570
  108MOL    H1632330   2.546   7.434   1.187  1.4366 -1.6042 -2.3237
  108MOL    C1732331   2.417   7.546   1.004  0.3077  0.8373 -0.2471
  108MOL    O1832332   2.347   7.671   1.045  0.3185  0.0725  0.1886
  108MOL    C1932333   2.281   7.686   1.159 -0.0105  0.4842 -0.3715
  108MOL    O2032334   2.266   7.599   1.243  0.2384 -0.4535 -0.0854
  108MOL    C2132335   2.221   7.822   1.176  0.7430 -0.3723 -0.4898
  108MOL    C2232336   2.078   7.834   1.121 -0.1606  0.7445  0.2713
  108MOL    C2332337   2.378   7.517   0.857 -0.0874 -0.3662  0.6778
  108MOL    H2432338   2.378   7.466   1.067 -1.1905 -0.6748 -2.9846
  108MOL    H2532339   2.218   7.850   1.281  1.2631  0.6873 -0.7553
  108MOL    H2632340   2.272   7.895   1.113 -0.6961  0.4054 -0.7771
  108MOL    H2732341   2.038   7.928   1.157 -2.0608  0.1798 -0.3144
  108MOL    H2832342   2.078   7.836   1.012 -0.3503 -0.5743  0.2381
  108MOL    H2932343   2.011   7.757   1.159  0.9994 -0.4847 -0.1382
  108MOL    H3032344   2.427   7.602   0.809  1.5184 -1.3239  0.5535
  108MOL    H3132345   2.434   7.428   0.827  0.0536  0.5087 -1.7093
  108MOL    C3232346   2.223   7.508   0.829 -0.4515 -0.3240  0.2707
  108MOL    O3332347   2.218   7.544   0.692  0.3246 -0.5975  0.4244
  108MOL    C3432348   2.168   7.665   0.664  0.4072  0.1176 -0.0330
  108MOL    O3532349   2.119   7.750   0.741  0.3512  0.3777 -0.3320
  108MOL    C3632350   2.165   7.686   0.518  0.1009 -0.3690 -0.2672
  108MOL    C3732351   2.223   7.814   0.472 -0.5898  0.1232 -1.0885
  108MOL    C3832352   2.166   7.366   0.834  0.6704  0.2526  0.1659
  108MOL    H3932353   2.165   7.571   0.897 -1.5837 -1.1694  0.1221
  108MOL    H4032354   2.218   7.604   0.471  1.2177  0.3442 -0.2816
  108MOL    H4132355   2.063   7.679   0.482  0.0664 -1.8756  0.1260
  108MOL    H4232356   2.149   7.893   0.459 -1.6741 -0.2462  2.3434
  108MOL    H4332357   2.294   7.856   0.543 -2.1045 -0.0668  0.5506
  108MOL    H4432358   2.264   7.813   0.371  0.0787  0.7456 -0.8269
  108MOL    H4532359   2.083   7.364   0.764 -0.0460  0.7595  0.9844
  108MOL    H4632360   2.237   7.299   0.785  0.1866 -1.1237  1.3235
  108MOL    C4732361   2.110   7.313   0.975  0.3194 -0.7078  0.5874
  108MOL    O4832362   2.212   7.294   1.073 -0.2084 -0.9263  0.5930
  108MOL    C4932363   2.201   7.208   1.173 -0.3246  0.1534 -0.0571
  108MOL    O5032364   2.106   7.136   1.194 -0.5118 -0.0175  0.3281
  108MOL    C5132365   2.313   7.215   1.275 -0.3653 -0.3537 -0.0929
  108MOL    C5232366   2.266   7.274   1.407  0.4868  0.0965  0.1441
  108MOL    C5332367   2.008   7.410   1.037 -0.3813 -0.9612 -0.3353
  108MOL    H5432368   2.059   7.221   0.945 -0.2369 -0.2809  0.2111
  108MOL    H5532369   2.346   7.112   1.288 -0.6146 -0.4107  0.0866
  108MOL    H5632370   2.393   7.274   1.232  0.5679 -1.6695 -0.2086
  108MOL    H5732371   2.159   7.292   1.414  0.2923  0.3597 -2.8522
  108MOL    H5832372   2.306   7.208   1.484 -0.0977  0.5840  0.8784
  108MOL    H5932373   2.312   7.367   1.440 -2.3971  1.1548  1.3792
  108MOL    H6032374   1.973   7.360   1.127  0.0465 -0.7672 -0.0627
  108MOL    H6132375   2.060   7.499   1.073  1.7853 -2.1351 -0.5494
  108MOL    C6232376   1.883   7.458   0.953 -0.1779  0.0057  0.0859
  108MOL    O6332377   1.802   7.347   0.898 -0.4501 -0.5014  0.4182
  108MOL    C6432378   1.788   7.352   0.761 -0.0752  0.3290 -0.2442
  108MOL    O6532379   1.812   7.442   0.689 -0.3693  0.1752 -0.1744
  108MOL    C6632380   1.721   7.228   0.707 -0.0949  0.1985  0.1617
  108MOL    C6732381   1.571   7.214   0.735 -0.9882  0.4072 -0.0665
  108MOL    C6832382   1.790   7.540   1.048  0.1506 -0.1703  0.5512
  108MOL    H6932383   1.918   7.520   0.871  0.8090 -2.6459 -1.5489
  108MOL    H7032384   1.743   7.216   0.601  0.5469 -1.5602  0.4869
  108MOL    H7132385   1.767   7.144   0.757  0.6259  0.2321 -0.4369
  108MOL    H7232386   1.556   7.121   0.680  0.8833  0.2022 -0.2922
  108MOL    H7332387   1.550   7.208   0.841  0.8160  0.5044  0.3104
  108MOL    H7432388   1.516   7.301   0.699  0.7361  1.2521 -0.7712
  108MOL    H7532389   1.729   7.465   1.097  0.1778 -1.9043 -2.0058
  108MOL    H7632390   1.860   7.591   1.115  0.5023  0.1575 -0.0540
  108MOL    C7732391   1.713   7.644   0.969  0.2069  0.2065 -0.0672
  108MOL    O7832392   1.600   7.686   1.045 -0.5213 -0.0763  0.0398
  108MOL    C7932393   1.482   7.628   1.027 -0.4552  0.3040  0.0058
  108MOL    O8032394   1.460   7.528   0.960 -0.5842 -0.6630 -0.1028
  108MOL    C8132395   1.370   7.683   1.112 -0.4210  0.9290  0.5584
  108MOL    C8232396   1.388   7.698   1.268 -0.6353 -0.1761  0.1099
  108MOL    C8332397   1.795   7.764   0.931  0.1807 -0.6132 -0.2381
  108MOL    H8432398   1.674   7.602   0.876 -0.6956 -1.2226  0.9339
  108MOL    H8532399   1.351   7.778   1.062  3.9178  0.2955 -2.6019
  108MOL    H8632400   1.290   7.614   1.086  0.4179 -0.2811  1.1390
  108MOL    H8732401   1.379   7.599   1.313 -1.1622 -0.1488  0.0634
  108MOL    H8832402   1.482   7.745   1.298  0.4696 -2.3974  0.2622
  108MOL    H8932403   1.300   7.755   1.296  0.3185  0.5696  1.6775
  108MOL    H9032404   1.807   7.825   1.021 -1.2312  1.3391 -1.3388
  108MOL    H9132405   1.894   7.733   0.898  0.7182 -0.3669  1.1034
  108MOL    C9232406   1.732   7.854   0.828  0.6322  0.5081  0.4315
  108MOL    O9332407   1.792   0.039   0.829 -0.2140 -0.3919 -0.3959
  108MOL    C9432408   1.701   0.142   0.839  0.3549  0.0069  0.5178
  108MOL    O9532409   1.581   0.140   0.811  0.7204 -0.3879 -0.2163
  108MOL    C9632410   1.765   0.262   0.901  0.7341  0.3020 -0.0412
  108MOL    C9732411   1.686   0.396   0.879 -0.2253 -0.6018  0.1122
  108MOL    C9832412   1.762   7.784   0.686  0.1923 -0.1999  0.0281
  108MOL    H9932413   1.623   7.859   0.837  0.6189 -0.6642  1.1181
  108MOL   H10032414   1.776   0.222   1.002 -3.1077 -0.9566 -0.0344
  108MOL   H10132415   1.867   0.277   0.864 -0.3071  0.8383 -2.8125
  108MOL   H10232416   1.752   0.469   0.925 -0.1451 -0.5252 -0.1274
  108MOL   H10332417   1.661   0.422   0.777  2.5600  3.4288  0.3696
  108MOL   H10432418   1.592   0.400   0.936 -0.8114 -0.5746 -0.8553
  108MOL   H10532419   1.867   7.801   0.660 -0.0600 -0.0458 -0.9040
  108MOL   H10632420   1.753   7.676   0.687  0.6178 -0.2756 -2.0470
  108MOL   C10732421   1.683   7.838   0.562  0.0813  0.0767 -0.4813
  108MOL   O10832422   1.716   0.035   0.543 -0.2769 -0.5501 -0.3935
  108MOL   C10932423   1.633   0.116   0.483 -0.7165 -0.9951  0.3275
  108MOL   O11032424   1.516   0.096   0.456  0.8956 -0.2785 -0.0868
  108MOL   C11132425   1.693   0.250   0.452  0.5160  0.5739 -0.0005
  108MOL   C11232426   1.839   0.238   0.396 -0.5662  0.5107  0.3124
  108MOL   C11332427   1.726   7.753   0.443 -0.4611 -0.1030 -0.4055
  108MOL   H11432428   1.578   7.814   0.578  0.9237 -1.9537  2.4704
  108MOL   H11532429   1.618   0.306   0.397  0.1270  1.2212  1.1621
  108MOL   H11632430   1.697   0.289   0.554  1.6040 -3.8007  1.7512
  108MOL   H11732431   1.900   0.176   0.462  1.9476  1.9598 -0.5541
  108MOL   H11832432   1.851   0.207   0.293 -0.1373 -0.5406  0.6775
  108MOL   H11932433   1.892   0.332   0.413  1.6841 -0.6453 -0.1383
  108MOL   H12032434   1.821   7.785   0.399  1.4770 -1.0008  2.9366
  108MOL   H12132435   1.748   7.657   0.491  2.2097  0.4531 -0.4537
  108MOL   C12232436   1.621   7.741   0.335 -0.6072 -0.2169  0.4733
  108MOL   O12332437   1.676   7.693   0.207 -0.1811  0.1441  0.0394
  108MOL   C12432438   1.756   7.779   0.136  0.4549 -0.1219 -0.2607
  108MOL   O12532439   1.810   7.878   0.172  0.2390  0.7930 -0.0555
  108MOL   C12632440   1.773   7.720   7.936  0.0143 -0.3781  0.3434
  108MOL   C12732441   1.854   7.808   7.835  0.3288  0.4705 -0.3251
  108MOL   C12832442   1.508   7.643   0.370  0.1798 -0.1845  0.0315
  108MOL   H12932443   1.585   7.842   0.315 -2.7636 -1.3642 -1.7368
  108MOL   H13032444   1.823   7.623   7.941  1.3431  0.3631  2.0497
  108MOL   H13132445   1.679   7.694   7.887  0.7713 -2.0166 -0.2908
  108MOL   H13232446   1.945   7.749   7.829  1.1424  1.7394 -0.5343
  108MOL   H13332447   1.825   7.825   7.731 -0.1910  0.1545 -0.2331
  108MOL   H13432448   1.877   7.907   7.874 -1.3414 -0.6091  3.6737
  108MOL   H13532449   1.553   7.545   0.385  0.2741 -0.6537 -3.0560
  108MOL   H13632450   1.453   7.660   0.463  0.2626  0.2762 -0.0014
  108MOL   C13732451   1.400   7.639   0.259 -0.8242  0.2921 -0.0773
  108MOL   O13832452   1.440   7.536   0.165 -0.2966  0.5964  0.9452
  108MOL   C13932453   1.465   7.564   0.032 -0.3191 -0.2442 -0.2678
  108MOL   O14032454   1.441   7.671   7.921  0.3413 -0.0446 -0.0355
  108MOL   C14132455   1.517   7.443   7.905  0.2231  0.4741  0.3012
  108MOL   C14232456   1.553   7.458   7.756  0.5235  0.0477 -0.0902
  108MOL   C14332457   1.262   7.600   0.322 -0.4659  0.2451  0.1930
  108MOL   H14432458   1.393   7.731   0.202 -0.3438  0.2397 -0.2280
  108MOL   H14532459   1.603   7.401   0.011 -0.6315 -0.6869  0.8268
  108MOL   H14632460   1.440   7.366   7.917 -2.0228  2.6897  0.5149
  108MOL   H14732461   1.619   7.545   7.750  3.2027 -1.9283 -0.0459
  108MOL   H14832462   1.591   7.368   7.709  0.2268 -0.8946  1.4435
  108MOL   H14932463   1.464   7.487   7.699 -0.5379  2.2789  2.6017
  108MOL   H15032464   1.195   7.554   0.249 -0.1242 -1.0037  0.6623
  108MOL   H15132465   1.276   7.512   0.384  1.8270 -0.5129 -1.3231
  108MOL   C15232466   1.200   7.715   0.397  0.5987  0.4822  0.8159
  108MOL   O15332467   1.152   7.806   0.305  0.1761 -0.0584 -0.5949
  108MOL   C15432468   1.119   7.933   0.342  0.3699 -0.5698 -0.1568
  108MOL   O15532469   1.128   0.029   0.454 -0.1674  0.0375  0.4518
  108MOL   C15632470   1.079   0.074   0.222  0.0168  0.2045  0.1384
  108MOL   C15732471   0.947   0.017   0.172 -0.0153 -0.1932 -0.3855
  108MOL   C15832472   1.077   7.664   0.478 -0.3633 -0.3263 -0.0674
  108MOL   H15932473   1.272   7.759   0.466  1.3051 -0.1702  0.4968
  108MOL   H16032474   1.063   0.179   0.245 -0.1094 -0.2304  2.0892
  108MOL   H16132475   1.153   0.079   0.142  1.8695  3.3605  1.9620
  108MOL   H16232476   0.860   0.026   0.236  0.2542  0.7994 -0.1364
  108MOL   H16332477   0.922   0.083   0.089 -0.6939 -0.2096 -0.1943
  108MOL   H16432478   0.955   7.856   0.148  2.6783 -0.3665  0.9728
  108MOL   H16532479   0.993   7.734   0.478  1.3707  1.7912 -0.3380
  108MOL   H16632480   1.048   7.566   0.439 -0.1271  0.3120 -1.9321
  108MOL   C16732481   1.100   7.643   0.628  0.3145 -0.0906 -0.7922
  108MOL   O16832482   1.126   7.768   0.698  0.0474 -0.2055  0.5110
  108MOL   C16932483   1.255   7.808   0.725 -0.5896 -0.1211  0.9009
  108MOL   O17032484   1.358   7.747   0.694 -0.5573  0.0349 -0.2627
  108MOL   C17132485   1.273   7.930   0.811 -0.6598  0.0646  0.0818
  108MOL   C17232486   1.178   7.937   0.927 -0.4068  0.0107  0.5928
  108MOL   C17332487   0.974   7.568   0.690 -0.3655  0.0687  0.4365
  108MOL   H17432488   1.183   7.575   0.645  0.5528  0.2604 -0.5603
  108MOL   H17532489   1.374   7.930   0.853 -1.5966 -1.1356  2.3852
  108MOL   H17632490   1.267   0.073   0.746  0.6381 -0.6678 -1.0759
  108MOL   H17732491   1.224   0.062   0.997 -0.9951  1.0259 -0.0227
  108MOL   H17832492   1.079   0.019   0.892  0.2567  0.1094 -1.2599
  108MOL   H17932493   1.182   7.841   0.979  0.6423  0.9417  2.2686
  108MOL   H18032494   0.900   7.642   0.660 -0.7045 -1.2970 -2.2247
  108MOL   H18132495   0.961   7.483   0.624 -2.4901  0.8069 -0.1417
  108MOL   C18232496   0.968   7.537   0.840  0.2983  1.1934  0.4739
  108MOL   O18332497   1.081   7.467   0.901  0.8095  0.7132 -0.8879
  108MOL   C18432498   1.113   7.337   0.865 -0.3573  0.2224 -0.5535
  108MOL   O18532499   1.058   7.274   0.776 -0.2585  0.3593  0.4907
  108MOL   C18632500   1.231   7.278   0.938 -0.1166  0.0770 -0.7106
  108MOL   C18732501   1.223   7.121   0.942 -0.8329  0.4137 -1.1496
  108MOL   C18832502   0.914   7.648   0.929 -0.7525  0.7596 -0.0461
  108MOL   H18932503   0.884   7.468   0.850  2.2741 -1.0558  2.0001
  108MOL   H19032504   1.324   7.307   0.891  1.7746  0.5495  3.1491
  108MOL   H19132505   1.240   7.331   1.033 -0.6361 -1.8524  0.4511
  108MOL   H19232506   1.266   7.090   1.038 -2.6562  1.2621 -0.0350
  108MOL   H19332507   1.122   7.079   0.944 -1.0314  0.9246 -0.3074
  108MOL   H19432508   1.290   7.068   0.874  0.4787  0.6342 -0.0613
  108MOL   H19532509   0.990   7.724   0.948 -1.2231  1.2074  0.0785
  108MOL   H19632510   0.845   7.711   0.874 -0.9947  0.0692 -0.5304
  108MOL   C19732511   0.854   7.586   1.052 -0.3418 -0.0154  0.2124
  108MOL   O19832512   0.874   7.662   1.171 -0.2789 -0.1253  0.2097
  108MOL   C19932513   0.994   7.660   1.231 -0.7219 -0.6112  0.0651
  108MOL   O20032514   1.084   7.585   1.202  0.0327  0.2666 -0.2925
  108MOL   C20132515   0.998   7.759   1.347 -0.6989  0.3162 -0.3482
  108MOL   C20232516   1.074   7.696   1.467  0.0654  0.1351 -0.6426
  108MOL   C20332517   0.706   7.565   1.039  0.0034  0.5092  0.2174
  108MOL   H20432518   0.893   7.486   1.068 -0.3174  0.0286  0.4327
  108MOL   H20532519   1.039   7.853   1.309 -0.7287  1.5496  2.4976
  108MOL   H20632520   0.897   7.775   1.385  0.1310  0.6503  1.8081
  108MOL   H20732521   1.086   7.756   1.558 -0.2037  0.5675 -0.8879
  108MOL   H20832522   1.006   7.619   1.504  2.4169 -1.4059  0.6074
  108MOL   H20932523   1.167   7.645   1.443 -0.0173 -0.7451  0.8349
  108MOL   H21032524   0.650   7.655   1.065 -0.3419  0.1467  0.7383
  108MOL   H21132525   0.679   7.537   0.937  0.4740 -1.7646  0.6892
  108MOL   C21232526   0.650   7.450   1.126  0.3780 -0.4725 -0.3047
  108MOL   O21332527   0.680   7.328   1.051 -0.1870  0.4520  0.6041
  108MOL   C21432528   0.581   7.242   1.024  0.8242  0.2765 -1.2809
  108MOL   O21532529   0.464   7.248   1.066 -0.5418  0.0258 -0.0835
  108MOL   C21632530   0.624   7.132   0.939 -0.8493 -0.0611  1.0190
  108MOL   C21732531   0.766   7.084   0.973 -0.0226  0.2576 -0.1471
  108MOL   C21832532   0.688   7.449   1.278 -0.1735  0.3046  0.2616
  108MOL   H21932533   0.543   7.465   1.137  0.4310 -0.3208  0.0269
  108MOL   H22032534   0.562   7.045   0.961  0.7260 -1.4832  0.0415
  108MOL   H22132535   0.621   7.158   0.833  1.6084  0.6417  1.0812
  108MOL   H22232536   0.766   6.979   0.946 -0.4019  0.3886 -0.6423
  108MOL   H22332537   0.845   7.121   0.908  0.5128  1.2933  1.0592
  108MOL   H22432538   0.806   7.089   1.075  3.1140 -1.6655 -1.2006
  108MOL   H22532539   0.787   7.405   1.268 -0.3746 -0.1956  0.4601
  108MOL   H22632540   0.699   7.544   1.330 -1.1989  1.6964 -2.0117
  108MOL   C22732541   0.617   7.343   1.367 -0.6942  0.0028 -0.0444
  108MOL   O22832542   0.689   7.315   1.488 -0.4231  0.4670 -0.1255
  108MOL   C22932543   0.722   7.186   1.511  0.0526 -0.1833  0.2496
  108MOL   O23032544   0.694   7.089   1.438 -0.0271 -0.1899  0.2426
  108MOL   C23132545   0.806   7.171   1.641 -0.5989  0.2897 -0.1037
  108MOL   C23232546   0.849   7.031   1.671 -0.0088  0.4291  0.5397
  108MOL   C23332547   0.482   7.403   1.402  0.7079  0.2617  0.1434
  108MOL   H23432548   0.599   7.253   1.307  1.4019  0.1102 -0.8472
  108MOL   H23532549   0.898   7.223   1.617 -1.6134  1.3699 -1.7374
  108MOL   H23632550   0.756   7.211   1.729  0.7593  0.3146  0.6675
  108MOL   H23732551   0.756   6.979   1.695 -0.4154  1.7911  2.0000
  108MOL   H23832552   0.902   6.990   1.586 -0.6857  0.2912  0.1810
  108MOL   H23932553   0.912   7.026   1.759 -0.1847 -0.6519  0.6046
  108MOL   H24032554   0.493   7.505   1.438  0.3869  0.0590  0.8284
  108MOL   H24132555   0.433   7.403   1.304  0.8429 -1.3759  0.0562
  108MOL   C24232556   0.397   7.324   1.503 -0.6545 -0.3113  0.2784
  108MOL   O24332557   0.305   7.411   1.557 -0.0949 -0.8877 -0.4453
  108MOL   C24432558   0.295   7.433   1.690  0.1009 -0.3921  0.1329
  108MOL   O24532559   0.352   7.365   1.779  0.9660  0.4268  0.1807
  108MOL   C24632560   0.210   7.556   1.722 -0.1063  0.0058 -0.4724
  108MOL   C24732561   0.090   7.506   1.797  0.7529 -0.1137 -0.2206
  108MOL   C24832562   0.340   7.195   1.444  0.2315  0.1501  0.6068
  108MOL   H24932563   0.472   7.307   1.579  0.7220  0.2871 -0.9173
  108MOL   H25032564   0.269   7.623   1.784  0.6000 -0.9600 -0.0935
  108MOL   H25132565   0.174   7.604   1.631 -2.0215  0.8886  0.6986
  108MOL   H25232566   0.029   7.440   1.735  1.3164  1.8039 -2.8988
  108MOL   H25332567   0.111   7.441   1.883 -1.0991 -2.8212 -1.7479
  108MOL   H25432568   0.019   7.587   1.815 -0.0602 -0.4936 -1.6557
  108MOL   H25532569   0.271   7.204   1.360  1.0044  2.8231  0.2122
  108MOL   H25632570   0.428   7.139   1.415  0.7726  0.8751  0.8365
  108MOL   C25732571   0.288   7.092   1.538  0.7070  0.7470 -0.1188
  108MOL   O25832572   0.155   7.139   1.555  0.0271  0.2531  0.1294
  108MOL   C25932573   0.091   7.111   1.666  0.2452 -0.0601  0.0393
  108MOL   O26032574   0.140   7.059   1.768 -0.6974 -1.3163 -0.2984
  108MOL   C26132575   7.885   7.149   1.649  0.3564  0.4155 -0.1921
  108MOL   C26232576   7.840   7.243   1.525 -0.4618  0.8026 -0.4610
  108MOL   C26332577   0.275   6.948   1.489 -0.1338 -0.2066 -0.0991
  108MOL   H26432578   0.350   7.082   1.627 -1.5495 -2.8934  1.1827
  108MOL   H26532579   7.824   7.059   1.665  1.3118 -0.0358  1.0105
  108MOL   H26632580   7.877   7.215   1.736  0.2575  1.0389 -0.6733
  108MOL   H26732581   7.833   7.176   1.439 -0.5033  0.3081 -0.0815
  108MOL   H26832582   7.743   7.293   1.533  0.5780  2.4696  2.3919
  108MOL   H26932583   7.912   7.319   1.497 -0.7910  1.0133 -0.7375
  108MOL   H27032584   0.176   6.908   1.514 -1.5859  0.7721 -3.8915
  108MOL   H27132585   0.273   6.954   1.380  1.0763 -1.3553 -0.1957
  108MOL   C27232586   0.368   6.842   1.548  0.1062 -0.2168 -0.4330
  108MOL   O27332587   0.336   6.801   1.680  0.1177  0.2632  0.3807
  108MOL   C27432588   0.389   6.866   1.782  0.3145 -1.0127  0.2953
  108MOL   O27532589   0.476   6.961   1.772  0.0949  0.4620  0.0203
  108MOL   C27632590   0.350   6.813   1.924 -0.6893  0.0300  0.6302
  108MOL   C27732591   0.198   6.799   1.950  0.3433 -0.2963 -0.2174
  108MOL   C27832592   0.369   6.707   1.475  0.1163  0.0221  0.6627
  108MOL   H27932593   0.472   6.874   1.551 -0.4377  1.5511  0.7750
  108MOL   H28032594   0.395   6.716   1.944  0.6764  0.1511 -1.6483
  108MOL   H28132595   0.388   6.890   1.991  0.5660  1.7325 -1.9541
  108MOL   H28232596   0.156   6.739   1.869  1.9342 -1.3811 -0.2582
  108MOL   H28332597   0.183   6.756   2.049  2.0635  0.9145  0.5858
  108MOL   H28432598   0.150   6.896   1.952 -2.7279 -1.6088 -3.6219
  108MOL   H28532599   0.422   6.624   1.523  2.3823  0.3582 -1.1746
  108MOL   H28632600   0.266   6.673   1.475  0.3601 -0.8141 -1.5550
  108MOL   C28732601   0.432   6.722   1.338  1.0167  0.4196  0.0656
  108MOL   O28832602   0.571   6.754   1.337 -0.3185 -0.2161  0.0850
  108MOL   C28932603   0.639   6.814   1.229  0.4844  0.1513 -0.5652
  108MOL   O29032604   0.580   6.849   1.123  0.0204 -0.3721 -0.1877
  108MOL   C29132605   0.797   6.816   1.246  0.3310 -0.6371 -0.1479
  108MOL   C29232606   0.864   6.679   1.250  0.1686  0.3609  0.1409
  108MOL   C29332607   0.419   6.590   1.263  0.6110 -0.2823 -0.1255
  108MOL   H29432608   0.375   6.794   1.278 -1.6410 -1.5495  0.1373
  108MOL   H29532609   0.835   6.882   1.168  1.7741 -0.7545  0.4313
  108MOL   H29632610   0.817   6.860   1.344  3.0686  2.5317 -1.9912
  108MOL   H29732611   0.961   6.660   1.205  1.1445 -0.1958  2.4283
  108MOL   H29832612   0.852   6.659   1.357 -2.5321  1.9182  0.1689
  108MOL   H29932613   0.807   6.602   1.198  1.0711 -0.9486  1.0674
  108MOL   H30032614   0.468   6.581   1.166  3.2882 -0.9235  1.2474
  108MOL   H30132615   0.442   6.505   1.327  1.1850 -1.4705 -1.8558
  108MOL   H30232616   0.312   6.572   1.256  0.1462  1.7213  1.5575
  109MOL     C132617   1.525   2.296   7.816 -1.1281 -0.2349 -0.5168
  109MOL     O232618   1.541   2.406   7.906 -0.4698 -0.3579  0.0536
  109MOL     C332619   1.469   2.517   7.877 -0.1031  0.1433  0.5280
  109MOL     O432620   1.393   2.530   7.772  0.0017 -0.0828 -0.8006
  109MOL     C532621   1.482   2.620   0.041  0.0499 -0.4246 -0.4657
  109MOL     C632622   1.422   2.572   0.175 -0.2797 -0.1192  0.3138
  109MOL     C732623   1.607   2.179   7.878 -0.2153 -0.5426 -1.1036
  109MOL     H832624   1.563   2.329   7.720 -1.7707 -1.7506 -1.2996
  109MOL     H932625   1.584   2.658   0.050  0.3045 -1.6199  2.1304
  109MOL    H1032626   1.420   2.707   0.018  0.9995  0.0337 -1.3294
  109MOL    H1132627   1.322   2.539   0.147 -0.6328  0.7104  0.5790
  109MOL    H1232628   1.479   2.497   0.229 -1.6352 -0.9010  0.6670
  109MOL    H1332629   1.410   2.656   0.243 -3.2330 -0.4841  0.2811
  109MOL    H1432630   1.694   2.235   7.912 -0.2545 -1.6580  0.9197
  109MOL    H1532631   1.546   2.150   0.019  0.3337  0.3371 -0.3982
  109MOL    H1632632   1.428   2.247   7.806 -1.0653 -0.1421 -1.5900
  109MOL    C1732633   1.646   2.064   7.782  0.4953  0.5359 -0.7418
  109MOL    O1832634   1.748   2.111   7.695  0.6039 -0.0069 -0.4600
  109MOL    C1932635   1.736   2.134   7.562  0.1541  0.1476  0.6826
  109MOL    O2032636   1.635   2.118   7.490 -0.5720 -0.0257 -0.3417
  109MOL    C2132637   1.865   2.195   7.510 -0.4757 -0.1365  0.1223
  109MOL    C2232638   1.891   2.145   7.366  0.3118  0.0048  0.1034
  109MOL    C2332639   1.704   1.943   7.850  0.5363  0.2412  0.4115
  109MOL    H2432640   1.569   2.028   7.714 -0.2493 -0.8452  0.8056
  109MOL    H2532641   1.861   2.303   7.525 -3.5550 -0.3312  1.0819
  109MOL    H2632642   1.950   2.168   7.572  0.9579  2.3278 -0.6894
  109MOL    H2732643   1.835   2.198   7.289  2.0218 -0.3414 -1.4285
  109MOL    H2832644   1.996   2.164   7.343 -0.0506  1.2924 -0.5401
  109MOL    H2932645   1.872   2.038   7.354 -0.3275 -0.1007  1.8309
  109MOL    H3032646   1.754   1.880   7.777 -1.1361  1.5267 -1.9575
  109MOL    H3132647   1.778   1.974   7.923  1.9824  1.3267 -1.4604
  109MOL    C3232648   1.591   1.855   7.921  0.2742  0.0909 -0.4089
  109MOL    O3332649   1.509   1.798   7.820  0.3246  0.1990 -0.6144
  109MOL    C3432650   1.389   1.845   7.792  0.0301 -0.1753  0.0694
  109MOL    O3532651   1.341   1.947   7.842  0.9124  0.0171 -0.6473
  109MOL    C3632652   1.323   1.769   7.674  0.0163  0.3564  0.4990
  109MOL    C3732653   1.348   1.615   7.690 -0.0796  0.1993 -0.4552
  109MOL    C3832654   1.633   1.743   0.072 -0.3626  0.2934  0.3902
  109MOL    H3932655   1.527   1.917   0.039 -0.5450  1.6043 -2.6535
  109MOL    H4032656   1.216   1.789   7.673  0.1233  0.9219  0.2759
  109MOL    H4132657   1.357   1.812   7.580 -0.4341 -2.3932 -0.9945
  109MOL    H4232658   1.436   1.574   7.642 -0.5018 -1.1755 -0.0672
  109MOL    H4332659   1.369   1.576   7.790  1.7803  0.6511 -0.6495
  109MOL    H4432660   1.258   1.562   7.661 -2.1177  2.0546  2.1665
  109MOL    H4532661   1.550   1.681   0.108 -2.4103  2.6455 -0.1250
  109MOL    H4632662   1.686   1.662   0.022 -0.3746 -0.4273  1.5345
  109MOL    C4732663   1.712   1.789   0.196 -1.1479 -0.0129  0.9404
  109MOL    O4832664   1.622   1.859   0.277  0.2180  0.0092  0.6099
  109MOL    C4932665   1.665   1.969   0.342  0.6528 -0.1700 -0.5390
  109MOL    O5032666   1.774   2.021   0.331 -0.2135 -0.9016 -0.0003
  109MOL    C5132667   1.546   2.037   0.413  0.4474  0.0613 -0.1345
  109MOL    C5232668   1.443   2.112   0.324  0.4876  0.3901  0.1819
  109MOL    C5332669   1.762   1.666   0.277 -1.0278  0.3577  0.6531
  109MOL    H5432670   1.804   1.841   0.170 -0.4276 -0.2803  2.8733
  109MOL    H5532671   1.496   1.966   0.478 -0.3237  0.5796 -0.1498
  109MOL    H5632672   1.576   2.117   0.480  0.2070  1.7349 -1.9597
  109MOL    H5732673   1.495   2.167   0.246 -0.4508  1.0100 -0.0129
  109MOL    H5832674   1.354   2.055   0.297  0.4827  0.9901 -1.1035
  109MOL    H5932675   1.402   2.182   0.397 -1.3807 -0.7549  0.2726
  109MOL    H6032676   1.728   1.677   0.380  1.3979  0.6934  1.4485
  109MOL    H6132677   1.703   1.578   0.249  0.1754 -0.8020  1.7301
  109MOL    C6232678   1.910   1.640   0.255  0.5691 -0.1539 -0.4553
  109MOL    O6332679   1.943   1.631   0.116  0.2371  0.7169 -0.1409
  109MOL    C6432680   1.928   1.518   0.042  0.0997  0.1307  0.2397
  109MOL    O6532681   1.916   1.403   0.088  0.6263  0.0071  0.1349
  109MOL    C6632682   1.950   1.534   7.834 -0.0781  0.1606 -0.1799
  109MOL    C6732683   1.825   1.483   7.770 -0.5323 -0.1143 -0.0483
  109MOL    C6832684   2.004   1.738   0.323 -0.9823  0.3779 -0.1004
  109MOL    H6932685   1.929   1.538   0.289  2.0426  0.4513  0.5587
  109MOL    H7032686   1.979   1.638   7.818 -1.2878  0.3722 -1.0355
  109MOL    H7132687   2.036   1.477   7.798  0.4273  1.2744 -0.7472
  109MOL    H7232688   1.841   1.375   7.767  0.9550  0.0633  1.0128
  109MOL    H7332689   1.736   1.495   7.831 -1.0896 -3.2475 -0.1475
  109MOL    H7432690   1.825   1.509   7.664  0.4564 -0.6058 -0.1807
  109MOL    H7532691   2.109   1.712   0.311 -1.7078 -1.3012 -3.1902
  109MOL    H7632692   1.991   1.840   0.286  2.4632  0.9387  0.0853
  109MOL    C7732693   1.983   1.752   0.479 -0.6711  0.4311 -0.5942
  109MOL    O7832694   2.034   1.644   0.560  0.0408 -0.2685 -0.1311
  109MOL    C7932695   1.950   1.555   0.618 -0.1800  0.2627  0.3174
  109MOL    O8032696   1.831   1.547   0.597  0.8433 -0.1168 -0.0585
  109MOL    C8132697   2.008   1.448   0.712 -0.1023  0.5526 -0.4962
  109MOL    C8232698   2.147   1.474   0.763 -0.0477  1.2943 -0.6274
  109MOL    C8332699   2.065   1.872   0.526  0.1024 -0.4747  0.0186
  109MOL    H8432700   1.876   1.753   0.499 -0.7082 -1.4045 -0.6507
  109MOL    H8532701   1.944   1.431   0.799  0.4761  1.3334  0.0949
  109MOL    H8632702   2.003   1.350   0.665  0.5183  0.0580  0.4594
  109MOL    H8732703   2.167   1.439   0.865 -1.8624 -0.9906 -1.0249
  109MOL    H8832704   2.235   1.435   0.711 -0.2897 -0.4522  0.2435
  109MOL    H8932705   2.166   1.581   0.775  1.6146  0.9223  0.2356
  109MOL    H9032706   2.168   1.840   0.510 -0.2131 -1.8478  0.6937
  109MOL    H9132707   2.041   1.959   0.464 -0.1447 -0.5964 -0.0582
  109MOL    C9232708   2.040   1.911   0.673 -0.5843 -0.0144 -0.0849
  109MOL    O9332709   2.134   2.015   0.695 -0.3164  0.1245 -0.6433
  109MOL    C9432710   2.242   1.991   0.766  0.5226  0.6313  0.3052
  109MOL    O9532711   2.281   1.884   0.817  0.2837 -0.3344  0.2146
  109MOL    C9632712   2.326   2.118   0.779 -0.5604 -0.8644 -1.0298
  109MOL    C9732713   2.300   2.193   0.918  0.2286 -0.0096  0.0675
  109MOL    C9832714   1.897   1.960   0.708  1.1383  0.0817  0.1424
  109MOL    H9932715   2.055   1.826   0.738 -0.5471  1.2173  1.5483
  109MOL   H10032716   2.433   2.097   0.775  0.5978  3.3053  2.9960
  109MOL   H10132717   2.302   2.183   0.696 -2.2641  1.2722  1.0675
  109MOL   H10232718   2.194   2.217   0.929  0.3528  0.0450  1.2896
  109MOL   H10332719   2.334   2.138   1.007 -0.5391 -0.1471  0.2802
  109MOL   H10432720   2.363   2.281   0.925 -0.3507  0.4365 -0.3251
  109MOL   H10532721   1.866   2.039   0.640 -2.9965 -0.8292  0.8118
  109MOL   H10632722   1.835   1.873   0.686  1.2457  0.0634 -0.0965
  109MOL   C10732723   1.881   1.983   0.857 -0.1319  0.4102  0.2406
  109MOL   O10832724   1.969   1.905   0.940 -0.0391  0.1429 -0.2370
  109MOL   C10932725   1.946   1.778   0.984 -0.1328  1.1447  0.2830
  109MOL   O11032726   1.843   1.720   0.944  0.1137 -0.6878 -0.3077
  109MOL   C11132727   2.041   1.715   1.094  0.2511  0.3325  0.1219
  109MOL   C11232728   2.001   1.575   1.136  0.1697 -0.1832 -0.2807
  109MOL   C11332729   1.896   2.138   0.882 -0.1320  0.3682  0.2150
  109MOL   H11432730   1.779   1.965   0.890  0.1235 -1.3929  0.0917
  109MOL   H11532731   2.145   1.719   1.061 -0.4335 -0.4505 -2.2313
  109MOL   H11632732   2.027   1.776   1.183 -3.5927 -0.5712  0.2471
  109MOL   H11732733   1.892   1.570   1.138  0.0352  0.6555 -2.8595
  109MOL   H11832734   2.040   1.494   1.074 -1.9988 -1.3168 -0.2100
  109MOL   H11932735   2.021   1.557   1.241 -0.5609  2.5032  0.3662
  109MOL   H12032736   1.989   2.183   0.849 -0.8495  0.9885 -1.0098
  109MOL   H12132737   1.827   2.189   0.815 -0.7007  0.7131  1.0433
  109MOL   C12232738   1.857   2.174   1.032 -0.7336 -0.2821 -0.2703
  109MOL   O12332739   1.975   2.163   1.107  0.1436 -0.3615 -0.1637
  109MOL   C12432740   1.978   2.122   1.234  0.0653 -0.0233 -0.1192
  109MOL   O12532741   1.884   2.113   1.314 -0.1594  0.1743 -0.1409
  109MOL   C12632742   2.124   2.115   1.283  0.3879 -0.1852  0.0943
  109MOL   C12732743   2.206   1.994   1.243 -0.0272  0.1744 -0.5473
  109MOL   C12832744   1.788   2.308   1.067  0.3087 -0.4705 -0.0553
  109MOL   H12932745   1.785   2.100   1.068 -1.3334  1.5877  2.6041
  109MOL   H13032746   2.167   2.210   1.250  0.9262 -0.7607 -0.8953
  109MOL   H13132747   2.124   2.121   1.391  2.4678  0.5562  0.0717
  109MOL   H13232748   2.311   2.002   1.270  0.1346  0.3353 -1.2156
  109MOL   H13332749   2.177   1.896   1.282  2.0950 -0.3371 -0.2150
  109MOL   H13432750   2.215   1.994   1.135  2.5333  0.9052 -0.3515
  109MOL   H13532751   1.796   2.329   1.174 -0.7301  2.1367 -0.4537
  109MOL   H13632752   1.845   2.392   1.027 -1.1007  0.4721 -0.1077
  109MOL   C13732753   1.639   2.319   1.021 -0.3547  0.1122 -0.2950
  109MOL   O13832754   1.569   2.252   1.124 -0.5996  0.7336 -0.6547
  109MOL   C13932755   1.492   2.141   1.103 -0.4161 -0.4789  0.1959
  109MOL   O14032756   1.467   2.097   0.991  0.0924  0.1019 -0.3717
  109MOL   C14132757   1.466   2.059   1.229 -0.2912  0.1367 -0.4712
  109MOL   C14232758   1.354   2.120   1.323 -0.7893 -0.0752 -0.5676
  109MOL   C14332759   1.575   2.459   1.002  0.2871  0.6122  0.1223
  109MOL   H14432760   1.610   2.264   0.931 -1.2736  0.1210 -0.0092
  109MOL   H14532761   1.442   1.963   1.184 -0.2773 -0.4021  0.6500
  109MOL   H14632762   1.564   2.055   1.278  0.6991 -1.5401 -2.5310
  109MOL   H14732763   1.330   2.053   1.405 -0.9384  0.7449  0.0752
  109MOL   H14832764   1.395   2.206   1.377  0.1858 -0.2308 -1.0360
  109MOL   H14932765   1.261   2.158   1.282 -0.6625  0.3534 -0.4644
  109MOL   H15032766   1.466   2.454   0.999  0.2654  0.4444  0.9809
  109MOL   H15132767   1.606   2.519   1.087  1.8898  0.0458 -0.0486
  109MOL   C15232768   1.605   2.538   0.870 -0.8371  0.6607 -0.2873
  109MOL   O15332769   1.561   2.470   0.756 -0.4159  0.1528  0.1832
  109MOL   C15432770   1.648   2.437   0.661  0.3103  0.2298 -0.3175
  109MOL   O15532771   1.770   2.420   0.664  0.2289  0.2412  0.2488
  109MOL   C15632772   1.575   2.432   0.526 -0.3236  0.6392  0.0815
  109MOL   C15732773   1.673   2.407   0.405  0.3839 -0.0052 -0.9476
  109MOL   C15832774   1.528   2.669   0.867  0.3131  0.0528  0.0966
  109MOL   H15932775   1.711   2.554   0.851 -0.4964 -2.6071 -1.3938
  109MOL   H16032776   1.504   2.350   0.526  1.5245 -0.9856 -0.7150
  109MOL   H16132777   1.532   2.533   0.523  1.4438  1.5900  3.6287
  109MOL   H16232778   1.743   2.326   0.425  0.0589 -0.2108 -0.6258
  109MOL   H16332779   1.614   2.379   0.318 -0.0058 -1.7223 -0.1477
  109MOL   H16432780   1.728   2.501   0.398  0.9076 -0.2023  0.4389
  109MOL   H16532781   1.547   2.700   0.764 -1.0772  0.0875 -0.1473
  109MOL   H16632782   1.421   2.662   0.882  0.6104  0.9697  2.9920
  109MOL   C16732783   1.573   2.783   0.960 -0.5983 -0.2484 -0.1060
  109MOL   O16832784   1.705   2.834   0.933 -0.0956  0.2414 -0.2698
  109MOL   C16932785   1.811   2.776   0.993  0.2046  0.5247  1.1792
  109MOL   O17032786   1.808   2.688   1.077 -0.0521 -0.8361 -0.3331
  109MOL   C17132787   1.940   2.845   0.945  0.4758 -0.4792 -0.7927
  109MOL   C17232788   2.058   2.829   1.045 -0.4129  0.2445  0.2643
  109MOL   C17332789   1.484   2.906   0.971  0.9530 -0.7892 -0.2575
  109MOL   H17432790   1.564   2.745   1.062 -1.3468  1.1350  0.3512
  109MOL   H17532791   1.957   2.803   0.845 -1.3039 -1.5389 -0.6708
  109MOL   H17632792   1.917   2.951   0.934  0.3831 -0.2527  1.3678
  109MOL   H17732793   2.035   2.862   1.146 -0.0952  0.5882  0.2258
  109MOL   H17832794   2.096   2.727   1.052 -2.2620 -0.3728  1.6442
  109MOL   H17932795   2.139   2.890   1.007 -1.4123  0.9616 -0.7617
  109MOL   H18032796   1.521   2.966   1.054 -1.5787 -1.8284  1.6816
  109MOL   H18132797   1.490   2.971   0.883 -1.8309 -0.3191 -0.1527
  109MOL   C18232798   1.329   2.882   0.992  0.5877  0.1825  0.2368
  109MOL   O18332799   1.294   2.807   1.111  0.4739  0.5848 -0.0921
  109MOL   C18432800   1.252   2.684   1.105  0.0515 -0.0860  0.1847
  109MOL   O18532801   1.225   2.623   0.999 -0.2912 -0.3586  0.2582
  109MOL   C18632802   1.226   2.621   1.248 -0.6772  0.6871 -0.1284
  109MOL   C18732803   1.358   2.557   1.305  0.2806 -0.0512 -0.6531
  109MOL   C18832804   1.247   3.014   0.992  0.1658 -0.2519 -0.1575
  109MOL   H18932805   1.302   2.827   0.902 -1.1811  0.1841  0.7527
  109MOL   H19032806   1.197   2.694   1.324  1.3996  1.7512 -0.2948
  109MOL   H19132807   1.140   2.554   1.254 -1.3539  1.6913  2.0553
  109MOL   H19232808   1.351   2.454   1.271 -0.9949 -0.2506  0.1654
  109MOL   H19332809   1.452   2.602   1.272 -0.3608  0.2712 -2.0819
  109MOL   H19432810   1.367   2.549   1.413 -0.1822  0.9140 -0.5359
  109MOL   H19532811   1.143   2.987   1.011  0.5787 -0.8236  1.2626
  109MOL   H19632812   1.271   3.065   1.085 -0.4037  1.9535 -1.1756
  109MOL   C19732813   1.247   3.098   0.864 -0.1534 -0.0046 -0.3283
  109MOL   O19832814   1.185   3.014   0.770 -0.7754 -0.1664  0.3063
  109MOL   C19932815   1.242   3.000   0.647  0.1456 -0.3652  0.2177
  109MOL   O20032816   1.343   3.058   0.607  0.0390  0.3496  0.1314
  109MOL   C20132817   1.171   2.906   0.557  0.2550  0.1121  0.1728
  109MOL   C20232818   1.065   2.976   0.476  0.2914  0.0867 -0.1310
  109MOL   C20332819   1.169   3.228   0.883  0.5109 -0.3338 -0.0878
  109MOL   H20432820   1.350   3.106   0.832  0.0188 -3.1708 -0.7889
  109MOL   H20532821   1.245   2.853   0.497  2.2502  4.4670 -1.3847
  109MOL   H20632822   1.126   2.831   0.622 -0.8888 -1.3962 -2.2743
  109MOL   H20732823   0.988   3.026   0.534 -0.1475  0.4712 -1.0218
  109MOL   H20832824   1.122   3.044   0.412 -0.6900  0.7177 -0.3535
  109MOL   H20932825   1.015   2.908   0.406 -1.2713  2.3149 -1.2642
  109MOL   H21032826   1.172   3.276   0.785 -2.3465  1.0535  0.4500
  109MOL   H21132827   1.062   3.220   0.900  0.5810  0.0255  0.5328
  109MOL   C21232828   1.233   3.330   0.983 -0.3953 -0.5963 -0.1483
  109MOL   O21332829   1.362   3.380   0.937  0.5298  0.0986  0.2420
  109MOL   C21432830   1.480   3.332   0.976  0.2780  0.7286  0.0746
  109MOL   O21532831   1.505   3.249   1.062 -0.3168 -0.0664  0.2447
  109MOL   C21632832   1.598   3.381   0.899  0.5465  0.0839  0.1331
  109MOL   C21732833   1.667   3.269   0.813 -0.2506  0.5510  0.2684
  109MOL   C21832834   1.141   3.453   1.018  0.2399 -0.2441  0.3240
  109MOL   H21932835   1.249   3.292   1.084 -2.0322  1.1892  0.8196
  109MOL   H22032836   1.568   3.454   0.823  1.3198 -0.1574 -0.4070
  109MOL   H22132837   1.669   3.432   0.964 -1.0078 -0.7740  2.5684
  109MOL   H22232838   1.753   3.315   0.765 -0.9805 -0.2891 -1.8986
  109MOL   H22332839   1.695   3.189   0.881  2.0068  2.2491  1.3990
  109MOL   H22432840   1.598   3.220   0.744 -0.6571  2.2597 -0.5780
  109MOL   H22532841   1.191   3.532   1.075  1.1035 -2.0432  2.1134
  109MOL   H22632842   1.111   3.500   0.924  2.2494  0.0241 -0.2031
  109MOL   C22732843   1.011   3.416   1.098  0.1790  1.1691 -0.5214
  109MOL   O22832844   1.048   3.351   1.217  0.0752 -0.6363 -0.6034
  109MOL   C22932845   1.021   3.223   1.253 -0.1300 -0.5138  0.1465
  109MOL   O23032846   0.985   3.132   1.182  0.0715  0.6390  0.6773
  109MOL   C23132847   1.055   3.204   1.404 -0.6480 -0.0866  0.3091
  109MOL   C23232848   1.062   3.057   1.454 -0.7314  0.8069  0.6162
  109MOL   C23332849   0.921   3.538   1.115  0.3581 -0.0342 -0.5787
  109MOL   H23432850   0.964   3.339   1.037  0.9588 -0.4718  0.9250
  109MOL   H23532851   1.155   3.246   1.412 -0.9673  1.2270 -2.1609
  109MOL   H23632852   0.984   3.255   1.469 -2.0304 -1.8538  0.2032
  109MOL   H23732853   1.131   3.044   1.537  0.7936 -0.0366 -0.7438
  109MOL   H23832854   0.962   3.020   1.475 -0.1819 -1.8032 -1.0833
  109MOL   H23932855   1.105   2.999   1.372 -2.5285 -0.0642  0.2694
  109MOL   H24032856   0.939   3.575   1.215  3.0174  0.2521 -1.1170
  109MOL   H24132857   0.964   3.615   1.051  1.4771  0.0322  0.2321
  109MOL   C24232858   0.776   3.512   1.061  0.2296 -0.6459  0.1376
  109MOL   O24332859   0.691   3.459   1.168 -0.1373 -0.0189  0.3782
  109MOL   C24432860   0.606   3.361   1.138 -0.2946 -0.2315  0.0354
  109MOL   O24532861   0.594   3.322   1.018  0.6263 -0.1801 -0.3324
  109MOL   C24632862   0.520   3.299   1.250 -0.5050  0.1437  0.0180
  109MOL   C24732863   0.591   3.303   1.386  0.5971  0.5339 -0.1359
  109MOL   C24832864   0.703   3.631   0.988 -0.5763  0.4346 -0.1877
  109MOL   H24932865   0.789   3.432   0.988 -2.3706 -0.0445 -1.0443
  109MOL   H25032866   0.429   3.353   1.273 -0.9954 -1.4812  2.1393
  109MOL   H25132867   0.500   3.194   1.226 -1.5647  0.4889 -0.6102
  109MOL   H25232868   0.571   3.220   1.453  0.6756  0.5625 -0.0772
  109MOL   H25332869   0.700   3.306   1.379  0.6349 -1.5960 -0.8339
  109MOL   H25432870   0.574   3.398   1.436  2.2407  0.7915 -0.0265
  109MOL   H25532871   0.596   3.607   0.984 -0.7557  1.2033 -0.1180
  109MOL   H25632872   0.725   3.720   1.048  1.5510 -0.0782 -0.1733
  109MOL   C25732873   0.762   3.652   0.846  0.2824  0.7294  0.2493
  109MOL   O25832874   0.724   3.552   0.749  0.4574  0.2994  0.0021
  109MOL   C25932875   0.814   3.462   0.701 -0.0131 -0.2787  0.4525
  109MOL   O26032876   0.928   3.442   0.747  0.2741  0.8967 -0.2788
  109MOL   C26132877   0.762   3.363   0.600 -0.4222  0.6674  0.3008
  109MOL   C26232878   0.725   3.435   0.474  0.3117 -0.4566  0.0381
  109MOL   C26332879   0.702   3.787   0.782  0.0874  0.0397 -0.0737
  109MOL   H26432880   0.871   3.657   0.846  0.4082 -0.8214 -2.4532
  109MOL   H26532881   0.827   3.278   0.580  0.1129  0.6698  1.9815
  109MOL   H26632882   0.671   3.319   0.638  2.1918 -4.3059  1.1505
  109MOL   H26732883   0.702   3.352   0.407 -1.3949 -0.1318  0.2140
  109MOL   H26832884   0.635   3.497   0.479 -0.2191 -1.3307  1.4914
  109MOL   H26932885   0.810   3.479   0.422  1.8598 -1.5412  1.5850
  109MOL   H27032886   0.736   3.802   0.680  0.1105 -0.1836 -0.0986
  109MOL   H27132887   0.593   3.784   0.775  0.1635 -0.9905 -0.9124
  109MOL   C27232888   0.760   3.916   0.832 -0.7814  0.3092 -0.3532
  109MOL   O27332889   0.896   3.924   0.787 -0.0236  0.1473 -0.3935
  109MOL   C27432890   1.004   3.915   0.871 -0.1459  0.0255  0.1116
  109MOL   O27532891   0.993   3.892   0.989  0.1503 -0.2495 -0.2248
  109MOL   C27632892   1.142   3.939   0.798  0.2048  0.2953  0.8307
  109MOL   C27732893   1.180   3.828   0.701 -0.0800 -0.3800  0.6270
  109MOL   C27832894   0.687   4.037   0.801  0.0775 -0.4182 -0.2818
  109MOL   H27932895   0.757   3.908   0.941  1.6380  1.2959 -0.1932
  109MOL   H28032896   1.128   4.030   0.740 -3.0961 -0.4954  0.2292
  109MOL   H28132897   1.220   3.966   0.869  2.6556 -1.3748 -1.1322
  109MOL   H28232898   1.244   3.746   0.734 -0.2449 -0.4525  0.7692
  109MOL   H28332899   1.084   3.787   0.669  0.7590 -1.5830 -0.3587
  109MOL   H28432900   1.218   3.867   0.607 -0.7183  2.5155  1.5038
  109MOL   H28532901   0.712   4.055   0.697  1.2881 -0.6170 -0.0316
  109MOL   H28632902   0.579   4.029   0.816 -0.1023  1.5591 -0.4031
  109MOL   C28732903   0.731   4.164   0.880  0.5134  0.2545  0.3263
  109MOL   O28832904   0.688   4.271   0.795 -0.3666 -0.0393  0.4250
  109MOL   C28932905   0.778   4.321   0.702 -0.5712 -0.0821  0.5733
  109MOL   O29032906   0.891   4.286   0.671  0.0669 -0.0866  0.4261
  109MOL   C29132907   0.714   4.425   0.608  0.0918  0.8053 -0.3138
  109MOL   C29232908   0.604   4.508   0.675 -0.2425  0.3628 -0.0294
  109MOL   C29332909   0.670   4.179   1.023 -0.7730 -0.4270  0.0632
  109MOL   H29432910   0.840   4.165   0.887  0.5082 -0.4459  0.5404
  109MOL   H29532911   0.788   4.497   0.575 -1.5271  2.6593 -0.0374
  109MOL   H29632912   0.677   4.372   0.520 -1.8083  1.0917  0.2853
  109MOL   H29732913   0.573   4.586   0.606 -5.2041 -1.4893 -0.0808
  109MOL   H29832914   0.519   4.443   0.696  0.2359 -1.1292 -2.6100
  109MOL   H29932915   0.644   4.550   0.768 -1.6876 -0.9049  1.1927
  109MOL   H30032916   0.698   4.278   1.060 -0.9985  0.7640 -2.8383
  109MOL   H30132917   0.563   4.163   1.038 -0.1982 -1.5101  3.4992
  109MOL   H30232918   0.720   4.109   1.091  3.4064  2.5078  0.2090
  110MOL     C132919   1.318   3.793   0.167 -0.3200 -0.2427  0.3817
  110MOL     O232920   1.439   3.804   0.088 -0.3886  0.2925 -0.0600
  110MOL     C332921   1.503   3.918   0.087  0.5645  0.1533 -0.0497
  110MOL     O432922   1.442   4.021   0.109  0.0417 -0.2964  0.3619
  110MOL     C532923   1.635   3.901   0.017 -0.3796 -0.2084 -0.2636
  110MOL     C632924   1.728   4.019   0.032  0.5500 -0.0127  0.0296
  110MOL     C732925   1.232   3.686   0.121  0.0706 -0.5969 -0.0779
  110MOL     H832926   1.259   3.884   0.153 -0.5575 -0.4456  0.0764
  110MOL     H932927   1.680   3.816   0.069 -1.1295  0.7007  1.9158
  110MOL    H1032928   1.617   3.879   7.857 -0.7562 -0.3046 -0.1813
  110MOL    H1132929   1.834   4.007   0.011  0.3912 -2.1783  0.3918
  110MOL    H1232930   1.685   4.092   7.908 -0.5811  0.1327  0.8742
  110MOL    H1332931   1.723   4.060   0.134  0.7567  0.2034 -0.0455
  110MOL    H1432932   1.228   3.701   0.013 -0.5614  0.7012  0.1183
  110MOL    H1532933   1.292   3.595   0.132  0.2652 -0.4136  0.3744
  110MOL    H1632934   1.332   3.788   0.275  0.8878 -1.2697  0.1906
  110MOL    C1732935   1.101   3.679   0.201 -0.6019 -0.1329 -0.4103
  110MOL    O1832936   1.022   3.804   0.175  0.7457  0.1592  0.3090
  110MOL    C1932937   0.990   3.885   0.274  0.5451  0.0105  0.2729
  110MOL    O2032938   1.039   3.875   0.384  0.2119  0.2801 -0.5975
  110MOL    C2132939   0.888   3.992   0.236 -0.5903  0.7041  0.3504
  110MOL    C2232940   0.835   4.063   0.370 -0.4623  0.2666  0.0177
  110MOL    C2332941   1.004   3.557   0.162  0.1758  0.2405  0.2641
  110MOL    H2432942   1.121   3.666   0.308  0.8716  1.8642 -0.4072
  110MOL    H2532943   0.938   4.064   0.172  1.2194 -0.5009  0.3550
  110MOL    H2632944   0.808   3.936   0.188  0.8254 -1.9799  1.0095
  110MOL    H2732945   0.742   4.113   0.346 -0.7906  0.7150  2.0907
  110MOL    H2832946   0.820   3.985   0.446 -2.6081 -0.7594 -1.4203
  110MOL    H2932947   0.915   4.126   0.408 -1.2498  0.8459  0.7260
  110MOL    H3032948   0.914   3.579   0.219  1.3093 -0.4122  2.3795
  110MOL    H3132949   0.982   3.557   0.056  0.6268  2.6394  0.1419
  110MOL    C3232950   1.062   3.425   0.201  0.1112 -0.5739 -0.3677
  110MOL    O3332951   1.084   3.418   0.345  0.7315 -0.4680 -0.3955
  110MOL    C3432952   1.200   3.380   0.392 -0.2137 -0.2068  0.1142
  110MOL    O3532953   1.293   3.346   0.321 -0.2054  0.0019 -0.3221
  110MOL    C3632954   1.213   3.385   0.543  0.3489  0.1167  0.0261
  110MOL    C3732955   1.356   3.425   0.589 -0.6472 -0.3644  0.3395
  110MOL    C3832956   0.985   3.295   0.159  0.8255  0.8257  0.4213
  110MOL    H3932957   1.156   3.415   0.147  0.9935 -2.8850  1.5107
  110MOL    H4032958   1.135   3.442   0.595  0.1824 -0.3166  0.2520
  110MOL    H4132959   1.189   3.281   0.564 -3.1668  0.8763  0.0114
  110MOL    H4232960   1.354   3.462   0.691 -0.2069 -0.0060  0.2201
  110MOL    H4332961   1.415   3.334   0.583  1.1446  0.8440 -0.9123
  110MOL    H4432962   1.401   3.502   0.526 -1.6511  1.3563  1.7090
  110MOL    H4532963   1.048   3.213   0.191 -1.9950 -1.9669 -0.9498
  110MOL    H4632964   0.893   3.293   0.217  0.7779 -2.2480  0.2829
  110MOL    C4732965   0.938   3.292   0.013 -0.2791  0.0389  0.6535
  110MOL    O4832966   1.046   3.296   7.865 -0.2104  0.0438 -0.2508
  110MOL    C4932967   1.038   3.372   7.758 -0.1537  0.4154  0.1428
  110MOL    O5032968   0.938   3.430   7.722  0.2520  0.2641  0.4980
  110MOL    C5132969   1.171   3.394   7.683 -0.9123 -0.8875 -0.0711
  110MOL    C5232970   1.248   3.511   7.738 -0.0734  0.6682 -0.5320
  110MOL    C5332971   0.866   3.164   7.925 -0.6718  0.4286  0.0230
  110MOL    H5432972   0.868   3.375   7.943 -2.3699 -1.6801  0.5431
  110MOL    H5532973   1.228   3.301   7.689  1.5691  0.5889 -0.3721
  110MOL    H5632974   1.134   3.420   7.584 -1.0363 -1.3879 -0.1569
  110MOL    H5732975   1.344   3.526   7.688 -0.2051  1.9345 -0.4154
  110MOL    H5832976   1.193   3.604   7.732 -0.6884  0.5051  1.9158
  110MOL    H5932977   1.269   3.486   7.842 -0.6235 -3.2828 -1.2909
  110MOL    H6032978   0.856   3.143   7.819 -0.5702 -1.3104  0.3488
  110MOL    H6132979   0.926   3.080   0.013  0.3948  1.6489  1.2723
  110MOL    C6232980   0.724   3.158   0.046  0.1328  0.2038 -0.3539
  110MOL    O6332981   0.645   3.258   7.932  0.6169 -0.4629  0.3930
  110MOL    C6432982   0.583   3.355   0.060 -0.1239 -0.1153  0.0037
  110MOL    O6532983   0.591   3.369   0.181  0.2303 -0.2064 -0.1471
  110MOL    C6632984   0.490   3.451   7.927 -0.3976  0.3003 -1.2762
  110MOL    C6732985   0.532   3.597   7.942 -0.1374 -0.3652  0.0118
  110MOL    C6832986   0.654   3.028   0.016 -0.2900  0.1109  0.1036
  110MOL    H6932987   0.740   3.156   0.154 -1.0047 -1.0727 -0.1913
  110MOL    H7032988   0.507   3.431   7.821 -0.1976  1.2035 -1.4227
  110MOL    H7132989   0.385   3.451   0.009 -0.4685  1.6353 -1.4982
  110MOL    H7232990   0.487   3.659   7.864  0.2941  1.1645  0.9616
  110MOL    H7332991   0.504   3.637   0.095  0.9687  2.8009 -0.8995
  110MOL    H7432992   0.639   3.607   7.929 -0.1457  0.5158  0.6108
  110MOL    H7532993   0.571   3.045   7.893 -1.1356 -1.9307  0.5909
  110MOL    H7632994   0.728   2.969   7.906  1.3474  1.8126  0.4001
  110MOL    C7732995   0.612   2.960   0.146  0.6489  0.4633 -0.6341
  110MOL    O7832996   0.526   3.039   0.225  0.3029 -0.2245  0.1111
  110MOL    C7932997   0.554   3.052   0.352  0.5083 -0.2290  0.4341
  110MOL    O8032998   0.655   3.025   0.416 -0.2366 -0.1125 -0.1317
  110MOL    C8132999   0.433   3.110   0.423  0.5626 -0.9456 -0.1164
  110MOL    C8233000   0.391   3.036   0.553  0.1961 -0.3971 -0.1710
  110MOL    C8333001   0.549   2.823   0.120 -0.1837 -0.2211 -0.1921
  110MOL    H8433002   0.701   2.936   0.204  0.3119 -0.2896 -0.4319
  110MOL    H8533003   0.461   3.213   0.440  0.3985 -0.4474 -2.5892
  110MOL    H8633004   0.347   3.103   0.355  1.2684  0.0858 -1.1248
  110MOL    H8733005   0.435   3.070   0.647  0.3790  1.6767 -0.9809
  110MOL    H8833006   0.285   3.057   0.562  0.8819  3.0123  0.7222
  110MOL    H8933007   0.409   2.928   0.544 -0.4215 -0.5606  0.5590
  110MOL    H9033008   0.446   2.835   0.086 -0.0304  1.9620  0.0383
  110MOL    H9133009   0.601   2.771   0.040  0.5690 -0.9433  0.7539
  110MOL    C9233010   0.556   2.720   0.233 -0.9346  0.0844 -0.3433
  110MOL    O9333011   0.489   2.609   0.181 -0.4192 -0.7000  0.5039
  110MOL    C9433012   0.393   2.550   0.252 -0.2494  0.1067  0.1943
  110MOL    O9533013   0.353   2.578   0.368  0.4934 -0.3630  1.0035
  110MOL    C9633014   0.342   2.433   0.165 -0.3577  0.2740 -0.2807
  110MOL    C9733015   0.201   2.376   0.210  1.3100  0.7240  0.2947
  110MOL    C9833016   0.704   2.673   0.258 -0.0746  0.1256 -0.7983
  110MOL    H9933017   0.510   2.767   0.321 -0.2311  0.4147 -0.1481
  110MOL   H10033018   0.347   2.465   0.061 -0.4934  0.7344 -0.1473
  110MOL   H10133019   0.415   2.352   0.168  0.7847  1.1942 -2.3777
  110MOL   H10233020   0.212   2.297   0.283 -2.0055  0.2524  0.3740
  110MOL   H10333021   0.144   2.456   0.258 -0.8831 -1.2013  0.9977
  110MOL   H10433022   0.141   2.344   0.124  1.8448 -0.3184  0.3163
  110MOL   H10533023   0.729   2.606   0.176 -0.8168 -0.6829 -0.3843
  110MOL   H10633024   0.773   2.757   0.255 -0.3556  0.3263 -1.4936
  110MOL   C10733025   0.729   2.599   0.399  0.0442  0.0829  0.5354
  110MOL   O10833026   0.841   2.510   0.408 -0.3985  0.1284  0.6951
  110MOL   C10933027   0.962   2.531   0.359  0.2088  0.2588 -0.4600
  110MOL   O11033028   0.999   2.622   0.286  0.2838 -0.4380 -0.0091
  110MOL   C11133029   1.059   2.425   0.408 -0.3742  0.1484  0.0726
  110MOL   C11233030   1.180   2.479   0.480 -0.5512  0.4843  0.0649
  110MOL   C11333031   0.726   2.699   0.517 -0.3788 -0.5151 -0.1305
  110MOL   H11433032   0.642   2.533   0.399 -1.2417  1.7351 -0.4801
  110MOL   H11533033   1.005   2.350   0.465  1.5506 -0.9824  0.4500
  110MOL   H11633034   1.086   2.373   0.316  2.6170  0.3908  0.7565
  110MOL   H11733035   1.247   2.393   0.483 -1.3125 -0.0609  1.9306
  110MOL   H11833036   1.233   2.543   0.410 -0.1719 -0.2816 -0.3580
  110MOL   H11933037   1.173   2.510   0.584 -0.5058 -0.8303  0.4750
  110MOL   H12033038   0.820   2.754   0.525 -0.3708 -0.7259  1.3975
  110MOL   H12133039   0.653   2.776   0.491  2.8838  1.7293 -3.1161
  110MOL   C12233040   0.697   2.637   0.666 -0.3445 -0.2507 -0.2903
  110MOL   O12333041   0.759   2.719   0.767  0.5993 -0.3558  0.3086
  110MOL   C12433042   0.892   2.708   0.793 -0.1045  0.3789  0.0496
  110MOL   O12533043   0.970   2.638   0.729  0.0051 -0.5422  0.4144
  110MOL   C12633044   0.948   2.809   0.902  0.6673 -0.0387 -0.4536
  110MOL   C12733045   0.859   2.799   1.027 -0.1227 -0.5435  0.2548
  110MOL   C12833046   0.552   2.613   0.687 -0.4113 -0.2988  0.0964
  110MOL   H12933047   0.742   2.537   0.670 -3.3534 -1.6845 -0.7640
  110MOL   H13033048   1.052   2.777   0.910  0.1281 -1.5600  0.5868
  110MOL   H13133049   0.943   2.907   0.854  0.3202  0.1794  0.0312
  110MOL   H13233050   0.783   2.877   1.023 -0.5398 -0.9558  0.0579
  110MOL   H13333051   0.814   2.700   1.034  0.4932 -0.6987  2.0909
  110MOL   H13433052   0.919   2.816   1.116 -0.1373  0.4800  0.0744
  110MOL   H13533053   0.500   2.703   0.653  0.7352 -0.2650 -1.6425
  110MOL   H13633054   0.530   2.539   0.610 -0.8839 -0.9504  0.8467
  110MOL   C13733055   0.501   2.572   0.826 -0.3766 -0.4995 -0.0659
  110MOL   O13833056   0.362   2.570   0.825 -0.2833  0.1894 -0.2477
  110MOL   C13933057   0.287   2.608   0.930 -0.3438  0.4074  0.0274
  110MOL   O14033058   0.335   2.631   1.041 -0.3971  0.5440 -0.1908
  110MOL   C14133059   0.134   2.645   0.888  0.3040 -0.5042  0.1212
  110MOL   C14233060   0.043   2.664   1.008  0.6221 -0.2157  0.2034
  110MOL   C14333061   0.555   2.437   0.877 -0.6488  0.0499  1.1820
  110MOL   H14433062   0.538   2.649   0.894 -2.4864 -1.1078  1.8256
  110MOL   H14533063   0.144   2.733   0.825  1.4682 -1.7007 -1.3993
  110MOL   H14633064   0.096   2.581   0.808 -0.5377  1.6027 -1.1843
  110MOL   H14733065   7.890   2.705   0.983  1.5622  2.3567  0.6399
  110MOL   H14833066   0.021   2.564   1.046 -0.1607 -0.2625 -0.3466
  110MOL   H14933067   0.091   2.735   1.075 -1.9019  3.5637 -1.8073
  110MOL   H15033068   0.663   2.446   0.868 -0.7922 -0.2899 -1.2069
  110MOL   H15133069   0.533   2.415   0.981 -1.8183 -0.4333  0.8386
  110MOL   C15233070   0.501   2.312   0.805 -0.6219  0.2242  0.3736
  110MOL   O15333071   0.554   2.302   0.672 -0.2123 -0.5844  0.3333
  110MOL   C15433072   0.515   2.206   0.580  0.5620 -0.2462 -0.1783
  110MOL   O15533073   0.439   2.107   0.607  0.5255  0.3295  0.5773
  110MOL   C15633074   0.576   2.226   0.438 -0.0260 -0.2261  0.3703
  110MOL   C15733075   0.732   2.214   0.425  0.6488  0.0081  0.4357
  110MOL   C15833076   0.541   2.188   0.887 -0.5944 -0.3966  0.3180
  110MOL   H15933077   0.392   2.323   0.799 -1.0034 -2.2197  2.3691
  110MOL   H16033078   0.531   2.151   0.372  1.4301 -0.9132  0.1374
  110MOL   H16133079   0.553   2.329   0.412 -0.5513  0.2210  2.5021
  110MOL   H16233080   0.757   2.267   0.333  3.8979  0.4234  1.4792
  110MOL   H16333081   0.783   2.264   0.508  0.8877  0.1260  0.2195
  110MOL   H16433082   0.775   2.115   0.420 -1.9994 -1.2011  0.7324
  110MOL   H16533083   0.540   2.200   0.995  0.8353  1.4151  0.1585
  110MOL   H16633084   0.473   2.108   0.860 -1.7286  0.0245  1.8477
  110MOL   C16733085   0.688   2.144   0.868  0.2804 -0.6983  0.1676
  110MOL   O16833086   0.779   2.236   0.921 -0.5479 -0.1524  0.3101
  110MOL   C16933087   0.887   2.277   0.855  0.3094 -0.3126  0.2296
  110MOL   O17033088   0.898   2.267   0.734 -0.5896 -0.0764  0.4901
  110MOL   C17133089   0.979   2.353   0.946  0.4934 -0.6127  0.2080
  110MOL   C17233090   1.028   2.261   1.065 -0.1165  0.4173  0.0797
  110MOL   C17333091   0.711   2.005   0.928  0.1717  0.5609  0.6564
  110MOL   H17433092   0.714   2.133   0.763  1.1464 -0.0262  0.3087
  110MOL   H17533093   1.066   2.395   0.896 -0.5155  1.1111 -0.1229
  110MOL   H17633094   0.921   2.435   0.988  2.3590  2.5698 -3.1495
  110MOL   H17733095   1.069   2.316   1.150 -0.8257  0.4691  0.3964
  110MOL   H17833096   0.945   2.208   1.111  0.0977  0.0380  0.0285
  110MOL   H17933097   1.108   2.191   1.043  0.1236 -0.2752  2.9332
  110MOL   H18033098   0.706   2.008   1.036  1.5559  0.9931  0.7164
  110MOL   H18133099   0.635   1.934   0.896 -0.7099  1.4951  0.6360
  110MOL   C18233100   0.837   1.934   0.874 -0.0588  0.0562 -0.2642
  110MOL   O18333101   0.871   1.821   0.955 -0.5738  0.4791  0.4206
  110MOL   C18433102   0.967   1.831   1.049 -0.1075 -0.0063 -0.6205
  110MOL   O18533103   1.028   1.933   1.078  0.4956  0.1255  0.4826
  110MOL   C18633104   1.007   1.701   1.114 -0.2110  0.5735 -0.3377
  110MOL   C18733105   0.914   1.655   1.225  0.0115 -0.1714  0.4887
  110MOL   C18833106   0.835   1.874   0.725  0.6395  0.4573  0.2990
  110MOL   H18933107   0.913   2.013   0.877 -0.2718  0.2368  0.3710
  110MOL   H19033108   1.000   1.626   1.035 -2.3666 -0.4051  0.7468
  110MOL   H19133109   1.109   1.705   1.152 -1.1202 -0.0700  2.2769
  110MOL   H19233110   0.926   1.698   1.325  0.2486  0.6553  0.1009
  110MOL   H19333111   0.814   1.679   1.190 -0.0128  0.6298  1.0898
  110MOL   H19433112   0.916   1.548   1.246  1.8249 -0.1630  0.4182
  110MOL   H19533113   0.774   1.785   0.714  1.3575  0.2156 -2.0704
  110MOL   H19633114   0.807   1.957   0.660 -0.2246  1.1339  1.5121
  110MOL   C19733115   0.972   1.848   0.668  0.1110 -1.1673  0.1698
  110MOL   O19833116   1.054   1.973   0.676 -0.3669 -0.3805 -0.5620
  110MOL   C19933117   1.132   2.011   0.573 -1.0262 -0.1345  0.1135
  110MOL   O20033118   1.155   1.956   0.470 -0.2010  0.4209  0.3625
  110MOL   C20133119   1.193   2.152   0.590  0.0246 -0.7111  0.3871
  110MOL   C20233120   1.319   2.157   0.687 -0.0421  0.2817 -0.2947
  110MOL   C20333121   1.047   1.729   0.726 -0.0032 -0.3227 -0.2089
  110MOL   H20433122   0.954   1.826   0.563 -1.9021 -0.2139  0.2892
  110MOL   H20533123   1.227   2.181   0.491 -0.0984 -1.8860 -0.0072
  110MOL   H20633124   1.112   2.220   0.618  0.6132  0.3293 -0.4139
  110MOL   H20733125   1.298   2.121   0.788 -1.4002  3.7519  0.7586
  110MOL   H20833126   1.411   2.112   0.649  1.9206  2.8147  1.3344
  110MOL   H20933127   1.357   2.259   0.694 -1.5071  0.8634 -0.4685
  110MOL   H21033128   1.108   1.766   0.808 -0.1548 -1.0351  0.2261
  110MOL   H21133129   0.978   1.656   0.768 -0.3735 -1.2518 -2.3227
  110MOL   C21233130   1.155   1.659   0.644  0.3903 -0.2574 -0.6037
  110MOL   O21333131   1.269   1.654   0.729 -0.6710 -0.0745  0.0075
  110MOL   C21433132   1.401   1.661   0.671  0.5627  0.3131  0.0493
  110MOL   O21533133   1.431   1.655   0.550  0.3749 -0.2839  0.8031
  110MOL   C21633134   1.508   1.677   0.781 -1.2765  0.6442 -0.1671
  110MOL   C21733135   1.460   1.779   0.890  0.0968 -0.1392  0.1784
  110MOL   C21833136   1.112   1.529   0.585  0.2497 -0.6187  0.2336
  110MOL   H21933137   1.190   1.724   0.564  0.8304  0.5999  0.2694
  110MOL   H22033138   1.524   1.578   0.824  0.1412  0.9247 -0.0324
  110MOL   H22133139   1.604   1.705   0.737  0.9672 -0.9687  3.4333
  110MOL   H22233140   1.545   1.813   0.950 -1.1301  4.3434 -0.4464
  110MOL   H22333141   1.415   1.866   0.843 -0.6998 -1.1760 -1.0125
  110MOL   H22433142   1.380   1.747   0.957  0.3586 -1.9493 -0.3334
  110MOL   H22533143   1.204   1.473   0.568  1.2999  1.3714 -0.8329
  110MOL   H22633144   1.057   1.470   0.658 -1.3152 -1.1549 -1.3421
  110MOL   C22733145   1.025   1.527   0.460 -0.0538 -0.3053 -1.2189
  110MOL   O22833146   1.105   1.580   0.357 -0.3918 -0.2176  0.2106
  110MOL   C22933147   1.050   1.663   0.269 -0.7004  0.1518 -0.5493
  110MOL   O23033148   0.936   1.707   0.275 -0.0401 -0.5112 -0.6094
  110MOL   C23133149   1.146   1.692   0.162  0.1089  0.3290 -0.1805
  110MOL   C23233150   1.279   1.748   0.213 -0.0794  0.5688  0.0104
  110MOL   C23333151   0.986   1.384   0.419 -0.0627  0.2664 -0.4346
  110MOL   H23433152   0.937   1.590   0.473  2.1623  2.5674  0.5560
  110MOL   H23533153   1.171   1.599   0.111 -0.3569  0.3938 -0.5274
  110MOL   H23633154   1.090   1.752   0.090 -1.2041  0.8676  1.2507
  110MOL   H23733155   1.271   1.829   0.286 -1.5436 -1.0408  1.7027
  110MOL   H23833156   1.351   1.683   0.261  1.4041  2.8710  1.0130
  110MOL   H23933157   1.331   1.788   0.126  0.7812 -1.6524 -0.5288
  110MOL   H24033158   0.947   1.385   0.317  1.7217 -1.7552 -1.1700
  110MOL   H24133159   1.074   1.322   0.413 -0.4817 -0.1725 -2.1245
  110MOL   C24233160   0.877   1.321   0.512  0.1086  0.0619 -0.3006
  110MOL   O24333161   0.750   1.381   0.484 -0.0996 -0.0801 -0.6097
  110MOL   C24433162   0.699   1.478   0.566  0.0636 -0.4335  0.3530
  110MOL   O24533163   0.752   1.528   0.664 -0.2654 -0.3792 -0.0328
  110MOL   C24633164   0.561   1.524   0.529 -0.0726 -0.5896 -0.0259
  110MOL   C24733165   0.565   1.620   0.411  0.4384 -0.4400  0.6674
  110MOL   C24833166   0.856   1.177   0.481  0.5633 -0.2155 -0.0878
  110MOL   H24933167   0.890   1.321   0.621  0.8693 -0.2881 -0.3885
  110MOL   H25033168   0.495   1.440   0.511  0.2721 -0.5629 -1.4474
  110MOL   H25133169   0.520   1.573   0.617  1.2889  1.1873 -0.3383
  110MOL   H25233170   0.466   1.651   0.378  0.8455 -0.1225 -0.2882
  110MOL   H25333171   0.611   1.710   0.452 -2.1976  1.3474 -0.1806
  110MOL   H25433172   0.619   1.586   0.323 -1.4748 -0.0477 -0.6849
  110MOL   H25533173   0.841   1.156   0.375  1.6407  0.2520 -0.3393
  110MOL   H25633174   0.954   1.133   0.497  0.9854  0.4145 -0.8755
  110MOL   C25733175   0.760   1.116   0.585 -0.7658  0.3928  0.0788
  110MOL   O25833176   0.699   0.999   0.536  0.6038  0.1336 -0.0416
  110MOL   C25933177   0.588   1.009   0.458  0.1865 -0.0496 -0.2597
  110MOL   O26033178   0.536   1.110   0.419 -0.6235 -0.2872 -0.1563
  110MOL   C26133179   0.539   0.878   0.413 -0.2135 -0.1643 -0.0481
  110MOL   C26233180   0.485   0.784   0.523  0.0399  0.1100  0.3193
  110MOL   C26333181   0.848   1.075   0.705 -0.5088  0.1679  0.4592
  110MOL   H26433182   0.693   1.195   0.617 -0.6070  0.5517  0.0243
  110MOL   H26533183   0.463   0.904   0.339  0.2225 -0.5437 -0.6339
  110MOL   H26633184   0.613   0.819   0.360  0.3369 -2.6036  3.3394
  110MOL   H26733185   0.410   0.718   0.481 -0.1486  0.4707  0.0886
  110MOL   H26833186   0.566   0.721   0.560 -0.2894 -0.0725  0.7313
  110MOL   H26933187   0.441   0.834   0.610  2.0719  1.7418  0.4431
  110MOL   H27033188   0.912   0.993   0.673  0.8114  1.6268 -0.6922
  110MOL   H27133189   0.921   1.153   0.722  0.8828 -1.3201  1.4409
  110MOL   C27233190   0.776   1.040   0.834  0.2476 -0.4508  0.5708
  110MOL   O27333191   0.714   1.159   0.879  0.0817  0.2252 -0.3635
  110MOL   C27433192   0.762   1.220   0.984  0.6496  0.1355  0.0537
  110MOL   O27533193   0.855   1.189   1.060  0.4340  0.2813 -0.3120
  110MOL   C27633194   0.691   1.359   0.995 -0.3942  0.6792 -0.6487
  110MOL   C27733195   0.548   1.336   1.054  0.0477 -0.4209 -0.2968
  110MOL   C27833196   0.666   0.931   0.822 -0.9047 -0.5048  0.1033
  110MOL   H27933197   0.848   0.999   0.905 -0.4847 -2.0681  0.4124
  110MOL   H28033198   0.747   1.429   1.057  2.0341 -0.0392 -1.9639
  110MOL   H28133199   0.687   1.414   0.901  0.8602 -0.6116 -1.4701
  110MOL   H28233200   0.479   1.420   1.042  0.5370 -0.0675 -0.6757
  110MOL   H28333201   0.492   1.259   1.003  1.8118 -0.2880 -2.5396
  110MOL   H28433202   0.564   1.303   1.157  0.8118  1.1707  0.1151
  110MOL   H28533203   0.575   0.987   0.801 -0.1088  1.0143  0.6024
  110MOL   H28633204   0.692   0.862   0.741 -0.7199  0.7044 -0.8848
  110MOL   C28733205   0.640   0.848   0.948  0.3197 -1.2683  0.3458
  110MOL   O28833206   0.621   0.927   1.057  0.4407  0.3369  0.5314
  110MOL   C28933207   0.720   0.930   1.156  0.7477 -0.0545  0.3347
  110MOL   O29033208   0.822   0.863   1.144  0.0141 -0.2919  0.3146
  110MOL   C29133209   0.691   1.018   1.275  0.2375  0.0433 -0.2639
  110MOL   C29233210   0.543   1.041   1.298  0.7863 -0.0347 -0.2210
  110MOL   C29333211   0.516   0.764   0.933 -0.5303  0.3586 -0.1025
  110MOL   H29433212   0.724   0.778   0.948  1.6519  0.2788 -0.6121
  110MOL   H29533213   0.735   0.961   1.356 -0.6763 -2.0378 -1.1966
  110MOL   H29633214   0.746   1.110   1.255  2.3447 -1.2469 -0.4977
  110MOL   H29733215   0.483   0.950   1.301 -0.5145  0.7718 -1.0124
  110MOL   H29833216   0.521   1.090   1.393  0.7313 -0.6905  0.1071
  110MOL   H29933217   0.499   1.109   1.225  0.7899 -0.7381 -0.8809
  110MOL   H30033218   0.514   0.715   1.030  1.1479 -1.8912 -1.1533
  110MOL   H30133219   0.428   0.823   0.909 -1.4431 -1.1268 -0.4738
  110MOL   H30233220   0.526   0.692   0.851 -2.2109  1.0858 -0.9640
  111MOL     C133221   1.909   7.710   4.906 -0.6187  0.3870  0.4058
  111MOL     O233222   1.855   7.583   4.949  0.2739 -0.6651  0.5152
  111MOL     C333223   1.770   7.574   5.052 -0.4709 -0.1014  0.9824
  111MOL     O433224   1.718   7.659   5.118 -0.1003 -0.3385 -0.2393
  111MOL     C533225   1.748   7.424   5.086  0.7546  0.5643 -0.3507
  111MOL     C633226   1.839   7.324   5.001  0.3134 -0.6559 -0.4474
  111MOL     C733227   2.063   7.699   4.917 -0.2047  0.2186  0.4347
  111MOL     H833228   1.874   7.793   4.968 -0.8994 -0.8685  1.9528
  111MOL     H933229   1.761   7.398   5.191 -0.7629  0.5102 -0.1664
  111MOL    H1033230   1.643   7.406   5.067  0.1182  1.9666  1.7211
  111MOL    H1133231   1.943   7.335   5.033 -0.4530 -1.1813  2.3951
  111MOL    H1233232   1.808   7.221   5.018 -1.2787 -0.0907  0.1553
  111MOL    H1333233   1.814   7.348   4.898 -1.3651  2.9437  0.7087
  111MOL    H1433234   2.084   7.640   5.005  0.1717 -3.7950 -2.2286
  111MOL    H1533235   2.096   7.633   4.837  1.9427 -3.6549  4.3245
  111MOL    H1633236   1.858   7.712   4.810 -1.3878 -2.1704  0.7268
  111MOL    C1733237   2.133   7.838   4.917 -0.2470  0.3046  0.5906
  111MOL    O1833238   2.122   7.884   5.049  0.0090  0.4283  0.1798
  111MOL    C1933239   2.130   0.067   5.086 -0.3327 -0.5096  0.7408
  111MOL    O2033240   2.138   0.161   5.013 -0.6453  0.2100 -0.2449
  111MOL    C2133241   2.102   0.079   5.240  0.8520  0.2471  0.1657
  111MOL    C2233242   2.142   0.216   5.294 -0.2359 -0.0598 -0.0778
  111MOL    C2333243   2.282   7.837   4.882 -0.1912 -0.3654  0.2629
  111MOL    H2433244   2.072   7.896   4.848 -0.8487 -2.2354 -1.0723
  111MOL    H2533245   1.996   0.067   5.261  1.2932 -1.4403  1.5978
  111MOL    H2633246   2.161   7.943   5.284  2.3108  0.6107 -1.0864
  111MOL    H2733247   2.092   0.292   5.234 -0.4666 -1.2029 -1.3570
  111MOL    H2833248   2.105   0.222   5.397 -0.9098 -0.9673 -0.2574
  111MOL    H2933249   2.250   0.223   5.301 -0.2449  0.5314 -0.4483
  111MOL    H3033250   2.319   7.938   4.899 -0.2924  0.1717 -2.4458
  111MOL    H3133251   2.332   7.778   4.959  1.6935 -2.7417 -2.6217
  111MOL    C3233252   2.313   7.800   4.742 -0.2456 -0.8074  0.0249
  111MOL    O3333253   2.261   7.901   4.657  0.0217  0.4309 -0.1375
  111MOL    C3433254   2.159   7.862   4.579 -0.0393 -0.1056 -0.3938
  111MOL    O3533255   2.084   7.763   4.593  0.8807  0.3019 -0.2868
  111MOL    C3633256   2.143   0.016   4.465 -0.0425 -0.5586  0.5760
  111MOL    C3733257   2.227   0.009   4.342  0.0771 -0.0956  0.4333
  111MOL    C3833258   2.467   7.805   4.713 -0.4550  0.2271 -0.7146
  111MOL    H3933259   2.281   7.697   4.728 -0.5779 -0.4949 -1.6454
  111MOL    H4033260   2.038   0.014   4.435  0.2895 -1.4605 -0.5649
  111MOL    H4133261   2.139   0.115   4.510 -1.3218 -0.4907  0.3455
  111MOL    H4233262   2.181   7.891   4.266  0.1059 -2.0448  1.9917
  111MOL    H4333263   2.266   0.099   4.293 -2.7064  1.0265  0.1664
  111MOL    H4433264   2.316   7.894   4.363 -0.2267 -0.8852 -0.5221
  111MOL    H4533265   2.476   7.795   4.605  1.7471  3.9638 -0.9610
  111MOL    H4633266   2.501   7.907   4.727 -1.7915  0.5580  0.1700
  111MOL    C4733267   2.562   7.717   4.796 -0.1099 -0.7484  0.3585
  111MOL    O4833268   2.538   7.583   4.768  0.0992  0.4406  0.3661
  111MOL    C4933269   2.485   7.505   4.861 -0.1263 -0.2769  0.1483
  111MOL    O5033270   2.484   7.533   4.982  0.1401 -0.2177 -0.6806
  111MOL    C5133271   2.408   7.383   4.801 -0.2756  0.5091  0.4284
  111MOL    C5233272   2.371   7.283   4.916  0.4498 -0.3302  0.1129
  111MOL    C5333273   2.708   7.758   4.772 -0.6919  0.1611 -0.4555
  111MOL    H5433274   2.540   7.748   4.898 -1.3556 -1.3196  0.2693
  111MOL    H5533275   2.326   7.420   4.740  0.4628 -0.4863 -1.1919
  111MOL    H5633276   2.463   7.329   4.724 -0.5967 -0.2818  0.7430
  111MOL    H5733277   2.285   7.316   4.974 -0.1671 -1.2090 -0.2907
  111MOL    H5833278   2.346   7.182   4.883  1.6491 -1.0405  1.3682
  111MOL    H5933279   2.457   7.280   4.982  1.8244  0.2156 -1.6081
  111MOL    H6033280   2.734   7.760   4.666 -0.7505  0.2920 -0.4681
  111MOL    H6133281   2.716   7.856   4.820  1.9695 -0.3827  0.2869
  111MOL    C6233282   2.809   7.663   4.847 -0.7095  0.7071 -0.2943
  111MOL    O6333283   2.936   7.718   4.808  0.2070  0.2963 -0.0372
  111MOL    C6433284   2.995   7.674   4.691 -0.1007  0.0966  0.1739
  111MOL    O6533285   2.983   7.560   4.637  0.3038 -0.4378 -0.1165
  111MOL    C6633286   3.098   7.773   4.643 -0.4989 -0.5706  0.9722
  111MOL    C6733287   3.224   7.783   4.728  0.2601  0.1768  0.4168
  111MOL    C6833288   2.789   7.682   5.000 -0.3846 -0.0737 -0.1987
  111MOL    H6933289   2.799   7.560   4.814  0.5396  0.4393  0.1391
  111MOL    H7033290   3.112   7.740   4.540  0.6385 -1.6337  1.4602
  111MOL    H7133291   3.063   7.874   4.620  0.3809 -0.2536  1.0054
  111MOL    H7233292   3.291   7.701   4.704  1.4474  0.6736  1.9245
  111MOL    H7333293   3.277   7.875   4.705  0.0474  0.5777  1.4864
  111MOL    H7433294   3.204   7.794   4.835  1.8632  0.5159  0.6995
  111MOL    H7533295   2.781   7.787   5.030  2.1999  0.1191 -0.0121
  111MOL    H7633296   2.692   7.639   5.022 -1.4743  2.2561 -0.3048
  111MOL    C7733297   2.901   7.626   5.088 -0.1563 -0.8886  0.3074
  111MOL    O7833298   2.883   7.677   5.227 -0.5546  0.8971  0.1469
  111MOL    C7933299   2.981   7.743   5.284  0.2722 -0.3213 -0.3250
  111MOL    O8033300   3.095   7.757   5.236 -0.2764  0.0811 -0.0611
  111MOL    C8133301   2.939   7.805   5.416  0.0372 -0.2462  0.4593
  111MOL    C8233302   2.895   0.011   5.409  0.4300  0.4035  0.2956
  111MOL    C8333303   2.914   7.477   5.096  0.5806 -0.5471  0.3130
  111MOL    H8433304   2.986   7.681   5.048 -0.6290  0.4288  1.0747
  111MOL    H8533305   2.861   7.743   5.461 -0.0403 -0.4449  0.0536
  111MOL    H8633306   3.024   7.794   5.484  0.1179  0.8233  0.5405
  111MOL    H8733307   2.836   0.043   5.324 -0.9739 -1.7184  0.4381
  111MOL    H8833308   2.834   0.017   5.499 -0.6491 -2.6862 -0.1891
  111MOL    H8933309   2.977   0.082   5.422  0.9931 -0.0569 -0.6974
  111MOL    H9033310   2.931   7.448   5.200 -1.3645 -0.3589  0.7143
  111MOL    H9133311   2.815   7.436   5.075 -0.3654  2.2647 -0.9689
  111MOL    C9233312   3.030   7.418   5.016  0.1297 -0.2253 -0.3353
  111MOL    O9333313   3.151   7.470   5.053 -0.1998 -0.5711 -0.0240
  111MOL    C9433314   3.250   7.495   4.957 -0.2056  0.1406 -0.0906
  111MOL    O9533315   3.217   7.494   4.837 -0.4733 -0.2115 -0.5560
  111MOL    C9633316   3.386   7.530   5.011 -0.3452  0.0388  0.5851
  111MOL    C9733317   3.420   7.475   5.145  0.5851 -0.8143 -0.3134
  111MOL    C9833318   3.047   7.262   5.044 -0.0916 -0.3924  0.1028
  111MOL    H9933319   3.020   7.435   4.909  2.0584  0.7062 -0.3938
  111MOL   H10033320   3.461   7.488   4.945 -1.1112 -1.5621  0.7033
  111MOL   H10133321   3.403   7.638   5.010  1.2036 -0.1638  2.4693
  111MOL   H10233322   3.354   7.530   5.212  0.9796 -2.7143  1.6880
  111MOL   H10333323   3.379   7.375   5.157  0.9350 -0.7796  1.3065
  111MOL   H10433324   3.526   7.487   5.168  0.4930 -0.8000  0.1191
  111MOL   H10533325   3.142   7.228   5.002  0.6621  0.9077  0.6963
  111MOL   H10633326   3.061   7.246   5.151  1.7178  0.8007  0.0792
  111MOL   C10733327   2.937   7.170   4.999  0.7643 -0.0978  0.8341
  111MOL   O10833328   2.905   7.173   4.857  0.4755 -0.2720 -0.1468
  111MOL   C10933329   2.819   7.257   4.799  0.5093 -0.6844 -0.5602
  111MOL   O11033330   2.752   7.344   4.858 -0.5599  0.6359 -0.7582
  111MOL   C11133331   2.821   7.234   4.651  0.1913  0.1706 -0.6491
  111MOL   C11233332   2.745   7.117   4.609  0.2116 -0.4068 -0.3674
  111MOL   C11333333   2.962   7.021   5.034 -0.5843  0.8141 -0.3550
  111MOL   H11433334   2.853   7.205   5.059  0.3846 -1.5176  1.1458
  111MOL   H11533335   2.770   7.316   4.598  0.5820  1.0838  0.3679
  111MOL   H11633336   2.920   7.220   4.608 -0.2582  0.3086 -1.7496
  111MOL   H11733337   2.791   7.073   4.521 -0.6344 -1.0286 -0.5152
  111MOL   H11833338   2.748   7.031   4.677 -3.1191 -0.0782  0.3011
  111MOL   H11933339   2.641   7.132   4.579  0.2588 -1.3732 -1.0444
  111MOL   H12033340   3.050   6.989   4.978 -0.3883  0.4600  0.1609
  111MOL   H12133341   2.998   7.010   5.136 -0.6810  0.0752 -0.4034
  111MOL   C12233342   2.839   6.931   5.011  0.0133 -0.0806 -0.3513
  111MOL   O12333343   2.892   6.799   5.021 -0.5376  0.4552  0.4281
  111MOL   C12433344   2.890   6.715   4.917  0.5048  0.2580  0.5402
  111MOL   O12533345   2.827   6.742   4.811  0.5222 -0.4247  0.3295
  111MOL   C12633346   2.965   6.581   4.938  0.1066 -0.5824  0.6858
  111MOL   C12733347   3.106   6.606   4.985  0.5753  0.3274  0.2516
  111MOL   C12833348   2.724   6.949   5.108 -0.0222 -0.0046  0.2899
  111MOL   H12933349   2.793   6.957   4.916  1.6952  0.7205 -0.9626
  111MOL   H13033350   2.907   6.521   5.008 -0.7856  1.1592  1.4682
  111MOL   H13133351   2.951   6.532   4.842  1.1065 -0.6271  0.5587
  111MOL   H13233352   3.167   6.669   4.921  0.2658  1.3615  0.9518
  111MOL   H13333353   3.120   6.637   5.089  2.8925  0.4985 -0.0786
  111MOL   H13433354   3.172   6.519   4.981 -0.0699 -0.1913  0.7305
  111MOL   H13533355   2.678   6.857   5.143 -0.1261 -0.4389 -0.9755
  111MOL   H13633356   2.767   6.996   5.197 -1.8698 -0.4810  1.4529
  111MOL   C13733357   2.606   7.037   5.064 -0.3030  0.0567 -0.1081
  111MOL   O13833358   2.551   7.001   4.938  0.3305  0.2069 -0.4044
  111MOL   C13933359   2.491   6.889   4.919  1.0499  0.1668  0.1729
  111MOL   O14033360   2.483   6.796   4.996  0.2906  0.1098 -0.7990
  111MOL   C14133361   2.430   6.883   4.778 -0.1281 -0.0893 -0.3306
  111MOL   C14233362   2.391   6.744   4.720  0.1134  0.3001  0.5417
  111MOL   C14333363   2.487   7.041   5.169 -0.1548 -0.4742  0.1836
  111MOL   H14433364   2.647   7.136   5.048  2.0409 -1.0274 -1.1085
  111MOL   H14533365   2.338   6.941   4.788  1.3381  1.9990  1.3104
  111MOL   H14633366   2.497   6.943   4.717 -0.8990  1.5787  0.4238
  111MOL   H14733367   2.305   6.701   4.772  0.4390 -2.3124 -0.9613
  111MOL   H14833368   2.362   6.754   4.615  0.5140  1.6089  0.5460
  111MOL   H14933369   2.476   6.677   4.734  0.6844  1.3199  2.0875
  111MOL   H15033370   2.400   7.095   5.131  0.2226 -1.6718 -2.5441
  111MOL   H15133371   2.462   6.937   5.187  0.7509 -1.1289 -2.0873
  111MOL   C15233372   2.523   7.101   5.311  0.1929 -1.1667 -0.6132
  111MOL   O15333373   2.521   7.244   5.300  0.2739 -0.3788 -0.4925
  111MOL   C15433374   2.626   7.320   5.300  0.4771 -0.0477 -0.7402
  111MOL   O15533375   2.746   7.274   5.315 -0.2274 -0.0167 -0.1506
  111MOL   C15633376   2.598   7.470   5.274  0.0077 -0.1110  0.7958
  111MOL   C15733377   2.548   7.542   5.394  0.0764 -0.4348 -0.2712
  111MOL   C15833378   2.429   7.074   5.423  0.1891 -0.0687 -0.7145
  111MOL   H15933379   2.621   7.063   5.340 -0.1475 -1.2288  0.4914
  111MOL   H16033380   2.686   7.519   5.231 -0.6683  2.0228  1.7390
  111MOL   H16133381   2.522   7.476   5.196  0.0055  2.9052  0.9718
  111MOL   H16233382   2.631   7.563   5.462  1.2320  0.2134 -1.8534
  111MOL   H16333383   2.502   7.640   5.376  2.3186  0.7786  0.4001
  111MOL   H16433384   2.482   7.480   5.455 -0.8531 -0.8630 -1.7012
  111MOL   H16533385   2.435   6.966   5.430 -0.4421 -0.0823 -0.3964
  111MOL   H16633386   2.486   7.110   5.509  1.3444 -1.7260 -0.7643
  111MOL   C16733387   2.289   7.127   5.408  0.1947  0.1169 -0.9032
  111MOL   O16833388   2.213   7.078   5.299 -0.0570  0.0830  0.4879
  111MOL   C16933389   2.175   6.952   5.282  0.3819  0.7969 -0.3062
  111MOL   O17033390   2.170   6.876   5.377 -0.0857 -0.4342 -0.6642
  111MOL   C17133391   2.110   6.919   5.147 -0.0705 -1.2362  0.1314
  111MOL   C17233392   2.051   7.042   5.075 -0.1641  0.4329  0.5260
  111MOL   C17333393   2.218   7.126   5.550  0.2528  0.0474 -0.3396
  111MOL   H17433394   2.300   7.234   5.393 -0.5483  0.4991  1.0227
  111MOL   H17533395   2.191   6.876   5.087  0.2684 -0.3712 -0.0361
  111MOL   H17633396   2.029   6.848   5.164 -1.9188  0.9228  0.5674
  111MOL   H17733397   2.136   7.102   5.042  0.2045 -0.1039  0.4876
  111MOL   H17833398   1.992   7.006   4.991  0.4409 -0.9417  0.6670
  111MOL   H17933399   1.983   7.105   5.132 -2.4598 -1.8792  0.4615
  111MOL   H18033400   2.224   7.024   5.588 -2.3879 -0.9967 -2.6374
  111MOL   H18133401   2.278   7.181   5.623 -1.8841  0.4701  1.1196
  111MOL   C18233402   2.085   7.197   5.555  0.1134 -0.0755  0.6952
  111MOL   O18333403   1.987   7.097   5.531 -0.3366 -0.4996  0.6899
  111MOL   C18433404   1.884   7.133   5.443 -0.1419 -0.4726  0.0512
  111MOL   O18533405   1.861   7.247   5.401  0.3925  0.3355  0.1556
  111MOL   C18633406   1.792   7.016   5.401 -0.0194 -0.0700  0.4773
  111MOL   C18733407   1.660   7.062   5.338 -0.8675 -0.2145  0.9645
  111MOL   C18833408   2.058   7.274   5.685 -0.0266 -0.5915 -0.0642
  111MOL   H18933409   2.084   7.269   5.473 -0.0675 -1.0560 -0.1783
  111MOL   H19033410   1.846   6.954   5.329 -0.3945  1.2209 -0.9678
  111MOL   H19133411   1.772   6.960   5.491 -0.4091 -0.8369 -0.0816
  111MOL   H19233412   1.602   6.975   5.307  1.6836 -2.0767  1.2708
  111MOL   H19333413   1.597   7.123   5.403 -0.6655  0.0463  0.9169
  111MOL   H19433414   1.696   7.118   5.251  2.0750  1.2504  3.0415
  111MOL   H19533415   1.951   7.294   5.689  0.0039 -0.4794  0.1536
  111MOL   H19633416   2.081   7.208   5.768  1.3287  0.0349  0.0701
  111MOL   C19733417   2.136   7.405   5.705  0.1681 -0.2095 -0.0620
  111MOL   O19833418   2.084   7.512   5.622 -0.3298 -0.1762 -0.5469
  111MOL   C19933419   2.137   7.527   5.503 -0.3182 -0.4681  1.3454
  111MOL   O20033420   2.241   7.469   5.475 -0.1271 -1.1456  0.0185
  111MOL   C20133421   2.059   7.623   5.410  0.0675  0.0929  0.5469
  111MOL   C20233422   2.135   7.642   5.278 -0.2529  0.2144  0.0021
  111MOL   C20333423   2.127   7.456   5.849  0.2805  0.2376 -1.4766
  111MOL   H20433424   2.242   7.389   5.686 -0.1482 -2.8657  0.2129
  111MOL   H20533425   1.956   7.587   5.406  0.9902 -2.5081 -0.6809
  111MOL   H20633426   2.057   7.721   5.459  1.8970  0.2410  0.3570
  111MOL   H20733427   2.159   7.549   5.225 -1.3653 -0.8534  1.3147
  111MOL   H20833428   2.078   7.718   5.225  1.6252  1.0291 -0.8867
  111MOL   H20933429   2.227   7.697   5.294  0.0214 -0.1954 -0.1634
  111MOL   H21033430   2.024   7.482   5.872  0.6756 -1.0597  2.0084
  111MOL   H21133431   2.158   7.380   5.920  0.1131 -1.2209 -2.9393
  111MOL   C21233432   2.200   7.593   5.874  0.4003  0.8558  0.6047
  111MOL   O21333433   2.200   7.609   6.016  0.5180  0.0065 -0.4624
  111MOL   C21433434   2.098   7.685   6.074  0.4029 -0.0027 -0.8044
  111MOL   O21533435   2.005   7.732   6.012  0.0548 -0.2334 -0.2395
  111MOL   C21633436   2.112   7.698   6.221 -0.7009 -0.0923  0.2774
  111MOL   C21733437   2.015   7.620   6.299  0.0727  0.5847  0.4054
  111MOL   C21833438   2.347   7.599   5.824  0.1291  0.6143 -0.2442
  111MOL   H21933439   2.149   7.681   5.834  0.1227  1.6874  2.6836
  111MOL   H22033440   2.212   7.683   6.261 -0.2864 -0.2170 -0.7861
  111MOL   H22133441   2.096   7.804   6.244  2.2602  0.1138  1.5769
  111MOL   H22233442   1.992   7.686   6.382  0.0101  0.5198  0.4400
  111MOL   H22333443   1.914   7.607   6.261  0.3093  0.5284 -0.2220
  111MOL   H22433444   2.067   7.535   6.344  1.3796  0.2863 -1.5649
  111MOL   H22533445   2.338   7.623   5.718 -0.8609 -0.4302 -0.4046
  111MOL   H22633446   2.393   7.691   5.860  0.4464  0.3987 -0.1021
  111MOL   C22733447   2.444   7.477   5.851 -0.1732  0.6584 -0.5367
  111MOL   O22833448   2.572   7.499   5.786 -0.0523  0.3471  0.1738
  111MOL   C22933449   2.631   7.407   5.705 -0.5506 -0.1551 -0.1441
  111MOL   O23033450   2.577   7.299   5.685  0.1095  0.5063  0.5413
  111MOL   C23133451   2.773   7.434   5.671 -0.3284 -0.8521 -0.2790
  111MOL   C23233452   2.877   7.390   5.771  0.1972  0.5556 -0.2617
  111MOL   C23333453   2.458   7.454   6.000 -0.0143 -0.5284 -0.1301
  111MOL   H23433454   2.384   7.397   5.807  1.0339  0.1854 -1.3358
  111MOL   H23533455   2.792   7.389   5.574 -1.4045  0.6880 -1.2337
  111MOL   H23633456   2.787   7.542   5.662  0.9896 -0.7372  2.6941
  111MOL   H23733457   2.869   7.285   5.802  0.9968  0.1740 -1.3135
  111MOL   H23833458   2.979   7.401   5.735  0.2124  0.0202 -0.3927
  111MOL   H23933459   2.870   7.459   5.855 -3.0657  0.6601 -0.5251
  111MOL   H24033460   2.514   7.537   6.042  1.4871 -1.3765 -0.4128
  111MOL   H24133461   2.364   7.454   6.055 -0.6811  2.8395 -1.1544
  111MOL   C24233462   2.527   7.321   6.032  0.2635  0.1836  0.1686
  111MOL   O24333463   2.563   7.317   6.167 -0.2134  0.1464  0.1348
  111MOL   C24433464   2.694   7.281   6.194 -0.5194  0.1185 -0.0701
  111MOL   O24533465   2.779   7.260   6.105 -0.2709  0.6786 -0.6928
  111MOL   C24633466   2.721   7.264   6.343 -0.0517 -1.0756  0.9972
  111MOL   C24733467   2.627   7.155   6.396  0.8145 -0.6331  0.9412
  111MOL   C24833468   2.447   7.198   5.989  0.8109  0.4342  0.1085
  111MOL   H24933469   2.615   7.323   5.968 -1.1163  0.8608 -1.7582
  111MOL   H25033470   2.827   7.256   6.365  0.1364 -1.5754 -0.0640
  111MOL   H25133471   2.689   7.358   6.387  1.3234  0.2412 -0.7287
  111MOL   H25233472   2.660   7.056   6.366  0.2061 -0.8438  0.9729
  111MOL   H25333473   2.618   7.160   6.505  1.7365  1.9669  0.9408
  111MOL   H25433474   2.527   7.174   6.356  0.3128  2.9518  3.6390
  111MOL   H25533475   2.359   7.182   6.053  0.5254  1.5727  0.0056
  111MOL   H25633476   2.407   7.214   5.889  1.8757  1.3521 -0.1733
  111MOL   C25733477   2.530   7.062   5.996  0.2296  0.0255 -0.2895
  111MOL   O25833478   2.449   6.948   6.006 -0.1680 -0.3774 -0.1280
  111MOL   C25933479   2.409   6.904   6.134 -0.6114  0.0084 -0.0345
  111MOL   O26033480   2.415   6.964   6.244 -0.0306  0.4257 -0.0695
  111MOL   C26133481   2.343   6.779   6.121 -0.5329  0.4914 -0.7413
  111MOL   C26233482   2.432   6.665   6.124 -0.4932  0.5524 -0.4343
  111MOL   C26333483   2.617   7.046   5.864 -0.3683  0.7429  0.2149
  111MOL   H26433484   2.597   7.067   6.082  0.4897 -1.4262 -0.3968
  111MOL   H26533485   2.274   6.779   6.206 -1.2517  1.8697 -1.3113
  111MOL   H26633486   2.277   6.769   6.035 -0.8678 -1.0865 -0.3146
  111MOL   H26733487   2.506   6.677   6.045  0.5530 -0.0158  0.4371
  111MOL   H26833488   2.479   6.673   6.222  0.4244 -0.8457 -0.7482
  111MOL   H26933489   2.390   6.565   6.118 -0.3926  0.4875 -0.0756
  111MOL   H27033490   2.543   7.046   5.783  1.6198 -2.0582 -1.6773
  111MOL   H27133491   2.679   7.135   5.858 -0.8230  0.8635 -3.6335
  111MOL   C27233492   2.709   6.926   5.852 -0.1594 -0.1178  0.0340
  111MOL   O27333493   2.793   6.937   5.733 -0.2832  0.4461 -0.0400
  111MOL   C27433494   2.751   6.900   5.611  0.0885  1.1858 -0.4479
  111MOL   O27533495   2.653   6.825   5.571  0.0131 -0.2986 -0.5676
  111MOL   C27633496   2.850   6.938   5.504 -0.0360 -0.4728  0.4141
  111MOL   C27733497   2.908   7.082   5.526 -0.2254  0.2274 -0.3894
  111MOL   C27833498   2.786   6.912   5.984  1.2511  0.2070 -0.1730
  111MOL   H27933499   2.645   6.837   5.846  0.2597 -0.4424  0.3329
  111MOL   H28033500   2.930   6.864   5.511  0.1050 -0.1707  2.2545
  111MOL   H28133501   2.784   6.930   5.418  1.1379 -3.1673 -0.2847
  111MOL   H28233502   2.831   7.154   5.551 -0.3598 -0.3418  0.9096
  111MOL   H28333503   2.987   7.081   5.602  3.0854  0.1563 -3.6912
  111MOL   H28433504   2.956   7.133   5.443  3.1632  0.5199  1.6308
  111MOL   H28533505   2.821   7.011   6.010  0.3014  0.0198  1.9554
  111MOL   H28633506   2.706   6.882   6.053  1.2484 -1.1811 -0.7653
  111MOL   C28733507   2.896   6.803   5.992  0.5665 -0.0699 -0.3708
  111MOL   O28833508   3.008   6.838   5.911  0.2421 -0.4114  0.0726
  111MOL   C28933509   3.053   6.749   5.811  0.9979  0.1366  0.0566
  111MOL   O29033510   3.028   6.630   5.810 -0.4436  0.4389 -0.8864
  111MOL   C29133511   3.140   6.815   5.711 -0.3002 -0.3673  0.3090
  111MOL   C29233512   3.284   6.830   5.772  0.0830 -0.2307 -0.5689
  111MOL   C29333513   2.940   6.802   6.141 -0.0915 -0.1335  0.1321
  111MOL   H29433514   2.846   6.710   5.963 -1.3121  0.6496  0.4747
  111MOL   H29533515   3.153   6.740   5.634  0.5461 -0.4549  0.5213
  111MOL   H29633516   3.107   6.909   5.666  1.0910 -0.4256 -0.8886
  111MOL   H29733517   3.296   6.922   5.830 -2.0400  0.5304 -1.2796
  111MOL   H29833518   3.314   6.734   5.814 -0.5099 -0.5667 -0.8962
  111MOL   H29933519   3.353   6.850   5.690  0.0101  1.7227 -0.1845
  111MOL   H30033520   2.859   6.787   6.213 -0.4569 -0.7363 -0.3940
  111MOL   H30133521   3.008   6.719   6.161  1.4994  1.4673  1.5033
  111MOL   H30233522   3.000   6.890   6.163 -0.2319 -0.3168  1.2804
  112MOL     C133523   3.323   0.700   0.899 -0.6202  0.0157  0.3272
  112MOL     O233524   3.240   0.712   1.007 -0.2368 -0.1993 -0.5610
  112MOL     C333525   3.129   0.798   1.006  0.1004  0.4936 -1.1399
  112MOL     O433526   3.080   0.862   0.917  0.3270  0.2586  0.5279
  112MOL     C533527   3.056   0.788   1.141  0.8516 -0.2178 -1.5692
  112MOL     C633528   3.133   0.828   1.262  0.1183  0.2045  0.4895
  112MOL     C733529   3.419   0.586   0.914 -0.1354  0.0261 -0.2460
  112MOL     H833530   3.372   0.796   0.886  0.1360 -0.4315 -0.1341
  112MOL     H933531   2.966   0.849   1.147  0.3891 -1.0547  0.4605
  112MOL    H1033532   3.028   0.683   1.154  1.1564 -0.2855 -1.4360
  112MOL    H1133533   3.081   0.793   1.351 -1.4491  1.9521  0.3001
  112MOL    H1233534   3.236   0.792   1.273 -0.3684 -0.4453  3.3182
  112MOL    H1333535   3.144   0.937   1.267 -0.3310  0.3373 -1.1387
  112MOL    H1433536   3.471   0.595   1.009 -3.3279  0.0276  1.5720
  112MOL    H1533537   3.360   0.495   0.926  2.2465 -1.6407 -0.8978
  112MOL    H1633538   3.268   0.680   0.807  0.2643  0.0463 -0.2110
  112MOL    C1733539   3.522   0.572   0.801 -0.4416  0.7132 -0.0422
  112MOL    O1833540   3.599   0.694   0.786  1.0203 -0.2625 -0.6329
  112MOL    C1933541   3.573   0.779   0.675  0.4870  0.1541  0.1626
  112MOL    O2033542   3.483   0.767   0.591 -0.1959  0.5136  0.1509
  112MOL    C2133543   3.695   0.876   0.660  0.0141 -0.5099 -0.0977
  112MOL    C2233544   3.682   0.987   0.762 -0.0000  0.0633 -0.0656
  112MOL    C2333545   3.612   0.443   0.822 -0.4232  0.2191  0.5559
  112MOL    H2433546   3.459   0.563   0.712  2.1292 -0.1885 -1.8087
  112MOL    H2533547   3.785   0.817   0.681  1.4230  2.1004  1.5420
  112MOL    H2633548   3.715   0.920   0.563  0.4135  1.8403  1.0192
  112MOL    H2733549   3.784   1.011   0.792  0.7068 -1.2036 -1.3978
  112MOL    H2833550   3.638   1.070   0.708 -1.3182 -1.7723 -1.9101
  112MOL    H2933551   3.620   0.965   0.850 -1.2689  1.1506 -0.6730
  112MOL    H3033552   3.674   0.446   0.911  0.6232  1.0162 -0.1902
  112MOL    H3133553   3.548   0.358   0.849  0.8446 -0.7155  0.6534
  112MOL    C3233554   3.679   0.397   0.694 -0.1457  0.2330 -0.6779
  112MOL    O3333555   3.798   0.468   0.676 -0.3935  0.2926  0.0654
  112MOL    C3433556   3.816   0.527   0.559  0.3643  0.8940  0.7130
  112MOL    O3533557   3.746   0.509   0.458  0.1614 -0.3188 -0.2108
  112MOL    C3633558   3.926   0.623   0.552 -0.4964  0.6580  0.2170
  112MOL    C3733559   4.052   0.559   0.487  0.1759  0.1148 -0.1271
  112MOL    C3833560   3.728   0.256   0.707 -0.0166 -0.2172  0.2165
  112MOL    H3933561   3.604   0.401   0.615  0.4918  0.3367 -1.2809
  112MOL    H4033562   3.904   0.717   0.502  1.2049  0.6183 -0.6520
  112MOL    H4133563   3.956   0.653   0.652 -1.0252  1.7884  0.0377
  112MOL    H4233564   4.144   0.616   0.491 -1.3610  2.8329 -1.6985
  112MOL    H4333565   4.077   0.463   0.532 -0.8302 -0.8790 -1.6210
  112MOL    H4433566   4.029   0.524   0.386 -2.4448 -1.8359  1.0576
  112MOL    H4533567   3.803   0.235   0.630 -0.3128 -1.1725  0.1894
  112MOL    H4633568   3.803   0.245   0.785  1.5308 -0.5010 -1.2830
  112MOL    C4733569   3.620   0.145   0.717 -0.1351  0.0363 -0.0628
  112MOL    O4833570   3.522   0.164   0.615  0.1668 -0.2420  0.7628
  112MOL    C4933571   3.401   0.209   0.634  0.3079 -0.7923 -0.2866
  112MOL    O5033572   3.363   0.257   0.739  0.2408 -0.1763 -0.2205
  112MOL    C5133573   3.332   0.230   0.506  0.2705  0.2511 -0.1849
  112MOL    C5233574   3.402   0.339   0.419 -0.5331 -1.4461 -0.5229
  112MOL    C5333575   3.675   7.943   0.699  0.4580 -0.1645  0.1190
  112MOL    H5433576   3.566   0.142   0.811 -0.1329 -0.6682 -0.0743
  112MOL    H5533577   3.332   0.144   0.439 -0.4278 -0.7668  1.1049
  112MOL    H5633578   3.225   0.252   0.513  0.1087 -0.1685 -1.1979
  112MOL    H5733579   3.361   0.436   0.446 -0.5829 -1.3019 -1.1079
  112MOL    H5833580   3.508   0.353   0.437 -0.7563  1.0701 -1.0417
  112MOL    H5933581   3.376   0.327   0.313  0.2694 -3.9001 -0.4695
  112MOL    H6033582   3.599   7.867   0.718 -0.3909  0.6193 -0.1071
  112MOL    H6133583   3.706   7.933   0.595 -1.6680  0.9766 -0.6555
  112MOL    C6233584   3.797   7.900   0.792  0.3812 -0.3023 -0.0107
  112MOL    O6333585   3.752   7.828   0.905 -0.1860 -0.0091  0.4585
  112MOL    C6433586   3.695   7.893   1.014 -0.3589  0.1604  0.5010
  112MOL    O6533587   3.685   0.070   1.026 -0.4010 -0.2048 -0.4720
  112MOL    C6633588   3.631   7.781   1.108 -0.1853 -0.5781  0.0394
  112MOL    C6733589   3.732   7.715   1.193  0.0585  0.7440 -0.1360
  112MOL    C6833590   3.907   7.820   0.722 -0.6395 -1.2235 -0.3698
  112MOL    H6933591   3.846   0.042   0.837  1.1080  0.3739 -2.0466
  112MOL    H7033592   3.560   7.843   1.163 -0.8596 -1.4917  0.2120
  112MOL    H7133593   3.571   7.706   1.058  0.4496 -0.4260 -0.9775
  112MOL    H7233594   3.690   7.653   1.273 -0.9096  0.0448 -1.1736
  112MOL    H7333595   3.785   7.658   1.117 -2.7433  0.0904 -1.6506
  112MOL    H7433596   3.794   7.791   1.241 -0.6591 -0.6823  3.2656
  112MOL    H7533597   3.973   7.764   0.788 -0.5374 -0.4796  0.1657
  112MOL    H7633598   3.861   7.742   0.661  1.9519 -2.0751 -1.2889
  112MOL    C7733599   3.988   7.911   0.624 -0.1598 -0.6680  0.5989
  112MOL    O7833600   4.106   0.009   0.696 -0.0323 -0.6653 -0.3949
  112MOL    C7933601   4.146   0.139   0.671 -0.1274  0.2774  1.0230
  112MOL    O8033602   4.076   0.223   0.614 -0.0882  0.4022  0.0677
  112MOL    C8133603   4.284   0.168   0.738 -0.2288  0.1260  0.2560
  112MOL    C8233604   4.340   0.303   0.702  0.1301 -0.0145 -0.1489
  112MOL    C8333605   4.029   7.838   0.490  0.0200  0.2156 -0.3818
  112MOL    H8433606   3.919   0.049   0.605 -0.3222 -0.9472 -0.0335
  112MOL    H8533607   4.284   0.139   0.843 -0.7562 -0.8717 -0.0155
  112MOL    H8633608   4.348   0.089   0.700 -0.1361  0.0717  0.5253
  112MOL    H8733609   4.445   0.310   0.729  0.6732  4.5933 -3.0131
  112MOL    H8833610   4.331   0.321   0.595  0.6788  1.1263 -0.0071
  112MOL    H8933611   4.283   0.380   0.755 -0.8206  1.2794 -2.9889
  112MOL    H9033612   4.115   7.887   0.443 -0.1475  1.2738  0.3951
  112MOL    H9133613   4.048   7.733   0.514 -1.5805 -0.0013 -0.0249
  112MOL    C9233614   3.915   7.845   0.388  0.0958  0.7713 -0.0546
  112MOL    O9333615   3.891   0.044   0.372  0.2541  0.2064  0.1567
  112MOL    C9433616   3.783   0.096   0.307 -0.3839  0.4574  0.0958
  112MOL    O9533617   3.685   0.028   0.292  0.4970  0.0878  0.0592
  112MOL    C9633618   3.793   0.244   0.279 -0.1473 -0.0389  0.0781
  112MOL    C9733619   3.747   0.286   0.145  0.4061  0.5643 -0.3581
  112MOL    C9833620   3.959   7.794   0.251 -0.5947 -0.0274  0.8022
  112MOL    H9933621   3.821   7.800   0.418 -0.0155  1.7247  1.0852
  112MOL   H10033622   3.739   0.294   0.360  0.7274 -1.4676  1.5754
  112MOL   H10133623   3.899   0.265   0.285  0.0257 -0.9758  0.3717
  112MOL   H10233624   3.639   0.279   0.134  0.4754 -1.1613  0.0106
  112MOL   H10333625   3.766   0.394   0.148 -2.2884  1.0366  2.5969
  112MOL   H10433626   3.805   0.232   0.070  1.1456  1.7256 -0.6389
  112MOL   H10533627   3.894   7.834   0.173  1.8158 -0.3952 -1.4582
  112MOL   H10633628   4.053   7.838   0.216 -1.5587 -0.8594 -2.9590
  112MOL   C10733629   3.960   7.646   0.248  0.6640 -0.2179  0.3679
  112MOL   O10833630   3.827   7.585   0.240  0.4426 -0.2856  0.3342
  112MOL   C10933631   3.773   7.541   0.355 -0.5821  0.2308 -0.5526
  112MOL   O11033632   3.837   7.521   0.459 -0.1433 -0.4662  0.7604
  112MOL   C11133633   3.630   7.492   0.350 -0.6239 -0.4839 -0.0060
  112MOL   C11233634   3.528   7.591   0.384 -0.1651  0.1524 -0.3593
  112MOL   C11333635   4.032   7.584   0.127  0.3161 -0.7116  0.3289
  112MOL   H11433636   4.013   7.603   0.333  0.5759 -1.6594 -0.3066
  112MOL   H11533637   3.609   7.444   0.254 -0.1445 -1.5791  0.4300
  112MOL   H11633638   3.632   7.416   0.427  2.4647  1.8366  2.3793
  112MOL   H11733639   3.545   7.618   0.488 -0.0583 -0.3833 -0.2357
  112MOL   H11833640   3.523   7.680   0.322 -1.2195  0.9224  0.7983
  112MOL   H11933641   3.427   7.551   0.373 -0.1557 -0.1683  0.6241
  112MOL   H12033642   3.957   7.577   0.048  0.9591  0.6359 -0.4272
  112MOL   H12133643   4.101   7.652   0.078 -1.2803  0.1920 -0.7261
  112MOL   C12233644   4.097   7.442   0.152  0.3305  0.3772 -0.0394
  112MOL   O12333645   4.075   7.362   0.037 -0.2088  0.1926 -0.1756
  112MOL   C12433646   3.961   7.283   0.024  0.2028 -0.3962 -0.6940
  112MOL   O12533647   3.871   7.276   0.108 -0.1965  1.1123 -0.0197
  112MOL   C12633648   3.958   7.212   7.839 -0.4673  0.3308 -0.7166
  112MOL   C12733649   3.853   7.101   7.833  0.0990  0.7512 -0.3767
  112MOL   C12833650   4.248   7.449   0.171 -0.2184 -0.2109 -0.4197
  112MOL   H12933651   4.050   7.388   0.234  2.8770 -0.7595  0.7205
  112MOL   H13033652   3.955   7.280   7.753 -1.6373 -2.4604 -2.9515
  112MOL   H13133653   4.049   7.154   7.824  0.8832  2.0723  0.4989
  112MOL   H13233654   3.753   7.141   7.823  0.2192  0.7606 -1.5858
  112MOL   H13333655   3.878   7.033   7.751  1.2452 -0.1194  0.6565
  112MOL   H13433656   3.853   7.037   7.922  0.6942  2.7566  1.1190
  112MOL   H13533657   4.284   7.347   0.161  1.1168  0.3134 -1.1483
  112MOL   H13633658   4.273   7.515   0.088 -0.6738 -1.5849 -1.6675
  112MOL   C13733659   4.297   7.502   0.304 -0.4400 -0.0328 -0.0608
  112MOL   O13833660   4.253   7.421   0.416  0.0883  0.3679  0.1881
  112MOL   C13933661   4.230   7.480   0.536 -0.0919  0.3003  0.5159
  112MOL   O14033662   4.244   7.601   0.551  0.2238  0.3545 -0.2838
  112MOL   C14133663   4.190   7.388   0.646  0.2442 -0.0760  0.0091
  112MOL   C14233664   4.097   7.461   0.747 -0.4146  0.4349  0.4619
  112MOL   C14333665   4.452   7.508   0.307  0.5369 -0.3423  0.9704
  112MOL   H14433666   4.256   7.602   0.312 -0.8446  0.1078 -3.1355
  112MOL   H14533667   4.147   7.292   0.618  3.1069 -1.8416  1.5758
  112MOL   H14633668   4.283   7.356   0.693  1.4547  1.6728 -1.1463
  112MOL   H14733669   4.058   7.388   0.818 -0.0580 -0.2613 -0.0394
  112MOL   H14833670   4.141   7.545   0.800  2.4858 -1.9152  1.9230
  112MOL   H14933671   4.020   7.510   0.687  0.3075 -0.7987 -1.5715
  112MOL   H15033672   4.504   7.528   0.401  2.8534 -2.3346  0.1691
  112MOL   H15133673   4.471   7.402   0.292 -1.3254 -0.4041 -1.0930
  112MOL   C15233674   4.528   7.587   0.191  0.1269 -0.1057 -1.0269
  112MOL   O15333675   4.556   7.723   0.236 -0.0139  0.1205  0.1056
  112MOL   C15433676   4.464   7.822   0.217  0.5464  0.4710 -0.0789
  112MOL   O15533677   4.367   7.823   0.136 -0.2606 -0.4261 -0.0403
  112MOL   C15633678   4.491   7.940   0.309 -0.0556 -0.2004  0.2024
  112MOL   C15733679   4.433   7.913   0.447  0.0711 -0.5064 -0.5615
  112MOL   C15833680   4.671   7.527   0.164 -0.0754  0.2730  0.5776
  112MOL   H15933681   4.469   7.586   0.099 -1.7525  1.6573  0.1181
  112MOL   H16033682   4.600   7.943   0.319  0.0312 -1.4425 -0.2314
  112MOL   H16133683   4.460   0.090   0.267 -0.4734  0.4816  2.0242
  112MOL   H16233684   4.326   7.930   0.450  0.1431  0.0295 -0.9081
  112MOL   H16333685   4.452   7.809   0.476  0.6534  0.0313  1.0537
  112MOL   H16433686   4.476   0.043   0.514  0.2049  0.3457 -1.5793
  112MOL   H16533687   4.732   7.605   0.119  1.8227 -0.1435  2.3223
  112MOL   H16633688   4.713   7.506   0.263  0.5277  1.7819  0.6454
  112MOL   C16733689   4.658   7.395   0.087  0.1802 -0.0295  0.7183
  112MOL   O16833690   4.627   7.423   7.902 -0.6461 -0.0992  0.8287
  112MOL   C16933691   4.525   7.371   7.835  0.2454  0.7305  0.2581
  112MOL   O17033692   4.456   7.271   7.871 -0.4064 -0.0007 -0.1912
  112MOL   C17133693   4.483   7.453   7.713 -0.3603  0.1830  0.5137
  112MOL   C17233694   4.338   7.494   7.713 -0.5351 -0.3519  0.8824
  112MOL   C17333695   4.777   7.306   0.097  0.7387 -0.0228 -0.5092
  112MOL   H17433696   4.574   7.336   0.125 -1.8461  1.8189 -0.8402
  112MOL   H17533697   4.538   7.547   7.708  0.3411 -0.2605 -0.4425
  112MOL   H17633698   4.520   7.397   7.627 -2.8394 -0.0181 -0.4455
  112MOL   H17733699   4.316   7.552   7.802  0.5115  2.6355 -0.7298
  112MOL   H17833700   4.321   7.546   7.619  1.1315 -1.6576 -0.1867
  112MOL   H17933701   4.262   7.416   7.705  0.8862 -1.7403  0.6889
  112MOL   H18033702   4.752   7.206   0.062  0.1710 -0.6523  1.6497
  112MOL   H18133703   4.856   7.335   0.027  0.2607  0.3650 -0.8935
  112MOL   C18233704   4.826   7.270   0.235 -0.0065  0.4790  1.1438
  112MOL   O18333705   4.718   7.219   0.312 -0.4594  0.2896 -1.0190
  112MOL   C18433706   4.693   7.255   0.433 -0.1572  0.4898 -0.1345
  112MOL   O18533707   4.745   7.340   0.500  0.4024 -0.2528 -0.0474
  112MOL   C18633708   4.591   7.165   0.485 -0.0543  0.5243 -0.0664
  112MOL   C18733709   4.535   7.207   0.622  0.2800 -0.0080  0.1920
  112MOL   C18833710   4.939   7.163   0.239  0.0802  0.8852  0.3758
  112MOL   H18933711   4.857   7.360   0.289  0.4077  1.4895 -0.7102
  112MOL   H19033712   4.503   7.150   0.421 -1.7928 -2.6423  2.9115
  112MOL   H19133713   4.637   7.067   0.501 -1.3151 -0.1346 -0.3561
  112MOL   H19233714   4.611   7.190   0.697  1.0675  0.5422 -0.4746
  112MOL   H19333715   4.513   7.313   0.638  0.7065 -0.2177  2.1898
  112MOL   H19433716   4.444   7.152   0.645 -0.0395  0.1755 -0.5980
  112MOL   H19533717   5.031   7.221   0.238  1.3975 -1.1364  0.8674
  112MOL   H19633718   4.942   7.107   0.332  0.4393  0.2449 -0.0119
  112MOL   C19733719   4.940   7.046   0.134  0.4796  0.7456  0.3955
  112MOL   O19833720   5.069   6.985   0.140  0.0964 -0.5036  0.5443
  112MOL   C19933721   5.150   6.982   0.027  0.1713 -0.4445  0.1922
  112MOL   O20033722   5.116   7.015   7.864 -1.1793  0.0545  0.5442
  112MOL   C20133723   5.284   6.917   0.047  0.6111 -0.4357  0.7613
  112MOL   C20233724   5.398   7.013   0.089 -0.0362 -0.0721 -0.1570
  112MOL   C20333725   4.831   6.941   0.155 -0.3460  0.3241  0.1877
  112MOL   H20433726   4.924   7.091   0.037 -1.7491 -0.5693  0.1174
  112MOL   H20533727   5.279   6.828   0.110  2.0169  1.0690  3.0496
  112MOL   H20633728   5.316   6.884   7.892  2.3146 -0.5183  1.3106
  112MOL   H20733729   5.370   7.118   0.090 -0.6458 -0.2375  1.7287
  112MOL   H20833730   5.425   7.003   0.194 -1.1342  1.4662  0.2907
  112MOL   H20933731   5.490   7.000   0.032  1.1322  2.0566  1.1835
  112MOL   H21033732   4.842   6.894   0.253 -2.0858 -0.2100  0.1366
  112MOL   H21133733   4.734   6.990   0.159 -0.3702  0.2614  0.3874
  112MOL   C21233734   4.836   6.826   0.048  0.0553  0.7350  0.2433
  112MOL   O21333735   4.750   6.716   0.089 -0.3832  0.1056  0.2030
  112MOL   C21433736   4.805   6.610   0.149  0.6984 -0.0793  0.0336
  112MOL   O21533737   4.925   6.600   0.183  0.1590  0.3661  0.0237
  112MOL   C21633738   4.695   6.507   0.191 -0.4797 -0.9632 -0.0834
  112MOL   C21733739   4.597   6.484   0.077 -0.0855  0.0905 -0.2800
  112MOL   C21833740   4.792   6.870   7.858 -0.2518  1.1473 -0.2611
  112MOL   H21933741   4.936   6.783   0.045 -0.1229  0.3837 -1.0245
  112MOL   H22033742   4.740   6.415   0.229  3.0047  1.3210  1.5637
  112MOL   H22133743   4.650   6.541   0.284 -0.7349  2.5946 -1.4391
  112MOL   H22233744   4.546   6.572   0.037 -0.5439  0.5963  1.3663
  112MOL   H22333745   4.654   6.442   7.939 -0.9614 -1.0743 -0.3099
  112MOL   H22433746   4.511   6.419   0.089 -0.6374  1.0971  1.4402
  112MOL   H22533747   4.688   6.899   7.871 -0.1134  2.0394 -1.1175
  112MOL   H22633748   4.843   6.959   7.822 -1.2930  1.3368 -1.2771
  112MOL   C22733749   4.817   6.762   7.750  0.2057  1.1037  1.0300
  112MOL   O22833750   4.717   6.777   7.645 -0.3472  0.7810  0.0997
  112MOL   C22933751   4.640   6.675   7.610 -0.5413 -0.8718 -0.2840
  112MOL   O23033752   4.668   6.551   7.618 -0.0035  0.3674  0.5335
  112MOL   C23133753   4.502   6.717   7.550  0.2252 -0.5074  0.0054
  112MOL   C23233754   4.398   6.734   7.662  0.4650  0.2180 -0.1772
  112MOL   C23333755   4.962   6.771   7.686 -1.2434  0.5727  0.3445
  112MOL   H23433756   4.812   6.662   7.793  1.5443 -0.0428 -1.3726
  112MOL   H23533757   4.508   6.810   7.493 -1.3825 -0.3053  0.1362
  112MOL   H23633758   4.468   6.634   7.488 -0.9702 -0.7733  0.9852
  112MOL   H23733759   4.404   6.670   7.750  0.0508  0.2229 -0.1450
  112MOL   H23833760   4.396   6.836   7.698 -0.5145  0.1019  0.1253
  112MOL   H23933761   4.298   6.713   7.622  1.2444 -0.0256 -2.0602
  112MOL   H24033762   4.977   6.872   7.649  0.3940 -0.1028 -0.8552
  112MOL   H24133763   5.031   6.759   7.769  0.2469  1.6459 -0.7298
  112MOL   C24233764   5.010   6.657   7.591 -0.1587  0.1086  0.1280
  112MOL   O24333765   5.148   6.687   7.563  0.1471  0.3568 -0.0802
  112MOL   C24433766   5.189   6.676   7.436 -0.6049 -0.1471 -0.0114
  112MOL   O24533767   5.129   6.635   7.335 -0.5173  0.0784 -0.4456
  112MOL   C24633768   5.335   6.722   7.428  0.6309 -0.2946 -0.3054
  112MOL   C24733769   5.444   6.619   7.461  0.3719  0.2388 -0.0532
  112MOL   C24833770   5.001   6.511   7.651 -0.2028  0.3533  0.5165
  112MOL   H24933771   4.949   6.671   7.502  0.7792  1.7613 -0.2810
  112MOL   H25033772   5.337   6.760   7.326 -0.5892  1.3502  0.2723
  112MOL   H25133773   5.340   6.809   7.493 -1.7981 -0.8129  0.6240
  112MOL   H25233774   5.405   6.526   7.503 -1.5395  1.2550  0.4829
  112MOL   H25333775   5.515   6.589   7.384  2.2254  0.6837  1.4285
  112MOL   H25433776   5.504   6.666   7.539 -0.8495 -0.6990  1.4867
  112MOL   H25533777   4.900   6.488   7.684 -0.9960  2.3880 -0.3884
  112MOL   H25633778   5.027   6.439   7.573 -0.7323  0.1678  0.5051
  112MOL   C25733779   5.076   6.479   7.786  0.6015 -0.9400  0.2922
  112MOL   O25833780   5.072   6.336   7.801  0.3948  0.1439 -0.8741
  112MOL   C25933781   4.997   6.274   7.900  0.2020 -0.0102  0.3167
  112MOL   O26033782   4.908   6.327   0.027 -0.4076 -0.1134 -0.0117
  112MOL   C26133783   5.018   6.125   7.906  0.0301  0.0664 -0.3142
  112MOL   C26233784   5.164   6.088   7.928  0.9074 -0.4821  0.4405
  112MOL   C26333785   5.220   6.533   7.802  0.0635  0.4111  0.5927
  112MOL   H26433786   5.010   6.520   7.863  1.4763 -0.4722  0.7951
  112MOL   H26533787   4.947   6.066   0.019 -0.6963  0.2075 -1.0437
  112MOL   H26633788   4.998   6.089   7.805 -0.0415  3.1045 -1.4359
  112MOL   H26733789   5.206   6.026   7.849 -0.9653  1.3980 -2.1167
  112MOL   H26833790   5.228   6.174   7.913  1.6813 -1.0438  0.5310
  112MOL   H26933791   5.181   6.044   0.081 -1.2159  0.1357  1.1122
  112MOL   H27033792   5.274   6.501   7.712  0.1755  1.0593  0.4264
  112MOL   H27133793   5.222   6.642   7.812  0.9163  0.1205  4.1952
  112MOL   C27233794   5.287   6.488   7.937  0.5781  0.4566 -0.4483
  112MOL   O27333795   5.403   6.565   7.934  0.2630  0.5292  0.1021
  112MOL   C27433796   5.526   6.509   7.925  0.0735 -0.2742  0.4725
  112MOL   O27533797   5.547   6.385   7.921  0.9742  0.5168 -0.2753
  112MOL   C27633798   5.645   6.613   7.900 -0.3089 -0.5599 -0.2380
  112MOL   C27733799   5.770   6.530   7.858 -0.4122  0.4010 -0.3267
  112MOL   C27833800   5.209   6.522   0.119  0.2987  0.7196  0.3393
  112MOL   H27933801   5.307   6.381   7.933 -0.0425  0.1314  3.2485
  112MOL   H28033802   5.625   6.681   7.817 -1.5808  0.3772  0.8259
  112MOL   H28133803   5.660   6.660   0.052 -0.2354  2.4723 -1.6578
  112MOL   H28233804   5.754   6.457   7.779 -0.5176 -1.3294  1.2551
  112MOL   H28333805   5.842   6.601   7.819  0.3460  0.8235  1.7727
  112MOL   H28433806   5.805   6.477   0.002 -0.7088 -1.8137 -1.4752
  112MOL   H28533807   5.192   6.630   0.115  3.4226  1.2411 -0.5755
  112MOL   H28633808   5.116   6.465   0.119  0.2927  0.6225  3.1175
  112MOL   C28733809   5.288   6.475   0.247  0.0437  0.1607  0.2287
  112MOL   O28833810   5.267   6.558   0.357 -0.2518  0.6970 -0.4083
  112MOL   C28933811   5.348   6.654   0.385  0.1493 -0.5876 -0.1247
  112MOL   O29033812   5.458   6.676   0.325  0.1746 -0.1302  0.1797
  112MOL   C29133813   5.321   6.729   0.519 -0.4102  0.4022 -0.1301
  112MOL   C29233814   5.285   6.874   0.516 -0.6685  0.0676 -0.1840
  112MOL   C29333815   5.255   6.339   0.297  0.2561 -0.3561 -0.2251
  112MOL   H29433816   5.395   6.479   0.228 -0.6654 -1.1762 -4.6992
  112MOL   H29533817   5.249   6.673   0.580  1.4882 -0.8591  1.0197
  112MOL   H29633818   5.410   6.722   0.581 -0.7129  1.4208  0.4350
  112MOL   H29733819   5.351   6.918   0.442 -1.5630  1.1720 -0.3465
  112MOL   H29833820   5.181   6.894   0.489 -0.3776  4.2135  1.4484
  112MOL   H29933821   5.287   6.921   0.615  2.3948  2.3277 -1.2594
  112MOL   H30033822   5.151   6.325   0.329  0.5990 -2.4470  0.0547
  112MOL   H30133823   5.266   6.269   0.214  1.3288 -1.2879  0.6941
  112MOL   H30233824   5.320   6.302   0.376  0.5182  0.0599 -0.2428
  113MOL     C133825   3.140   7.209   6.729  0.6594 -0.2216  0.8491
  113MOL     O233826   3.054   7.116   6.661 -0.5296  0.0469 -0.2199
  113MOL     C333827   3.090   7.086   6.535  0.1030 -0.2388  0.5159
  113MOL     O433828   3.185   7.130   6.469  0.4852  0.1742 -0.7022
  113MOL     C533829   3.013   6.968   6.476 -0.8180  0.5873 -0.2751
  113MOL     C633830   3.032   6.836   6.550  0.3685 -0.7838 -0.3143
  113MOL     C733831   3.146   7.176   6.872 -0.4211 -0.3388 -0.1958
  113MOL     H833832   3.112   7.314   6.718  0.9393 -0.0353  1.8841
  113MOL     H933833   2.909   6.997   6.464 -0.9043  1.0035  1.3652
  113MOL    H1033834   3.055   6.969   6.375  1.4725 -0.9850  0.6055
  113MOL    H1133835   2.965   6.762   6.508 -0.5295  0.4191 -1.0266
  113MOL    H1233836   3.131   6.796   6.531  2.2004  1.3199  4.0396
  113MOL    H1333837   3.023   6.841   6.659 -0.8717 -0.4386 -0.4223
  113MOL    H1433838   3.044   7.147   6.897 -0.6730 -0.6094 -1.4967
  113MOL    H1533839   3.197   7.081   6.882 -0.7139 -0.6737 -1.7664
  113MOL    H1633840   3.241   7.196   6.692  0.7349  0.5603  0.7678
  113MOL    C1733841   3.205   7.299   6.947  0.3249  0.1949 -0.0666
  113MOL    O1833842   3.124   7.417   6.928 -0.2477  0.0603  0.1364
  113MOL    C1933843   3.180   7.527   6.872 -0.6437  0.5393 -0.6011
  113MOL    O2033844   3.291   7.544   6.833 -0.8934  0.6975  0.7235
  113MOL    C2133845   3.083   7.648   6.859  0.1516 -0.2733 -0.0545
  113MOL    C2233846   2.961   7.630   6.955 -0.7287  0.8376 -0.0194
  113MOL    C2333847   3.207   7.279   7.108  0.4239 -0.0068  0.3399
  113MOL    H2433848   3.310   7.313   6.921  0.2759  1.0696  0.1830
  113MOL    H2533849   3.132   7.735   6.903  0.7288 -0.5761 -0.0927
  113MOL    H2633850   3.042   7.658   6.759  0.2942 -2.3527 -0.3437
  113MOL    H2733851   2.899   7.545   6.927 -0.4913  0.7345 -0.2398
  113MOL    H2833852   2.986   7.625   7.061  0.7566 -1.5615 -0.4445
  113MOL    H2933853   2.891   7.712   6.938 -0.4208  0.5494 -3.0827
  113MOL    H3033854   3.102   7.272   7.135  0.8100  0.2683  1.9564
  113MOL    H3133855   3.252   7.181   7.122 -0.1935 -0.3764 -0.2309
  113MOL    C3233856   3.286   7.387   7.180  0.1113 -0.9265 -0.0359
  113MOL    O3333857   3.265   7.382   7.324 -0.0270 -0.0301 -0.5519
  113MOL    C3433858   3.150   7.430   7.377  0.1104  0.3383 -0.9369
  113MOL    O3533859   3.060   7.484   7.323  0.2479 -0.1407 -0.1933
  113MOL    C3633860   3.136   7.395   7.527  0.2250  0.3823  0.5479
  113MOL    C3733861   3.230   7.464   7.629  0.0961  0.4777  0.1310
  113MOL    C3833862   3.438   7.390   7.156 -0.5430  0.8172  0.0478
  113MOL    H3933863   3.250   7.483   7.143 -0.5322 -1.0804  0.1969
  113MOL    H4033864   3.032   7.408   7.557 -0.8190  0.1564 -2.8606
  113MOL    H4133865   3.152   7.288   7.534  0.0377  0.3465  0.4251
  113MOL    H4233866   3.189   7.558   7.666 -2.6866 -0.4692 -0.3908
  113MOL    H4333867   3.261   7.398   7.710 -3.8995 -2.2417 -0.4044
  113MOL    H4433868   3.322   7.488   7.575 -1.7186  1.3037 -2.7276
  113MOL    H4533869   3.472   7.289   7.182  1.6130  2.0671  2.2361
  113MOL    H4633870   3.458   7.405   7.050 -1.3160 -0.7332 -0.3356
  113MOL    C4733871   3.507   7.505   7.229 -0.3225 -0.5382 -0.0618
  113MOL    O4833872   3.645   7.509   7.194 -0.0229  0.1834  0.0893
  113MOL    C4933873   3.740   7.436   7.265 -0.1897  0.2920 -0.3627
  113MOL    O5033874   3.711   7.362   7.360 -0.2960  0.0095 -0.0665
  113MOL    C5133875   3.879   7.450   7.226  0.4184 -0.3980  0.1373
  113MOL    C5233876   3.992   7.425   7.334 -0.2486  0.3610 -0.0793
  113MOL    C5333877   3.448   7.646   7.206 -0.0622 -0.2217  0.9666
  113MOL    H5433878   3.501   7.483   7.336  2.1041 -0.9198  0.0305
  113MOL    H5533879   3.898   7.393   7.135  0.9307  0.1461 -0.1045
  113MOL    H5633880   3.890   7.555   7.197 -1.0311 -0.0530  0.7886
  113MOL    H5733881   4.024   7.324   7.356 -0.0909  0.3495 -0.3671
  113MOL    H5833882   4.083   7.477   7.304  0.0370  1.4033  2.4752
  113MOL    H5933883   3.967   7.477   7.426  0.6649  0.2898  0.2173
  113MOL    H6033884   3.435   7.658   7.098 -1.9243  2.4542  1.4445
  113MOL    H6133885   3.343   7.650   7.237 -0.8822  0.5751 -1.7587
  113MOL    C6233886   3.534   7.766   7.251 -0.6685  0.3146  0.8511
  113MOL    O6333887   3.465   7.886   7.212  0.0467  0.0550 -0.0523
  113MOL    C6433888   3.482   7.936   7.088 -0.0244  0.3817 -0.2459
  113MOL    O6533889   3.537   7.884   6.993  0.2809  0.7103  0.1140
  113MOL    C6633890   3.414   0.127   7.069  0.5535  0.1720  0.0142
  113MOL    C6733891   3.425   0.215   7.190  0.7810  0.5401 -0.1412
  113MOL    C6833892   3.570   7.751   7.401 -0.5015  0.4395 -0.1143
  113MOL    H6933893   3.633   7.764   7.204 -1.3480  0.6755 -0.6292
  113MOL    H7033894   3.462   0.189   6.993 -2.0449  2.1951 -0.0346
  113MOL    H7133895   3.308   0.115   7.049  0.3034  1.1959  0.7258
  113MOL    H7233896   3.513   0.196   7.251 -0.2987  1.3660  1.7295
  113MOL    H7333897   3.435   0.319   7.159  1.7981  0.1595 -1.0976
  113MOL    H7433898   3.340   0.209   7.259  0.6932 -1.4178 -0.3830
  113MOL    H7533899   3.473   7.763   7.451 -1.5935  0.1577 -2.1295
  113MOL    H7633900   3.610   7.653   7.428 -0.1621  0.4775 -0.4900
  113MOL    C7733901   3.667   7.860   7.452 -0.3695  0.3595 -0.2039
  113MOL    O7833902   3.639   7.884   7.586 -0.0015  0.4678  0.0515
  113MOL    C7933903   3.594   0.065   7.626  0.2857  0.8561 -0.1547
  113MOL    O8033904   3.538   0.141   7.549  0.0018 -0.0470 -0.0485
  113MOL    C8133905   3.592   0.080   7.780 -0.0097 -0.0241  0.2407
  113MOL    C8233906   3.644   7.903   7.856 -1.0311 -0.7157  0.1355
  113MOL    C8333907   3.824   7.845   7.435  0.2953  0.0061 -0.1477
  113MOL    H8433908   3.640   0.005   7.396  1.9972  1.1451 -0.1383
  113MOL    H8533909   3.643   0.170   7.816 -0.1198  0.3937 -0.6234
  113MOL    H8633910   3.491   0.099   7.817 -0.2047 -1.6116  0.5197
  113MOL    H8733911   3.748   7.879   7.834 -0.0536  1.0762  2.7056
  113MOL    H8833912   3.647   7.934   0.015  1.5818 -1.0881  0.2005
  113MOL    H8933913   3.583   7.813   7.842 -1.6926 -0.2030 -0.3105
  113MOL    H9033914   3.835   7.818   7.331  0.0573 -0.5809 -0.0179
  113MOL    H9133915   3.871   7.944   7.438  0.3552 -0.0457  1.1180
  113MOL    C9233916   3.901   7.767   7.541 -0.3125 -0.1724  0.4542
  113MOL    O9333917   3.827   7.644   7.560 -0.3166  0.1477  0.0198
  113MOL    C9433918   3.829   7.583   7.673 -0.3253  0.0223  0.0254
  113MOL    O9533919   3.903   7.606   7.766 -0.2463 -0.1059 -0.0342
  113MOL    C9633920   3.718   7.480   7.687 -0.4044 -0.4963  1.0086
  113MOL    C9733921   3.601   7.552   7.748 -0.2089  0.4565  0.3272
  113MOL    C9833922   4.047   7.739   7.487 -0.3416  0.2113 -0.9484
  113MOL    H9933923   3.902   7.819   7.636 -0.6773 -0.4117  0.5912
  113MOL   H10033924   3.700   7.411   7.604  1.3380 -0.6658  0.7564
  113MOL   H10133925   3.754   7.414   7.766 -2.2442  0.3194  2.5546
  113MOL   H10233926   3.571   7.647   7.704 -0.3943 -0.4053 -1.4591
  113MOL   H10333927   3.514   7.487   7.744  0.7021 -0.6365 -3.3609
  113MOL   H10433928   3.628   7.582   7.849 -0.9607  0.3187  0.5737
  113MOL   H10533929   4.093   7.667   7.555 -0.9531  1.1267  0.4425
  113MOL   H10633930   4.034   7.677   7.398 -1.9122 -0.9948  0.0855
  113MOL   C10733931   4.137   7.856   7.485  0.0959  1.2230 -0.3635
  113MOL   O10833932   4.168   7.900   7.618  0.1537 -0.1539 -0.0762
  113MOL   C10933933   4.166   0.083   7.651  0.2298  0.1270  0.5152
  113MOL   O11033934   4.157   0.177   7.574 -0.1617  0.1582 -0.5162
  113MOL   C11133935   4.177   0.101   7.800  0.3274 -0.4648  0.6481
  113MOL   C11233936   4.084   0.010   7.884  0.0781  0.5887 -0.4416
  113MOL   C11333937   4.277   7.819   7.428 -0.3351 -0.4762 -0.1561
  113MOL   H11433938   4.092   7.928   7.417 -0.5918  2.0092  0.8863
  113MOL   H11533939   4.281   0.098   7.832  1.3954  1.1625 -2.4391
  113MOL   H11633940   4.152   0.207   7.811  1.1739 -0.0866 -0.8851
  113MOL   H11733941   3.987   0.029   7.839 -0.1066  0.0887 -0.2586
  113MOL   H11833942   4.108   7.849   7.879 -1.2209  0.2075  0.8859
  113MOL   H11933943   4.085   0.035   0.046 -0.2156 -1.3111  0.0167
  113MOL   H12033944   4.336   7.910   7.427  1.6753 -1.7346  1.0095
  113MOL   H12133945   4.333   7.758   7.498  2.8376 -0.8519 -2.9272
  113MOL   C12233946   4.282   7.772   7.278 -0.0054  0.5423 -0.8509
  113MOL   O12333947   4.219   7.877   7.192 -0.9924  0.5501 -0.4832
  113MOL   C12433948   4.100   7.851   7.139  0.1235  0.2204  0.5582
  113MOL   O12533949   4.031   7.748   7.159 -0.4927 -0.2619 -0.0491
  113MOL   C12633950   4.043   0.019   7.048  0.1491 -0.2165  1.2364
  113MOL   C12733951   3.938   0.112   7.120 -0.2601 -0.1100  0.6939
  113MOL   C12833952   4.426   7.760   7.225 -0.0057  0.7753 -0.7402
  113MOL   H12933953   4.235   7.674   7.278 -0.6199  0.8363 -0.9170
  113MOL   H13033954   4.119   0.086   7.009 -2.0360  0.2858 -2.4085
  113MOL   H13133955   3.989   7.932   6.959 -0.5969 -0.3179  1.7245
  113MOL   H13233956   3.853   0.143   7.060  1.0732 -0.8318 -1.6383
  113MOL   H13333957   3.898   0.054   7.203  0.1777 -2.7081 -0.8726
  113MOL   H13433958   3.971   0.213   7.144  0.1358  0.4831 -2.2197
  113MOL   H13533959   4.428   7.748   7.116  1.2203  2.4972 -0.9504
  113MOL   H13633960   4.478   7.853   7.252  0.0075  0.3335  0.7893
  113MOL   C13733961   4.517   7.647   7.292  0.3485 -0.4726 -0.4141
  113MOL   O13833962   4.501   7.536   7.204 -0.0918 -0.4345 -0.3750
  113MOL   C13933963   4.419   7.431   7.251 -0.0228  0.6456 -0.6572
  113MOL   O14033964   4.352   7.427   7.353  0.2799 -0.1183  0.4761
  113MOL   C14133965   4.419   7.311   7.160  0.1295 -0.0213  0.3665
  113MOL   C14233966   4.325   7.208   7.225  0.3189  0.2179 -0.3581
  113MOL   C14333967   4.669   7.678   7.291  0.0620 -0.4312  0.2073
  113MOL   H14433968   4.479   7.628   7.392 -0.6967 -0.2328 -0.7582
  113MOL   H14533969   4.387   7.342   7.061  0.5545  1.5594  0.7112
  113MOL   H14633970   4.520   7.273   7.145  0.1162  0.5313 -1.1306
  113MOL   H14733971   4.356   7.195   7.329  0.5037 -1.0492 -0.5687
  113MOL   H14833972   4.219   7.233   7.224  0.2147 -0.1987 -0.0769
  113MOL   H14933973   4.336   7.111   7.176 -0.3972  0.6855 -1.4602
  113MOL   H15033974   4.730   7.593   7.322  1.1654  0.0931 -0.5142
  113MOL   H15133975   4.699   7.715   7.193 -1.0996  1.1863  0.4407
  113MOL   C15233976   4.700   7.792   7.392  0.3355  0.0731 -0.3642
  113MOL   O15333977   4.654   7.775   7.528 -0.0636  0.1070  0.7516
  113MOL   C15433978   4.600   7.880   7.592  0.4452  0.3788 -0.3303
  113MOL   O15533979   4.586   0.045   7.544 -0.3738 -0.2570 -0.4209
  113MOL   C15633980   4.578   7.850   7.743  0.5247 -0.0494 -0.0431
  113MOL   C15733981   4.702   7.787   7.808  0.7918  0.0754  0.4502
  113MOL   C15833982   4.848   7.825   7.385 -0.3136 -0.4718 -0.3237
  113MOL   H15933983   4.643   7.878   7.358  0.4796  1.0914  1.8743
  113MOL   H16033984   4.550   7.941   7.796 -1.8726 -0.9350  0.2808
  113MOL   H16133985   4.501   7.772   7.749  1.4101 -1.0524 -1.4020
  113MOL   H16233986   4.724   7.699   7.746  1.6864  0.9258 -0.4543
  113MOL   H16333987   4.795   7.844   7.808  2.0130 -1.8556 -0.5179
  113MOL   H16433988   4.683   7.750   7.909 -0.7680  0.3338  0.2609
  113MOL   H16533989   4.899   7.731   7.407  0.1845  0.1071  1.0715
  113MOL   H16633990   4.886   7.851   7.286  0.3072  0.5033  0.1645
  113MOL   C16733991   4.904   7.924   7.484  0.5410 -0.4896 -0.3237
  113MOL   O16833992   5.045   7.920   7.475  0.5523  0.0713  0.5360
  113MOL   C16933993   5.121   7.867   7.569  0.8739  0.5957  0.0488
  113MOL   O17033994   5.080   7.800   7.663  0.0690 -0.0016  0.0335
  113MOL   C17133995   5.271   7.894   7.543  0.8063  0.4740 -0.1185
  113MOL   C17233996   5.360   7.775   7.555 -0.0870 -0.2186 -0.2996
  113MOL   C17333997   4.862   0.127   7.458 -0.0081  0.1051  0.4903
  113MOL   H17433998   4.872   7.892   7.583  0.0225 -1.0279 -0.6602
  113MOL   H17533999   5.290   7.917   7.438 -1.7062 -2.2843 -1.2563
  113MOL   H17634000   5.305   0.033   7.603  1.3736  0.7260 -0.7850
  113MOL   H17734001   5.322   7.691   7.496  2.6221 -0.3620 -1.9169
  113MOL   H17834002   5.459   7.799   7.517 -0.0457  2.4775  1.3791
  113MOL   H17934003   5.374   7.747   7.659 -0.7992  0.3489 -0.0451
  113MOL   H18034004   4.939   0.170   7.394  0.2222 -0.7262  0.1920
  113MOL   H18134005   4.774   0.128   7.394  1.3754  0.0895 -1.4636
  113MOL   C18234006   4.858   0.219   7.588  0.2144  0.7102 -0.1896
  113MOL   O18334007   4.972   0.181   7.666 -0.2338  0.7665  0.5155
  113MOL   C18434008   4.958   0.186   7.795  0.2307 -0.1614 -0.7242
  113MOL   O18534009   4.852   0.206   7.859 -0.1947  0.0674 -0.1950
  113MOL   C18634010   5.082   0.153   7.879  0.3539 -0.0037  0.4440
  113MOL   C18734011   5.207   0.242   7.861  0.5976  0.2377  1.2647
  113MOL   C18834012   4.871   0.371   7.556 -0.8224  0.9501  0.4560
  113MOL   H18934013   4.761   0.193   7.630  1.4950 -1.8151  1.2923
  113MOL   H19034014   5.058   0.157   0.040  2.8382 -0.8747  1.0756
  113MOL   H19134015   5.115   0.049   7.878  1.1380  0.2414 -2.4387
  113MOL   H19234016   5.254   0.231   7.763 -1.7955 -1.3495  0.2350
  113MOL   H19334017   5.166   0.343   7.861  0.0658  0.0231  1.0067
  113MOL   H19434018   5.287   0.226   7.934  0.3852  0.7592  1.6119
  113MOL   H19534019   4.884   0.414   7.656  1.2570  2.2140 -0.3183
  113MOL   H19634020   4.959   0.384   7.493 -0.1870 -2.4085  0.5169
  113MOL   C19734021   4.742   0.434   7.494 -0.3247 -0.1318 -0.0981
  113MOL   O19834022   4.722   0.405   7.356 -0.1879  0.7817 -0.8195
  113MOL   C19934023   4.798   0.467   7.260 -0.0199  0.6424  0.2525
  113MOL   O20034024   4.898   0.528   7.282 -0.7937 -0.5558  0.3832
  113MOL   C20134025   4.734   0.471   7.126 -0.2420 -0.0130  0.3406
  113MOL   C20234026   4.814   0.544   7.012 -0.9890 -0.0523 -0.6746
  113MOL   C20334027   4.609   0.397   7.551  0.4726 -0.2767  0.1026
  113MOL   H20434028   4.752   0.542   7.494 -0.0431 -0.1542  0.5956
  113MOL   H20534029   4.712   0.373   7.083  1.0393 -0.1424 -0.0553
  113MOL   H20634030   4.642   0.528   7.134 -0.3440 -0.2915  1.1541
  113MOL   H20734031   4.831   0.652   7.016  0.5225 -0.3449  1.4780
  113MOL   H20834032   4.909   0.492   6.998 -0.0286  1.2151  0.9489
  113MOL   H20934033   4.771   0.529   6.913 -0.3843 -2.1122 -0.6409
  113MOL   H21034034   4.539   0.446   7.484  0.8541  0.4985  0.2696
  113MOL   H21134035   4.592   0.291   7.533 -4.3111  0.4404 -0.1768
  113MOL   C21234036   4.586   0.429   7.698 -0.0777 -0.2611 -0.2213
  113MOL   O21334037   4.552   0.569   7.715  0.2333  0.0359 -0.4550
  113MOL   C21434038   4.654   0.656   7.750 -0.1962  0.3156  0.2240
  113MOL   O21534039   4.766   0.636   7.792 -0.0276 -0.5823  0.3366
  113MOL   C21634040   4.594   0.795   7.740 -0.4327 -0.1194 -0.3653
  113MOL   C21734041   4.664   0.913   7.816  0.6258 -0.3552  0.9858
  113MOL   C21834042   4.484   0.351   7.776  0.7801 -0.2769 -1.4880
  113MOL   H21934043   4.683   0.425   7.749  0.1180 -2.3783 -0.7202
  113MOL   H22034044   4.604   0.820   7.635 -0.7479 -2.0128 -0.8677
  113MOL   H22134045   4.487   0.787   7.761 -0.4202  0.9538  0.1221
  113MOL   H22234046   4.760   0.943   7.773  2.1505 -0.3027  4.1966
  113MOL   H22334047   4.599   1.000   7.819  0.3456 -0.3484 -2.8052
  113MOL   H22434048   4.682   0.880   7.919 -1.8560  1.8496  2.1820
  113MOL   H22534049   4.392   0.342   7.717 -0.4719  1.8444  0.0696
  113MOL   H22634050   4.521   0.249   7.760  2.8070  0.1426  0.3516
  113MOL   C22734051   4.464   0.390   7.921  0.4331 -0.2343  0.1157
  113MOL   O22834052   4.350   0.319   0.034 -0.2117  0.3057 -0.2055
  113MOL   C22934053   4.269   0.380   0.118  0.0400  0.4742  0.2883
  113MOL   O23034054   4.271   0.496   0.159  0.0933 -0.7454 -0.9320
  113MOL   C23134055   4.156   0.302   0.183 -0.0534  0.2249 -0.4339
  113MOL   C23234056   4.195   0.200   0.289  0.0562 -0.2511  0.1551
  113MOL   C23334057   4.595   0.366   0.058  0.1080 -0.4424 -0.0489
  113MOL   H23434058   4.430   0.494   7.924 -1.2280 -0.7507 -0.2088
  113MOL   H23534059   4.096   0.375   0.238  0.2543  0.3702 -0.2852
  113MOL   H23634060   4.098   0.262   0.100 -1.2550  0.0816  0.4547
  113MOL   H23734061   4.296   0.228   0.319 -0.2807  1.2542 -0.0741
  113MOL   H23834062   4.127   0.191   0.374 -0.0990  1.3512  0.2202
  113MOL   H23934063   4.194   0.101   0.244 -3.3725 -0.4879  0.6259
  113MOL   H24034064   4.610   0.258   0.064  3.7653 -0.2327 -3.4431
  113MOL   H24134065   4.680   0.406   0.003 -0.2382  0.1785 -0.1289
  113MOL   C24234066   4.607   0.435   0.199  0.7106 -0.4963  0.3352
  113MOL   O24334067   4.715   0.377   0.264 -0.2434 -0.5707 -0.3404
  113MOL   C24434068   4.705   0.300   0.379  0.1746 -0.0618 -0.0865
  113MOL   O24534069   4.604   0.287   0.452 -0.4132 -0.0800  0.4681
  113MOL   C24634070   4.831   0.223   0.406  0.6242  0.5589 -0.4790
  113MOL   C24734071   4.897   0.157   0.284  0.1752  0.4825 -0.8388
  113MOL   C24834072   4.632   0.585   0.181  0.0084 -0.9226  0.1408
  113MOL   H24934073   4.515   0.405   0.249  1.3930 -1.3565  1.1191
  113MOL   H25034074   4.902   0.284   0.461  2.7940 -2.1492 -0.1787
  113MOL   H25134075   4.820   0.152   0.488 -0.6373  3.2693  1.7879
  113MOL   H25234076   4.991   0.108   0.310 -0.2984  1.4724  3.1735
  113MOL   H25334077   4.832   0.080   0.243  1.0328  0.1542 -1.6122
  113MOL   H25434078   4.906   0.225   0.200  1.0228 -0.4638 -1.5282
  113MOL   H25534079   4.720   0.598   0.118 -0.5620  0.1506 -0.4463
  113MOL   H25634080   4.553   0.628   0.120  1.0154  2.2972  0.9818
  113MOL   C25734081   4.638   0.667   0.309 -0.6832  0.3261 -0.3457
  113MOL   O25834082   4.670   0.799   0.275  0.9609  0.3257  0.2680
  113MOL   C25934083   4.765   0.874   0.343  0.0118 -0.5065  0.4452
  113MOL   O26034084   4.826   0.825   0.442  0.4806  0.0683 -0.1095
  113MOL   C26134085   4.781   1.015   0.292 -0.4859 -0.2082  0.6463
  113MOL   C26234086   4.725   1.112   0.395  0.1900 -0.2520 -0.4981
  113MOL   C26334087   4.512   0.659   0.395  0.7735  0.6871 -0.2679
  113MOL   H26434088   4.716   0.621   0.371 -1.7950  0.1900  0.9688
  113MOL   H26534089   4.885   1.042   0.271 -0.3238  0.3243  2.0443
  113MOL   H26634090   4.722   1.028   0.202  0.6974  2.0732  0.1667
  113MOL   H26734091   4.741   1.213   0.358  0.2763 -0.1575 -0.1991
  113MOL   H26834092   4.626   1.086   0.431 -0.9786 -0.0376 -3.4544
  113MOL   H26934093   4.781   1.112   0.489 -2.8739 -0.8740  1.3769
  113MOL   H27034094   4.430   0.715   0.349  0.9876  1.1136 -0.1308
  113MOL   H27134095   4.473   0.558   0.405  0.0325  1.0555  0.6329
  113MOL   C27234096   4.550   0.692   0.549 -0.4453  0.0266  0.5723
  113MOL   O27334097   4.438   0.720   0.636  0.0235 -0.1203  0.3673
  113MOL   C27434098   4.384   0.844   0.650  0.7417  0.5647  0.8257
  113MOL   O27534099   4.416   0.950   0.594  0.1499 -0.3171 -0.6522
  113MOL   C27634100   4.263   0.846   0.746  0.0049  0.4993  0.3747
  113MOL   C27734101   4.193   0.981   0.755  0.2838 -0.0972 -0.9203
  113MOL   C27834102   4.634   0.586   0.623  0.3233  0.0791  0.3947
  113MOL   H27934103   4.605   0.786   0.550 -0.5184  0.0654  0.9801
  113MOL   H28034104   4.196   0.762   0.730  1.6699 -1.2523  2.2792
  113MOL   H28134105   4.299   0.810   0.842  1.7997 -1.5306 -1.0153
  113MOL   H28234106   4.195   1.035   0.660 -1.3846  1.3880 -0.1395
  113MOL   H28334107   4.090   0.953   0.779  0.0174  0.3985 -1.4519
  113MOL   H28434108   4.231   1.047   0.833 -0.1430 -0.9856  0.0480
  113MOL   H28534109   4.603   0.486   0.596 -0.4105  0.1513  0.9573
  113MOL   H28634110   4.735   0.588   0.582 -0.3332 -1.6599 -1.3758
  113MOL   C28734111   4.647   0.597   0.775 -0.9188  0.1933  0.1046
  113MOL   O28834112   4.533   0.541   0.845  0.3400  0.0460  0.0283
  113MOL   C28934113   4.508   0.575   0.973 -0.2076 -0.0035 -0.0236
  113MOL   O29034114   4.575   0.660   1.036 -0.0425  0.2248 -0.4833
  113MOL   C29134115   4.384   0.511   1.024 -0.5104 -0.0973  0.1682
  113MOL   C29234116   4.266   0.612   1.041  0.5478  0.4519 -0.4536
  113MOL   C29334117   4.769   0.516   0.819 -0.0919 -0.4294 -0.1866
  113MOL   H29434118   4.675   0.699   0.799  1.3357 -0.1886 -0.7283
  113MOL   H29534119   4.365   0.414   0.978 -2.6303  0.7854 -0.8276
  113MOL   H29634120   4.408   0.492   1.129 -1.6534 -0.4633  0.3632
  113MOL   H29734121   4.191   0.580   1.113  0.6168 -2.1768 -1.4808
  113MOL   H29834122   4.305   0.705   1.082  1.4562 -0.2644  0.3488
  113MOL   H29934123   4.214   0.625   0.946 -2.0436  0.1095  0.8876
  113MOL   H30034124   4.778   0.512   0.927 -0.5679 -1.2980 -0.1775
  113MOL   H30134125   4.752   0.410   0.802  1.2061 -0.8118  0.8601
  113MOL   H30234126   4.863   0.549   0.773  0.7583 -2.3868  0.1020
  114MOL     C134127   7.804   1.252   1.713 -0.1321  0.4300 -0.4632
  114MOL     O234128   7.849   1.116   1.735  0.2324  0.0107  0.4293
  114MOL     C334129   7.927   1.090   1.838 -0.2504  0.4544  0.1520
  114MOL     O434130   0.015   1.170   1.919  0.1503 -0.7988  0.1921
  114MOL     C534131   0.022   0.942   1.845  0.6881 -1.1357  0.8029
  114MOL     C634132   0.106   0.891   1.976  0.0765 -0.1278  0.3697
  114MOL     C734133   7.727   1.284   1.581 -0.3354  0.0632 -0.7700
  114MOL     H834134   7.894   1.313   1.708  1.2634 -1.4268  1.1096
  114MOL     H934135   7.871   0.889   1.843  0.2007 -0.2403 -0.5330
  114MOL    H1034136   0.068   0.916   1.749  1.0761 -0.6749  0.8643
  114MOL    H1134137   0.180   0.960   2.017  0.5739 -0.8387  0.6770
  114MOL    H1234138   0.026   0.868   2.046 -1.6851  4.2402 -0.0376
  114MOL    H1334139   0.158   0.799   1.951 -0.1332  0.2879 -1.6887
  114MOL    H1434140   7.740   1.388   1.551  3.8871  0.0827  0.7356
  114MOL    H1534141   7.778   1.230   1.502  1.1349 -0.0083  0.1924
  114MOL    H1634142   7.756   1.284   1.806 -0.7205  0.0799 -0.6450
  114MOL    C1734143   7.574   1.242   1.599  0.0307  0.2140 -0.0136
  114MOL    O1834144   7.520   1.322   1.702  0.9409  0.0658 -0.2522
  114MOL    C1934145   7.480   1.260   1.820  0.4183 -0.0360  0.1196
  114MOL    O2034146   7.489   1.138   1.847 -0.4606 -0.7328  0.4181
  114MOL    C2134147   7.399   1.358   1.908  0.1782 -0.4059  0.7926
  114MOL    C2234148   7.270   1.409   1.838 -0.7854 -0.0862  0.1588
  114MOL    C2334149   7.499   1.262   1.467  0.1741 -0.1827  0.4988
  114MOL    H2434150   7.567   1.137   1.625 -1.4140  0.4762  0.7242
  114MOL    H2534151   7.377   1.291   1.992 -0.7833 -0.2921  0.6439
  114MOL    H2634152   7.473   1.435   1.925 -1.0710  0.9698  0.0864
  114MOL    H2734153   7.293   1.504   1.789  0.9187 -0.1425  0.8184
  114MOL    H2834154   7.226   1.334   1.772  2.5090 -2.5981  0.6888
  114MOL    H2934155   7.193   1.428   1.912  0.5536 -0.9079  1.7957
  114MOL    H3034156   7.397   1.249   1.504  0.6614 -2.3178  1.1957
  114MOL    H3134157   7.515   1.367   1.441 -1.1152 -0.3214 -0.8674
  114MOL    C3234158   7.520   1.165   1.351  0.1018  0.7629  0.1091
  114MOL    O3334159   7.509   1.034   1.404  0.1419 -0.2329 -0.7496
  114MOL    C3434160   7.614   0.955   1.408 -0.1921  0.8988  0.5300
  114MOL    O3534161   7.716   0.972   1.343 -0.1260  0.2327  0.1511
  114MOL    C3634162   7.589   0.828   1.490 -0.0150 -0.0607  0.2682
  114MOL    C3734163   7.578   0.850   1.639 -0.5891  0.1826 -0.2895
  114MOL    C3834164   7.418   1.195   1.238 -0.3878 -0.5052  0.9236
  114MOL    H3934165   7.620   1.176   1.309  0.4692  0.6313  0.9408
  114MOL    H4034166   7.513   0.765   1.445 -0.8515  0.7827  0.4879
  114MOL    H4134167   7.685   0.777   1.476  0.5176  1.0163 -0.1181
  114MOL    H4234168   7.480   0.891   1.660 -0.3384  0.8478 -0.3942
  114MOL    H4334169   7.594   0.761   1.700  0.9899  0.1127 -0.7803
  114MOL    H4434170   7.647   0.930   1.667 -1.6888  0.2046  2.5378
  114MOL    H4534171   7.317   1.200   1.280 -0.5962  2.2356  0.1381
  114MOL    H4634172   7.415   1.295   1.197 -1.6418 -1.4297 -1.3364
  114MOL    C4734173   7.418   1.100   1.112  0.0178  0.7185  0.1516
  114MOL    O4834174   7.549   1.059   1.083  0.7298  0.0607  0.0628
  114MOL    C4934175   7.633   1.134   1.020 -0.5663 -0.3113  0.4774
  114MOL    O5034176   7.615   1.242   0.960 -0.1189 -0.3619  0.0353
  114MOL    C5134177   7.774   1.073   1.022  0.5274 -0.2847  0.4399
  114MOL    C5234178   7.810   1.017   0.886  0.2237 -0.1622 -0.4628
  114MOL    C5334179   7.324   0.984   1.093 -0.7523  0.6731 -0.3850
  114MOL    H5434180   7.391   1.169   1.031 -2.0170 -1.5708 -1.2205
  114MOL    H5534181   7.853   1.136   1.061 -0.0275  0.4812  0.3369
  114MOL    H5634182   7.761   0.988   1.089  1.0261 -0.2403  0.5967
  114MOL    H5734183   7.733   0.950   0.848 -0.6735  0.5744  0.0425
  114MOL    H5834184   7.812   1.090   0.806  0.2629  0.7473  0.3619
  114MOL    H5934185   7.908   0.969   0.876  1.0963  1.1630  1.3913
  114MOL    H6034186   7.365   0.923   1.012  0.9184 -1.8124  2.2116
  114MOL    H6134187   7.319   0.917   1.179 -3.0640 -1.4001 -2.0631
  114MOL    C6234188   7.175   1.028   1.063  0.3387 -0.0968 -0.4514
  114MOL    O6334189   7.184   1.108   0.944 -0.4345  0.5844  0.4786
  114MOL    C6434190   7.107   1.224   0.946 -0.6394  0.0318 -0.6272
  114MOL    O6534191   7.024   1.251   1.028  0.2088 -0.2010  0.1583
  114MOL    C6634192   7.148   1.324   0.830  0.4959  0.1850 -0.1307
  114MOL    C6734193   7.063   1.445   0.825  0.0743 -0.8197 -0.1383
  114MOL    C6834194   7.087   0.905   1.036  0.1955 -0.1817 -0.0864
  114MOL    H6934195   7.142   1.097   1.140  1.7952 -0.6305  0.6812
  114MOL    H7034196   7.255   1.343   0.835  0.4360  1.1663 -2.2744
  114MOL    H7134197   7.128   1.274   0.735  4.1323 -0.9258 -0.3744
  114MOL    H7234198   6.960   1.422   0.797 -1.3489  3.0252  1.6711
  114MOL    H7334199   7.059   1.506   0.915  0.7944 -1.0310  0.0364
  114MOL    H7434200   7.115   1.512   0.757 -0.9583  0.6895  0.5257
  114MOL    H7534201   7.109   0.867   0.936 -2.6076 -3.3474  0.3921
  114MOL    H7634202   7.115   0.823   1.103 -1.4367  0.4267  1.3839
  114MOL    C7734203   6.936   0.928   1.051 -0.6327  0.0510 -0.0898
  114MOL    O7834204   6.867   0.809   1.025 -0.5638  0.1716 -0.4214
  114MOL    C7934205   6.774   0.787   0.929 -0.2037  0.0038 -0.8346
  114MOL    O8034206   6.745   0.871   0.844 -0.3316  0.2403  0.0946
  114MOL    C8134207   6.704   0.655   0.938 -0.2270  0.4310  0.3429
  114MOL    C8234208   6.625   0.624   1.066  0.8920  0.3061 -0.1063
  114MOL    C8334209   6.895   0.983   1.187 -0.0891 -0.1104  0.2203
  114MOL    H8434210   6.919   1.003   0.973  2.3967  0.1863 -0.6989
  114MOL    H8534211   6.630   0.663   0.858 -0.0773  0.9034  0.2567
  114MOL    H8634212   6.766   0.570   0.908  0.4814  0.6501  1.1781
  114MOL    H8734213   6.580   0.714   1.107  1.7073  1.4268 -1.6317
  114MOL    H8834214   6.546   0.552   1.042 -0.2789  2.3728 -2.6464
  114MOL    H8934215   6.700   0.583   1.134 -1.0132 -2.6620  0.3313
  114MOL    H9034216   6.935   0.912   1.259 -0.1106 -1.2677 -0.8927
  114MOL    H9134217   6.945   1.078   1.210 -2.1342  0.8795  0.6848
  114MOL    C9234218   6.743   1.014   1.199  0.3926  0.0123  0.8423
  114MOL    O9334219   6.727   1.053   1.337 -0.6099  0.1768  0.3251
  114MOL    C9434220   6.692   0.955   1.430 -0.4353 -0.1220 -0.0867
  114MOL    O9534221   6.653   0.843   1.402 -0.3927  0.3621 -0.1820
  114MOL    C9634222   6.711   0.986   1.577  0.0679 -0.2528  0.0367
  114MOL    C9734223   6.634   0.895   1.676 -0.4981 -0.1641 -0.3476
  114MOL    C9834224   6.696   1.131   1.118  0.2077 -0.0268  0.5804
  114MOL    H9934225   6.681   0.930   1.168 -0.1907  0.9702 -0.6664
  114MOL   H10034226   6.819   0.980   1.589 -0.2333 -1.3175  2.4704
  114MOL   H10134227   6.699   1.091   1.602  0.4452  0.0647 -1.0809
  114MOL   H10234228   6.529   0.921   1.694 -0.4291  0.6587 -1.0954
  114MOL   H10334229   6.647   0.792   1.643  3.7516  0.6394 -1.4524
  114MOL   H10434230   6.676   0.907   1.776 -2.1022 -1.9437  0.5863
  114MOL   H10534231   6.763   1.217   1.124  1.7386 -1.1803  0.4270
  114MOL   H10634232   6.707   1.088   1.019 -1.0477 -2.4026  1.4487
  114MOL   C10734233   6.552   1.173   1.133  0.2317 -0.8840  0.4477
  114MOL   O10834234   6.547   1.254   1.254 -0.6314  0.1796 -0.7299
  114MOL   C10934235   6.446   1.244   1.344  0.2047 -0.5495 -0.2645
  114MOL   O11034236   6.351   1.161   1.340 -0.4918 -0.4517 -0.1573
  114MOL   C11134237   6.459   1.331   1.470 -0.2528  0.3587  0.1702
  114MOL   C11234238   6.595   1.386   1.504  0.0159 -0.0411 -0.1702
  114MOL   C11334239   6.488   1.255   1.028 -0.4262 -0.7503 -0.5978
  114MOL   H11434240   6.490   1.083   1.141 -1.8364  0.4298 -0.4291
  114MOL   H11534241   6.392   1.417   1.459 -1.7312 -1.0359 -2.4894
  114MOL   H11634242   6.419   1.267   1.548 -0.4162  1.9017  1.3774
  114MOL   H11734243   6.607   1.458   1.585 -0.3132  1.0245 -1.0525
  114MOL   H11834244   6.681   1.320   1.491  0.2706  0.2816 -0.1298
  114MOL   H11934245   6.615   1.440   1.411 -0.4925  1.9744  0.8611
  114MOL   H12034246   6.387   1.291   1.049  0.2021  0.4939  0.3219
  114MOL   H12134247   6.556   1.335   0.999 -0.9652  0.5047  1.4944
  114MOL   C12234248   6.459   1.168   0.896  0.2498 -0.5201  0.1643
  114MOL   O12334249   6.347   1.080   0.921  0.3538  0.4423 -0.5791
  114MOL   C12434250   6.361   0.949   0.941  0.3214 -0.3526 -0.0429
  114MOL   O12534251   6.471   0.890   0.934 -0.3937  0.7547  0.1197
  114MOL   C12634252   6.235   0.885   0.979 -0.2956 -0.5851  0.4863
  114MOL   C12734253   6.212   0.758   0.896  0.6691  0.4666  0.4648
  114MOL   C12834254   6.425   1.274   0.779 -0.2606  0.4586  0.2237
  114MOL   H12934255   6.541   1.106   0.861  0.5011 -0.5387  0.7714
  114MOL   H13034256   6.229   0.879   1.087 -2.7574  0.0944  0.4290
  114MOL   H13134257   6.156   0.958   0.959 -0.4995 -1.2423 -1.2861
  114MOL   H13234258   6.225   0.772   0.788 -1.0975  0.2726  0.2111
  114MOL   H13334259   6.272   0.674   0.930  0.3797  0.6212  1.3657
  114MOL   H13434260   6.106   0.737   0.910  0.0594  3.3643  0.5638
  114MOL   H13534261   6.342   1.242   0.717 -1.7603  2.7839  0.9648
  114MOL   H13634262   6.379   1.357   0.832 -2.4806 -0.4221 -0.2714
  114MOL   C13734263   6.550   1.313   0.693 -0.2669  0.6934  0.3326
  114MOL   O13834264   6.610   1.195   0.641  0.4924  0.5849  1.0264
  114MOL   C13934265   6.739   1.170   0.646 -0.1139  0.7391  0.4066
  114MOL   O14034266   6.825   1.221   0.717  0.2613 -0.2166  0.4675
  114MOL   C14134267   6.780   1.051   0.556  0.0082  0.3244 -0.7258
  114MOL   C14234268   6.734   1.059   0.414  0.7088  0.0610 -0.2124
  114MOL   C14334269   6.503   1.402   0.577 -0.1599  0.5975  0.8535
  114MOL   H14434270   6.611   1.357   0.772  0.6487 -0.0570  0.0485
  114MOL   H14534271   6.889   1.060   0.554  0.0412  0.2461  0.5174
  114MOL   H14634272   6.758   0.957   0.606 -1.6380  0.2716 -1.5335
  114MOL   H14734273   6.628   1.036   0.402  0.9588 -0.0805 -2.4743
  114MOL   H14834274   6.745   1.153   0.360 -0.0834 -0.8875 -2.1157
  114MOL   H14934275   6.794   0.984   0.362  3.0303 -0.4555  3.1094
  114MOL   H15034276   6.434   1.342   0.518  1.6799 -0.2922 -0.4349
  114MOL   H15134277   6.449   1.488   0.615 -1.2265  0.7926 -1.0247
  114MOL   C15234278   6.615   1.455   0.493  0.0461 -0.1032 -0.1694
  114MOL   O15334279   6.545   1.549   0.405  0.5596  0.3033  0.0613
  114MOL   C15434280   6.517   1.516   0.277 -0.0180 -0.3116  0.4684
  114MOL   O15534281   6.560   1.415   0.219 -1.1394  0.6006  0.3762
  114MOL   C15634282   6.422   1.614   0.207 -0.5110  0.3156  0.0858
  114MOL   C15734283   6.488   1.753   0.194  0.7383  0.0430  0.5501
  114MOL   C15834284   6.729   1.541   0.557 -0.6337  0.8052 -0.2714
  114MOL   H15934285   6.658   1.368   0.443  0.6564 -0.5161  1.0528
  114MOL   H16034286   6.393   1.591   0.105 -1.2313  1.5191 -0.0045
  114MOL   H16134287   6.329   1.623   0.264  0.9611 -1.2097  2.8142
  114MOL   H16234288   6.416   1.829   0.164  1.8645  0.5755 -0.8572
  114MOL   H16334289   6.516   1.786   0.294 -1.4365  1.1773  0.8149
  114MOL   H16434290   6.575   1.754   0.128  0.3442  0.8189  0.0373
  114MOL   H16534291   6.689   1.637   0.589 -1.3108  0.4369  0.0012
  114MOL   H16634292   6.755   1.494   0.652  0.4184 -0.7025 -1.2821
  114MOL   C16734293   6.853   1.557   0.466 -0.6180  0.2544  0.0894
  114MOL   O16834294   6.941   1.650   0.542  0.3263  0.2184 -0.2600
  114MOL   C16934295   6.922   1.787   0.533  0.2037  0.1919  0.4611
  114MOL   O17034296   6.819   1.844   0.482 -0.4730 -0.1749  0.0768
  114MOL   C17134297   7.030   1.871   0.605  0.3379  0.3519  0.3928
  114MOL   C17234298   7.056   1.812   0.743  0.1651 -0.2088 -0.5258
  114MOL   C17334299   6.926   1.424   0.456 -0.2121 -0.5931 -0.1528
  114MOL   H17434300   6.836   1.604   0.369  1.3917  0.0209 -0.3879
  114MOL   H17534301   7.119   1.876   0.543  0.1105 -0.3859 -0.0012
  114MOL   H17634302   6.990   1.972   0.601 -0.1281  0.1415 -0.5384
  114MOL   H17734303   7.100   1.883   0.812  1.6158 -1.1866 -0.4336
  114MOL   H17834304   6.964   1.773   0.787 -0.9137  2.7598 -0.0187
  114MOL   H17934305   7.123   1.727   0.742  0.3924 -0.0369 -2.2989
  114MOL   H18034306   6.976   1.413   0.553  1.5274  0.1353 -0.9349
  114MOL   H18134307   6.864   1.335   0.452  1.2153 -1.5919 -0.4312
  114MOL   C18234308   7.016   1.403   0.336  0.5123  0.2520 -0.0206
  114MOL   O18334309   7.077   1.515   0.282 -0.3987  0.3620 -0.1815
  114MOL   C18434310   7.052   1.556   0.154 -0.0711  0.6547  0.1233
  114MOL   O18534311   7.002   1.480   0.067  0.0567  0.1373 -0.2545
  114MOL   C18634312   7.082   1.702   0.119  0.8135  0.3771  0.1554
  114MOL   C18734313   6.969   1.803   0.149 -0.4433  0.2470 -0.0825
  114MOL   C18834314   7.111   1.287   0.362 -0.1437  0.0616 -0.0066
  114MOL   H18934315   6.947   1.364   0.260  0.5774 -0.5422  0.3251
  114MOL   H19034316   7.173   1.739   0.165  1.0970  0.7779 -0.7172
  114MOL   H19134317   7.104   1.701   0.012 -0.2625  0.6142 -0.0747
  114MOL   H19234318   6.876   1.769   0.195  1.2695 -1.0949  2.4902
  114MOL   H19334319   7.006   1.889   0.204 -1.3618 -1.0025  2.5721
  114MOL   H19434320   6.934   1.843   0.054  1.8737 -0.5097 -1.2881
  114MOL   H19534321   7.200   1.336   0.400 -0.2446 -0.6776  1.2310
  114MOL   H19634322   7.074   1.222   0.442  2.2507 -2.1697 -0.6194
  114MOL   C19734323   7.140   1.205   0.239 -0.1398 -0.0143  0.6495
  114MOL   O19834324   7.252   1.123   0.266  0.5408 -1.0287 -0.0974
  114MOL   C19934325   7.366   1.156   0.223  0.5876  0.2085  0.5814
  114MOL   O20034326   7.390   1.257   0.148  0.7592 -0.1732  0.1170
  114MOL   C20134327   7.483   1.075   0.273 -0.3297  0.2230 -0.1736
  114MOL   C20234328   7.621   1.104   0.219  0.1571 -0.0857 -0.3900
  114MOL   C20334329   7.029   1.098   0.223  0.2444 -0.4557 -0.2635
  114MOL   H20434330   7.150   1.256   0.143 -3.6271  0.1154  0.2709
  114MOL   H20534331   7.480   1.073   0.382  0.9587 -0.9364 -0.1435
  114MOL   H20634332   7.456   0.976   0.235 -2.9908  1.5474 -1.8639
  114MOL   H20734333   7.646   1.056   0.125  2.9138 -1.7057  1.1158
  114MOL   H20834334   7.634   1.211   0.202  2.3026 -0.4621 -1.2052
  114MOL   H20934335   7.697   1.067   0.288  2.0898  1.2671 -1.7461
  114MOL   H21034336   7.022   1.020   0.299  1.3753 -0.7234 -0.4173
  114MOL   H21134337   6.931   1.139   0.246 -0.5195 -1.4926 -1.5917
  114MOL   C21234338   7.011   1.029   0.086  0.1419 -0.1386  0.7815
  114MOL   O21334339   7.109   0.934   0.088 -0.7924 -0.1303  0.4035
  114MOL   C21434340   7.188   0.903   7.930 -0.4482  0.0399  0.0830
  114MOL   O21534341   7.180   0.952   7.816 -0.4013  0.4168  0.8457
  114MOL   C21634342   7.295   0.798   0.024 -0.3287  0.5926  0.4285
  114MOL   C21734343   7.436   0.802   7.895 -0.1036 -0.8301 -0.6736
  114MOL   C21834344   6.873   0.972   0.062  0.4512  0.0405  0.2792
  114MOL   H21934345   7.036   1.096   0.004  0.9580 -0.2743  0.9105
  114MOL   H22034346   7.302   0.819   0.131  0.2998 -0.4889  0.6126
  114MOL   H22134347   7.254   0.697   0.018  1.4150 -0.0401 -1.5229
  114MOL   H22234348   7.440   0.714   7.832 -0.3264 -0.5464 -1.0826
  114MOL   H22334349   7.458   0.896   7.843  0.6642 -1.1508 -0.9330
  114MOL   H22434350   7.513   0.788   0.026 -1.8445  0.2714  1.3527
  114MOL   H22534351   6.799   0.996   0.138 -0.0605 -1.5555  0.3032
  114MOL   H22634352   6.830   0.985   7.907  0.3392 -0.3233  0.2775
  114MOL   C22734353   6.872   0.810   0.069 -0.1963  0.5060 -0.1705
  114MOL   O22834354   6.916   0.778   0.198  0.0942  0.0747 -0.0635
  114MOL   C22934355   6.989   0.669   0.216  0.2806  0.3921 -0.0166
  114MOL   O23034356   7.034   0.593   0.135 -0.5362 -0.4590  0.9899
  114MOL   C23134357   7.034   0.656   0.358 -0.2768  0.4841 -1.2019
  114MOL   C23234358   7.093   0.779   0.410  0.8314 -0.1219 -0.0554
  114MOL   C23334359   6.726   0.763   0.047 -0.0067  0.5088  1.3323
  114MOL   H23434360   6.942   0.765   7.943  1.2810 -1.4067  2.3905
  114MOL   H23534361   6.949   0.624   0.418 -0.1734  1.1043 -0.7248
  114MOL   H23634362   7.108   0.576   0.356 -0.7002  0.0038  1.2511
  114MOL   H23734363   7.128   0.763   0.512 -2.1690 -1.0953  0.8710
  114MOL   H23834364   7.172   0.823   0.348 -0.0298  0.2271 -0.9117
  114MOL   H23934365   7.028   0.864   0.429 -0.1281 -0.6786 -0.7736
  114MOL   H24034366   6.663   0.771   0.136 -2.9337  0.5403 -0.6724
  114MOL   H24134367   6.669   0.830   7.928  0.8879 -1.0359 -1.1607
  114MOL   C24234368   6.710   0.617   7.938 -0.0848  0.1008  0.0361
  114MOL   O24334369   6.578   0.577   0.025  0.5566 -0.0636 -0.3410
  114MOL   C24434370   6.549   0.449   0.065 -0.6445  0.1522  0.0184
  114MOL   O24534371   6.625   0.352   0.048 -0.1812  0.0607  0.3302
  114MOL   C24634372   6.415   0.455   0.137  0.0541  0.0415 -0.7236
  114MOL   C24734373   6.305   0.498   0.032 -0.5588 -0.6498  0.4015
  114MOL   C24834374   6.726   0.611   7.785 -1.2838  0.0477 -0.0351
  114MOL   H24934375   6.773   0.543   0.043  1.5934  0.2008 -1.8406
  114MOL   H25034376   6.394   0.367   0.198 -2.7591  0.4786 -1.0155
  114MOL   H25134377   6.432   0.541   0.201  1.7245 -0.9591  0.2138
  114MOL   H25234378   6.334   0.583   7.915 -2.8308  1.2651  1.8980
  114MOL   H25334379   6.284   0.415   7.909  0.7720  0.5626 -1.5228
  114MOL   H25434380   6.212   0.523   0.083 -0.3204  0.4810  0.2787
  114MOL   H25534381   6.671   0.522   7.758 -2.6508  0.7176  0.5026
  114MOL   H25634382   6.670   0.691   7.737 -0.7653  1.6263  1.8689
  114MOL   C25734383   6.864   0.600   7.727  0.3675  0.8232 -0.4303
  114MOL   O25834384   6.925   0.476   7.762 -0.1137 -0.5184 -0.6350
  114MOL   C25934385   7.056   0.473   7.799  0.0192 -0.0662 -0.0393
  114MOL   O26034386   7.142   0.554   7.775 -0.6025 -0.0512 -0.0571
  114MOL   C26134387   7.078   0.334   7.863  0.3086 -0.0011 -0.0713
  114MOL   C26234388   7.218   0.271   7.853  0.3301  0.3269 -0.3190
  114MOL   C26334389   6.873   0.601   7.568 -0.1438 -1.1289 -0.6894
  114MOL   H26434390   6.928   0.682   7.760  2.2582 -0.3969 -0.9595
  114MOL   H26534391   7.067   0.346   0.026 -0.4094 -1.7341  0.0598
  114MOL   H26634392   6.997   0.265   7.840  0.4666 -0.3378  0.3615
  114MOL   H26734393   7.261   0.284   7.754  0.7102 -0.4704 -0.2576
  114MOL   H26834394   7.287   0.318   7.924  0.5452  0.6461 -0.7323
  114MOL   H26934395   7.211   0.166   7.879  0.7596  0.2350 -0.5743
  114MOL   H27034396   6.975   0.604   7.530  0.3302 -1.4764  0.5403
  114MOL   H27134397   6.832   0.506   7.534 -2.2163 -0.3569 -0.4380
  114MOL   C27234398   6.809   0.720   7.495  0.0769 -0.4765 -0.1565
  114MOL   O27334399   6.885   0.835   7.502  0.6161  0.3952 -0.5554
  114MOL   C27434400   6.848   0.941   7.578  0.0282  0.2682 -0.3207
  114MOL   O27534401   6.753   0.938   7.658 -0.2064 -0.2553  0.0289
  114MOL   C27634402   6.927   1.068   7.558 -0.1178  0.1863 -0.5027
  114MOL   C27734403   6.873   1.194   7.629 -0.2648 -0.2122 -0.1946
  114MOL   C27834404   6.795   0.690   7.342  0.2360 -0.0850  0.0872
  114MOL   H27934405   6.712   0.732   7.545 -0.4230  2.8122 -1.8073
  114MOL   H28034406   7.029   1.043   7.587 -0.4147  1.3065  1.5475
  114MOL   H28134407   6.923   1.083   7.450 -0.1370  1.1871 -0.3667
  114MOL   H28234408   6.885   1.188   7.737 -3.7779  1.7704  0.3708
  114MOL   H28334409   6.933   1.280   7.597  0.7946 -0.2654  1.5929
  114MOL   H28434410   6.769   1.217   7.607 -0.5263 -0.9985  0.1855
  114MOL   H28534411   6.760   0.781   7.294  2.2385  0.0314 -1.1737
  114MOL   H28634412   6.894   0.670   7.301  0.5955 -1.7212  1.6777
  114MOL   C28734413   6.702   0.575   7.304  0.0308  0.1583  0.1659
  114MOL   O28834414   6.572   0.608   7.359 -0.0688 -0.2638 -0.3686
  114MOL   C28934415   6.511   0.541   7.457 -0.4760  0.0697 -0.7236
  114MOL   O29034416   6.552   0.441   7.514 -0.1155 -0.3404  0.0692
  114MOL   C29134417   6.391   0.616   7.509 -0.6069  0.2686 -0.7654
  114MOL   C29234418   6.395   0.640   7.660 -0.3246  0.3873  0.7825
  114MOL   C29334419   6.693   0.560   7.145  0.0034 -0.0165  0.6857
  114MOL   H29434420   6.730   0.479   7.348 -0.2974  1.1302  2.6103
  114MOL   H29534421   6.383   0.716   7.465 -0.3301  0.6025 -0.0621
  114MOL   H29634422   6.302   0.555   7.494 -0.2675 -0.3257 -0.3829
  114MOL   H29734423   6.297   0.647   7.705  0.0318  2.9415  1.2322
  114MOL   H29834424   6.444   0.558   7.712  3.4894  2.5785  0.8849
  114MOL   H29934425   6.458   0.727   7.679 -1.1110  1.5829 -1.8256
  114MOL   H30034426   6.782   0.513   7.102 -0.3186 -1.8474  1.9923
  114MOL   H30134427   6.606   0.500   7.120  0.8455 -1.4036  1.0721
  114MOL   H30234428   6.667   0.656   7.100 -1.0113  0.4732  2.2785
  115MOL     C134429   6.393   5.237   2.707  0.2133  0.2482 -0.0011
  115MOL     O234430   6.293   5.221   2.806  0.4341  0.2391  0.2284
  115MOL     C334431   6.259   5.308   2.898 -0.1665  0.1276  0.1307
  115MOL     O434432   6.317   5.411   2.926  0.1596 -0.1390  0.4370
  115MOL     C534433   6.148   5.248   2.997 -0.1229 -0.5059 -0.3217
  115MOL     C634434   6.150   5.097   3.015 -0.5185 -0.1019 -0.6338
  115MOL     C734435   6.312   5.231   2.583 -0.4347  0.2288 -0.0082
  115MOL     H834436   6.460   5.152   2.723  0.1392  1.0060  4.9201
  115MOL     H934437   6.172   5.293   3.094  0.6239 -0.0093 -0.7246
  115MOL    H1034438   6.050   5.286   2.971  0.6404  1.8499  0.1503
  115MOL    H1134439   6.138   5.096   3.123  1.7881 -1.3602 -0.3493
  115MOL    H1234440   6.063   5.044   2.976 -0.1378  0.8379 -2.8360
  115MOL    H1334441   6.246   5.057   2.983 -1.4559 -1.7431 -1.4816
  115MOL    H1434442   6.231   5.158   2.590  0.1700 -0.2724  2.2091
  115MOL    H1534443   6.258   5.325   2.581  1.5751  1.4383  1.3274
  115MOL    H1634444   6.450   5.330   2.715 -0.2153  0.6308 -1.2170
  115MOL    C1734445   6.384   5.205   2.451 -1.0177  0.3941  0.2909
  115MOL    O1834446   6.412   5.063   2.457  1.1216  0.3574 -0.3702
  115MOL    C1934447   6.528   5.019   2.497 -0.0466  0.8194 -0.5895
  115MOL    O2034448   6.614   5.080   2.555  0.0410 -0.1178  0.2006
  115MOL    C2134449   6.548   4.866   2.481 -0.0614 -0.2505 -0.3352
  115MOL    C2234450   6.558   4.812   2.334 -0.2696 -0.1553  0.1644
  115MOL    C2334451   6.279   5.245   2.341  0.3669 -0.0463 -0.0035
  115MOL    H2434452   6.463   5.279   2.438 -0.5272 -0.3443 -1.0804
  115MOL    H2534453   6.640   4.834   2.529  0.8359  1.4583 -0.8580
  115MOL    H2634454   6.460   4.820   2.525 -1.6851 -0.0923 -3.2921
  115MOL    H2734455   6.643   4.864   2.290 -1.3774 -0.6552 -2.6755
  115MOL    H2834456   6.568   4.704   2.334  3.0045  0.0711  3.4561
  115MOL    H2934457   6.464   4.842   2.288 -0.0121 -2.2441 -1.7972
  115MOL    H3034458   6.187   5.186   2.338  1.2935 -1.4606 -1.1982
  115MOL    H3134459   6.262   5.351   2.360 -1.8524 -0.4603  0.5232
  115MOL    C3234460   6.343   5.244   2.204  0.5621 -0.6166  0.2090
  115MOL    O3334461   6.292   5.138   2.131  0.5824 -0.1459  0.6350
  115MOL    C3434462   6.364   5.035   2.080 -0.5143  0.0956  0.4250
  115MOL    O3534463   6.481   5.019   2.100 -0.4389  0.0538 -0.2037
  115MOL    C3634464   6.278   4.937   2.011 -0.5529  0.2681  0.0392
  115MOL    C3734465   6.357   4.818   1.961  0.0808 -0.4881  0.7290
  115MOL    C3834466   6.330   5.369   2.104  0.0912 -0.1131  0.2312
  115MOL    H3934467   6.450   5.226   2.217  0.4608  0.4994  2.7881
  115MOL    H4034468   6.200   4.899   2.077  0.5895  1.4965  2.1249
  115MOL    H4134469   6.225   4.991   1.932 -1.4272  0.1913  0.5634
  115MOL    H4234470   6.392   4.753   2.041  0.4422 -0.6419  0.4468
  115MOL    H4334471   6.297   4.756   1.895  1.6761 -1.6070  0.3015
  115MOL    H4434472   6.447   4.838   1.903 -1.4085  1.5972 -0.9545
  115MOL    H4534473   6.395   5.447   2.143 -0.3833 -0.3059  1.4276
  115MOL    H4634474   6.371   5.355   2.004  0.2286  0.4199  0.2162
  115MOL    C4734475   6.185   5.430   2.092 -0.3010  0.5933  0.2286
  115MOL    O4834476   6.200   5.546   2.026 -0.3095  0.0760  0.5410
  115MOL    C4934477   6.118   5.653   2.033 -0.3146 -0.1499 -0.4478
  115MOL    O5034478   6.032   5.671   2.120  0.4675  0.1008 -0.4885
  115MOL    C5134479   6.142   5.758   1.919 -0.2280  0.6393 -0.0339
  115MOL    C5234480   6.012   5.817   1.877  0.6505  0.6835  0.2597
  115MOL    C5334481   6.095   5.345   2.002 -0.1053  0.7563  0.8342
  115MOL    H5434482   6.144   5.451   2.190 -1.7108  1.3219 -0.5127
  115MOL    H5534483   6.205   5.840   1.954  1.8986  0.8016 -4.0383
  115MOL    H5634484   6.182   5.714   1.828 -1.4095 -1.5752  0.4788
  115MOL    H5734485   5.944   5.737   1.846  2.3760 -0.7304  0.0677
  115MOL    H5834486   5.950   5.849   1.961 -1.0124 -0.7638 -0.3826
  115MOL    H5934487   6.017   5.887   1.794  1.0052 -1.2732 -1.4187
  115MOL    H6034488   6.114   5.366   1.897 -1.0568 -2.3174  0.0081
  115MOL    H6134489   6.116   5.238   2.012  0.7751  0.7951 -0.4611
  115MOL    C6234490   5.945   5.356   2.027  0.2296  0.2705  0.6996
  115MOL    O6334491   5.876   5.289   1.920  0.4029  0.3409  0.8850
  115MOL    C6434492   5.833   5.363   1.803 -0.0907  0.2393  0.1771
  115MOL    O6534493   5.854   5.487   1.782 -0.0217 -0.4823 -0.6693
  115MOL    C6634494   5.778   5.264   1.707 -0.1274  0.1325 -0.7737
  115MOL    C6734495   5.678   5.318   1.592 -0.5855 -0.0729  0.3169
  115MOL    C6834496   5.907   5.306   2.173 -0.4074  0.7659  1.0841
  115MOL    H6934497   5.924   5.463   2.018 -0.3747 -0.0330 -2.1372
  115MOL    H7034498   5.869   5.226   1.659  0.1576 -0.4665  0.2321
  115MOL    H7134499   5.720   5.185   1.755 -1.6927  0.7566 -1.6150
  115MOL    H7234500   5.695   5.424   1.576 -1.1293 -0.0356 -0.0172
  115MOL    H7334501   5.704   5.279   1.493 -3.3221 -2.3211  0.4253
  115MOL    H7434502   5.570   5.308   1.604 -0.8854  2.5441  0.0475
  115MOL    H7534503   5.943   5.205   2.194 -4.0795 -0.7188  0.7031
  115MOL    H7634504   5.949   5.371   2.249 -0.9470  3.0157 -0.4807
  115MOL    C7734505   5.756   5.317   2.214  0.3602 -0.6758  0.2080
  115MOL    O7834506   5.694   5.429   2.150  0.2831  0.4159  0.0074
  115MOL    C7934507   5.600   5.497   2.216 -0.7078  0.3333 -0.5103
  115MOL    O8034508   5.541   5.463   2.322  0.6644 -0.0080  0.1165
  115MOL    C8134509   5.576   5.628   2.148 -0.8134  0.0318 -0.6307
  115MOL    C8234510   5.690   5.725   2.156 -0.1779 -0.1976  0.3447
  115MOL    C8334511   5.673   5.189   2.206 -0.2474  0.0597  0.3940
  115MOL    H8434512   5.757   5.348   2.318 -1.1101  2.1420 -0.5434
  115MOL    H8534513   5.539   5.609   2.047 -0.6203 -1.2000 -0.4666
  115MOL    H8634514   5.490   5.671   2.199  0.3518  0.6655  0.8579
  115MOL    H8734515   5.670   5.818   2.103  1.5918  0.6932  1.1778
  115MOL    H8834516   5.714   5.752   2.259  0.2017 -1.3549  0.5651
  115MOL    H8934517   5.772   5.677   2.102  0.4475  0.8112  0.3771
  115MOL    H9034518   5.566   5.206   2.220 -0.3068  0.4570 -0.4429
  115MOL    H9134519   5.688   5.147   2.106  0.6473 -0.5502  0.7875
  115MOL    C9234520   5.713   5.083   2.311  0.3630  0.4824 -0.3768
  115MOL    O9334521   5.690   5.119   2.444  0.2640 -0.3011  0.3070
  115MOL    C9434522   5.787   5.172   2.522  0.1836 -0.5264  0.2105
  115MOL    O9534523   5.899   5.206   2.486 -0.2843  0.1864  0.1652
  115MOL    C9634524   5.739   5.200   2.663  0.0578  0.2266  0.0146
  115MOL    C9734525   5.691   5.077   2.732 -0.2443 -0.2334 -0.0840
  115MOL    C9834526   5.620   4.962   2.291  0.4189  0.2965 -0.2309
  115MOL    H9934527   5.817   5.048   2.309 -0.2838 -1.5809  0.3320
  115MOL   H10034528   5.820   5.238   2.726  0.4135 -0.6290  0.0747
  115MOL   H10134529   5.657   5.271   2.657  0.5961  0.8987  0.4470
  115MOL   H10234530   5.596   5.045   2.688 -1.0357  1.1270  0.6075
  115MOL   H10334531   5.760   4.994   2.714  0.4363  0.1531  0.7106
  115MOL   H10434532   5.676   5.100   2.838  0.0296 -0.3606 -0.0170
  115MOL   H10534533   5.518   4.992   2.311  0.6173  1.0722 -0.3615
  115MOL   H10634534   5.622   4.936   2.185  1.8341 -1.5277  0.2058
  115MOL   C10734535   5.652   4.828   2.373  0.2634 -0.0627 -0.2976
  115MOL   O10834536   5.536   4.746   2.373  0.0709 -0.3461 -0.5289
  115MOL   C10934537   5.427   4.768   2.447 -0.4302  0.2815 -0.3620
  115MOL   O11034538   5.406   4.864   2.526 -0.2833  0.5481  0.4489
  115MOL   C11134539   5.326   4.654   2.445  1.0258 -0.1424 -0.2017
  115MOL   C11234540   5.372   4.533   2.526  0.0306  0.6849  0.0977
  115MOL   C11334541   5.757   4.743   2.295 -0.0886 -0.4441  0.4832
  115MOL   H11434542   5.692   4.844   2.473 -2.5214  1.9810  0.5731
  115MOL   H11534543   5.230   4.680   2.492  1.0258 -1.2243  0.4169
  115MOL   H11634544   5.304   4.623   2.343 -0.4923 -0.3112  0.1587
  115MOL   H11734545   5.406   4.563   2.625 -0.6178  2.8358 -0.3174
  115MOL   H11834546   5.295   4.457   2.544  0.5676 -0.1150 -0.9274
  115MOL   H11934547   5.453   4.478   2.478 -2.4116 -1.7497 -1.3889
  115MOL   H12034548   5.751   4.643   2.338  0.2765 -1.5823 -1.9956
  115MOL   H12134549   5.712   4.728   2.197  3.1377  0.0874 -1.1225
  115MOL   C12234550   5.904   4.784   2.290 -0.2258  0.1106  0.4280
  115MOL   O12334551   5.962   4.799   2.421 -0.1234  0.1874 -0.3580
  115MOL   C12434552   6.079   4.876   2.433  0.0863  0.3634 -0.0621
  115MOL   O12534553   6.122   4.954   2.347 -0.1633 -0.9256 -0.6884
  115MOL   C12634554   6.155   4.850   2.562  0.0802 -0.2871 -0.3359
  115MOL   C12734555   6.061   4.884   2.680 -0.6791  0.2038 -0.3082
  115MOL   C12834556   5.991   4.679   2.212 -0.1946  0.0666 -0.4063
  115MOL   H12934557   5.906   4.883   2.244  0.5748 -0.5074 -0.8870
  115MOL   H13034558   6.178   4.743   2.566  0.9445 -0.1288 -0.8313
  115MOL   H13134559   6.239   4.919   2.559 -0.5364  0.5063  0.5579
  115MOL   H13234560   5.983   4.809   2.673 -0.5844  0.1376 -0.6969
  115MOL   H13334561   6.113   4.893   2.776  0.6548  1.4001 -1.1186
  115MOL   H13434562   6.014   4.981   2.669  0.2390  0.8167  1.1064
  115MOL   H13534563   6.098   4.698   2.213 -0.2056  0.1158  0.1258
  115MOL   H13634564   5.996   4.583   2.265 -2.5396  0.5604  0.7753
  115MOL   C13734565   5.959   4.655   2.061 -0.0714 -0.6272 -0.1442
  115MOL   O13834566   5.971   4.777   1.990 -0.7647  0.1038 -0.1268
  115MOL   C13934567   5.863   4.846   1.948 -0.4710 -0.6009 -0.4788
  115MOL   O14034568   5.749   4.843   1.986  0.4975 -0.1553  0.5396
  115MOL   C14134569   5.906   4.966   1.864 -0.0285 -0.1374 -0.9277
  115MOL   C14234570   5.979   4.917   1.737  0.1803 -1.0254 -0.0211
  115MOL   C14334571   6.047   4.549   1.987  0.0414 -0.0460 -0.3475
  115MOL   H14434572   5.859   4.611   2.061  0.2696 -1.4207  1.2589
  115MOL   H14534573   5.821   5.022   1.826 -0.4467  0.6009  1.0984
  115MOL   H14634574   5.961   5.031   1.932 -0.9269 -2.0615  1.6896
  115MOL   H14734575   5.970   4.988   1.655 -1.3506  0.6118  1.5239
  115MOL   H14834576   6.086   4.903   1.758  0.2331 -0.7414 -0.0933
  115MOL   H14934577   5.938   4.824   1.699 -1.0145 -0.3146 -0.4936
  115MOL   H15034578   6.151   4.581   1.997  0.0097 -0.5318  1.7381
  115MOL   H15134579   6.059   4.454   2.038  1.0385 -0.7443 -1.8569
  115MOL   C15234580   6.013   4.510   1.838 -0.7452  0.1965  0.1328
  115MOL   O15334581   6.119   4.428   1.785  0.6571  0.3385  0.0718
  115MOL   C15434582   6.224   4.486   1.719 -0.4140  0.6328 -0.2948
  115MOL   O15534583   6.235   4.604   1.692  0.0467  1.0233  0.0216
  115MOL   C15634584   6.337   4.391   1.693 -0.1136  0.1165 -0.6900
  115MOL   C15734585   6.320   4.328   1.547 -0.2048 -0.5332  0.7394
  115MOL   C15834586   5.884   4.419   1.829  0.4356 -0.0486 -0.3303
  115MOL   H15934587   5.994   4.601   1.782 -0.9798  0.5928  0.8437
  115MOL   H16034588   6.436   4.437   1.702  1.0312 -2.0252 -1.7355
  115MOL   H16134589   6.337   4.304   1.760 -0.9903 -0.0193 -0.8656
  115MOL   H16234590   6.414   4.294   1.503 -0.5916  0.9348 -1.3470
  115MOL   H16334591   6.257   4.239   1.547  0.9726 -1.3755  0.5338
  115MOL   H16434592   6.283   4.407   1.480 -1.3272 -3.1739 -1.8862
  115MOL   H16534593   5.903   4.315   1.857 -2.3662 -0.0257  1.9729
  115MOL   H16634594   5.802   4.459   1.889 -1.6348 -3.3362 -0.8217
  115MOL   C16734595   5.817   4.436   1.689 -0.0188  1.2245  0.3467
  115MOL   O16834596   5.768   4.571   1.684 -0.1529  0.0201  0.1966
  115MOL   C16934597   5.660   4.609   1.610  0.1278  0.6307 -0.9234
  115MOL   O17034598   5.579   4.525   1.555  0.1937  0.1531 -0.3733
  115MOL   C17134599   5.631   4.756   1.611  0.9010 -0.4527 -0.1452
  115MOL   C17234600   5.671   4.818   1.480 -0.0303 -0.3074 -0.1524
  115MOL   C17334601   5.916   4.409   1.574  0.1877  0.2828  0.2049
  115MOL   H17434602   5.727   4.375   1.678  1.3122 -0.5493 -0.7632
  115MOL   H17534603   5.528   4.780   1.636  1.2116 -0.5025  1.2176
  115MOL   H17634604   5.693   4.804   1.687  2.3382 -0.7308 -1.1238
  115MOL   H17734605   5.579   4.864   1.444 -0.3284  1.1040  2.2978
  115MOL   H17834606   5.752   4.890   1.493  0.5864 -1.0305  0.0136
  115MOL   H17934607   5.693   4.743   1.404 -3.8158 -1.0971 -0.5385
  115MOL   H18034608   5.979   4.498   1.570 -0.4355  0.7100 -0.2790
  115MOL   H18134609   5.972   4.316   1.585  0.5938  0.5800  0.6836
  115MOL   C18234610   5.855   4.409   1.428 -0.4372  0.5239 -0.1554
  115MOL   O18334611   5.958   4.395   1.327  0.2755  0.4199  1.1695
  115MOL   C18434612   5.980   4.491   1.236 -1.2431 -0.2460  0.1366
  115MOL   O18534613   5.912   4.586   1.215 -0.0457 -0.3681  0.1904
  115MOL   C18634614   6.115   4.480   1.171  0.0387 -0.0550 -0.0844
  115MOL   C18734615   6.129   4.553   1.028 -0.3417 -0.0069 -0.2151
  115MOL   C18834616   5.748   4.298   1.416  0.0261  0.3518  0.2077
  115MOL   H18934617   5.810   4.508   1.417  2.0203  1.6252 -0.5493
  115MOL   H19034618   6.169   4.539   1.245 -2.5339  2.2197  0.0736
  115MOL   H19134619   6.154   4.379   1.166  1.0494  0.4195 -2.1512
  115MOL   H19234620   6.160   4.658   1.025 -2.4676  0.6035 -2.5003
  115MOL   H19334621   6.211   4.506   0.972 -1.0942 -1.0358 -0.4665
  115MOL   H19434622   6.048   4.532   0.959  0.7970  2.5496 -2.4327
  115MOL   H19534623   5.802   4.206   1.439 -0.5779  0.1141  0.7127
  115MOL   H19634624   5.672   4.311   1.494 -0.4120 -1.4628  0.1147
  115MOL   C19734625   5.674   4.288   1.286 -0.1980  0.1585  0.2192
  115MOL   O19834626   5.582   4.186   1.301  0.6859  0.3721 -0.4209
  115MOL   C19934627   5.590   4.079   1.221  0.5150 -0.4081 -0.3169
  115MOL   O20034628   5.668   4.072   1.129  0.4469 -0.4487  0.4782
  115MOL   C20134629   5.480   3.972   1.235  0.6484 -0.2880 -0.2502
  115MOL   C20234630   5.496   3.851   1.150  0.0047 -0.7567 -0.4556
  115MOL   C20334631   5.609   4.422   1.235 -0.1281 -1.0423 -0.2347
  115MOL   H20434632   5.747   4.263   1.209  0.2416 -1.4751  1.1227
  115MOL   H20534633   5.483   3.950   1.342 -0.8187  0.6462  0.0035
  115MOL   H20634634   5.380   4.015   1.231 -0.0939 -2.0857 -1.5133
  115MOL   H20734635   5.491   3.876   1.044  0.3701 -1.0587 -0.5445
  115MOL   H20834636   5.578   3.780   1.163 -0.4462 -1.2255 -0.1225
  115MOL   H20934637   5.407   3.788   1.155 -0.5553 -0.0326 -1.1197
  115MOL   H21034638   5.554   4.463   1.321  1.4632  0.1420  0.2396
  115MOL   H21134639   5.681   4.504   1.232  1.4326 -2.2081  2.8227
  115MOL   C21234640   5.533   4.415   1.098  0.8100  0.1983 -0.1094
  115MOL   O21334641   5.459   4.527   1.061  0.1727  0.0619  0.1210
  115MOL   C21434642   5.335   4.533   1.114 -0.1348 -0.3698 -0.5282
  115MOL   O21534643   5.284   4.449   1.192  0.2027 -1.2371  0.0339
  115MOL   C21634644   5.251   4.654   1.063 -0.7689 -0.2959  0.2517
  115MOL   C21734645   5.291   4.725   0.933  0.4572 -0.2125 -0.1545
  115MOL   C21834646   5.629   4.368   0.980  0.4467  0.2048  0.0053
  115MOL   H21934647   5.474   4.326   1.122  0.4581  0.2229 -0.8705
  115MOL   H22034648   5.151   4.617   1.041  0.5261 -3.3412 -0.6920
  115MOL   H22134649   5.242   4.735   1.135 -1.0663  0.1515 -0.2855
  115MOL   H22234650   5.219   4.798   0.897  0.3806 -0.8512 -1.3214
  115MOL   H22334651   5.384   4.781   0.946  0.8478 -0.4315 -1.8459
  115MOL   H22434652   5.292   4.655   0.849 -0.7034  0.4208 -0.7131
  115MOL   H22534653   5.654   4.452   0.915  2.9070 -0.0958  0.5054
  115MOL   H22634654   5.725   4.336   1.021 -0.0018  0.6602  1.4642
  115MOL   C22734655   5.586   4.254   0.881 -0.6696  0.4324 -0.1987
  115MOL   O22834656   5.466   4.289   0.816  0.0811 -0.2461  0.5204
  115MOL   C22934657   5.356   4.215   0.818 -0.2574  0.1141 -0.3655
  115MOL   O23034658   5.355   4.105   0.872  0.1282  0.3053 -0.4079
  115MOL   C23134659   5.239   4.274   0.745  0.3858 -0.0390 -0.2374
  115MOL   C23234660   5.250   4.260   0.589 -0.4316  0.6618  0.8842
  115MOL   C23334661   5.699   4.237   0.774  0.7189  1.3003  0.6680
  115MOL   H23434662   5.573   4.165   0.943  5.1492 -0.7124 -0.3453
  115MOL   H23534663   5.150   4.224   0.783  0.8775  0.5282  1.6809
  115MOL   H23634664   5.223   4.379   0.770 -1.3448 -0.0708 -1.1319
  115MOL   H23734665   5.326   4.327   0.549 -0.0753 -1.2949 -1.8666
  115MOL   H23834666   5.283   4.163   0.552  1.3513  2.0948 -1.4773
  115MOL   H23934667   5.165   4.279   0.524  1.6563  1.7430 -1.6614
  115MOL   H24034668   5.694   4.324   0.708  1.4189  0.7137 -0.1798
  115MOL   H24134669   5.801   4.245   0.813  1.5242 -1.5752 -0.7065
  115MOL   C24234670   5.691   4.099   0.699 -0.7584 -0.0283 -0.2475
  115MOL   O24334671   5.788   4.104   0.597 -0.3895  0.5459  0.6661
  115MOL   C24434672   5.765   4.065   0.477  0.3333  0.4767 -0.4714
  115MOL   O24534673   5.652   4.023   0.436 -0.0246  0.2433  0.4851
  115MOL   C24634674   5.887   4.081   0.384  0.7120  0.2339  0.3409
  115MOL   C24734675   5.967   3.953   0.381  0.3265 -0.2879 -0.2552
  115MOL   C24834676   5.714   3.974   0.792 -0.0924 -0.2642 -0.0794
  115MOL   H24934677   5.596   4.078   0.651 -0.7881  1.6178 -0.9498
  115MOL   H25034678   5.845   4.097   0.285 -0.6420 -0.4658  0.7952
  115MOL   H25134679   5.950   4.168   0.404 -0.3749  1.0180  0.3737
  115MOL   H25234680   6.051   3.958   0.312  2.7931  0.9545  2.7629
  115MOL   H25334681   6.006   3.924   0.478  1.5545  0.2414 -0.5832
  115MOL   H25434682   5.912   3.864   0.349  0.0539  0.7386 -2.8121
  115MOL   H25534683   5.814   3.982   0.835  0.1708 -0.0798 -0.7181
  115MOL   H25634684   5.646   3.978   0.878 -0.7149  0.4599 -0.6038
  115MOL   C25734685   5.696   3.832   0.742  0.3023  0.2542 -0.1244
  115MOL   O25834686   5.771   3.745   0.837 -0.2954 -0.3088 -0.1336
  115MOL   C25934687   5.907   3.715   0.822 -0.2279 -0.1221  0.5916
  115MOL   O26034688   5.984   3.777   0.744  0.1450  0.0892  0.0609
  115MOL   C26134689   5.939   3.593   0.904 -0.0276 -1.4671 -0.1375
  115MOL   C26234690   6.073   3.521   0.878 -0.2172  0.7555  0.3950
  115MOL   C26334691   5.554   3.795   0.727 -0.3394  0.1562  0.1657
  115MOL   H26434692   5.748   3.826   0.647 -1.4226  2.5789 -1.2714
  115MOL   H26534693   5.924   3.622   1.008  0.0800 -2.5209  0.1831
  115MOL   H26634694   5.858   3.525   0.879 -1.2926 -0.3153  0.7615
  115MOL   H26734695   6.097   3.526   0.772  1.8787  0.0407  0.8165
  115MOL   H26834696   6.152   3.559   0.943 -1.1566  0.7096  1.5756
  115MOL   H26934697   6.062   3.415   0.899  1.5054  0.7595  1.4281
  115MOL   H27034698   5.523   3.724   0.803  0.7784 -1.0635 -0.5191
  115MOL   H27134699   5.495   3.887   0.734 -2.5598 -1.2449  0.2650
  115MOL   C27234700   5.512   3.736   0.588  0.8000  0.4323  0.1919
  115MOL   O27334701   5.574   3.610   0.572 -0.4520 -0.0390  0.3473
  115MOL   C27434702   5.664   3.585   0.472  0.5258  0.7071  0.3764
  115MOL   O27534703   5.702   3.670   0.392 -0.1484 -0.0609  0.0700
  115MOL   C27634704   5.717   3.440   0.457 -0.1135 -0.3386 -0.6913
  115MOL   C27734705   5.819   3.394   0.573 -0.0425 -0.3211 -0.2930
  115MOL   C27834706   5.360   3.724   0.582 -0.7724 -0.2425 -0.0060
  115MOL   H27934707   5.548   3.801   0.509 -0.3443  1.2366  0.3343
  115MOL   H28034708   5.626   3.380   0.463  1.3886 -2.8062 -1.6703
  115MOL   H28134709   5.763   3.415   0.361 -0.8765 -0.2173 -1.0933
  115MOL   H28234710   5.804   3.446   0.668  1.7655  0.4220 -0.3796
  115MOL   H28334711   5.808   3.286   0.585  1.7427 -0.5114 -0.2117
  115MOL   H28434712   5.926   3.393   0.550  0.2789  1.4585  0.9464
  115MOL   H28534713   5.326   3.661   0.664  1.6909 -2.3190 -0.5310
  115MOL   H28634714   5.310   3.819   0.603 -1.0384 -0.6178  1.0893
  115MOL   C28734715   5.311   3.674   0.448 -0.2528  0.4663  0.6549
  115MOL   O28834716   5.165   3.693   0.434  0.3932 -0.7700 -0.2477
  115MOL   C28934717   5.075   3.594   0.464 -0.3141 -0.5198 -0.2535
  115MOL   O29034718   5.103   3.476   0.469 -0.1586  0.5987  0.1326
  115MOL   C29134719   4.937   3.634   0.496  0.2433  0.1550 -0.2148
  115MOL   C29234720   4.891   3.773   0.434  0.5241 -0.1081  0.4964
  115MOL   C29334721   5.366   3.751   0.328  0.1948 -0.1964  0.7285
  115MOL   H29434722   5.322   3.568   0.426 -3.3757  0.5263 -1.5181
  115MOL   H29534723   4.873   3.558   0.453 -1.4518  0.4744  1.6399
  115MOL   H29634724   4.932   3.629   0.605  1.3592 -1.1308 -0.2082
  115MOL   H29734725   4.942   3.860   0.476  0.7957 -0.0457  0.0444
  115MOL   H29834726   4.897   3.781   0.325 -4.4116 -1.0278  0.0809
  115MOL   H29934727   4.786   3.785   0.460  1.2276  1.8501  2.5597
  115MOL   H30034728   5.365   3.860   0.339 -3.8595 -0.1086  0.4420
  115MOL   H30134729   5.468   3.717   0.315 -0.5441 -1.9753 -0.6359
  115MOL   H30234730   5.300   3.739   0.242  1.0465 -0.5390  0.1223
  116MOL     C134731   4.664   1.408   4.076 -0.0381  1.0066 -0.1486
  116MOL     O234732   4.592   1.343   4.178  0.4674 -0.5803  0.3678
  116MOL     C334733   4.472   1.286   4.154  0.0089  0.0359 -0.2951
  116MOL     O434734   4.411   1.288   4.044  1.0919  0.1796  0.2230
  116MOL     C534735   4.420   1.204   4.268  0.7053  0.4521 -0.9388
  116MOL     C634736   4.528   1.126   4.340 -0.2217  0.2460  0.6163
  116MOL     C734737   4.659   1.561   4.089 -0.0943 -0.3948 -0.1424
  116MOL     H834738   4.624   1.370   3.981  0.2145 -0.0760  0.1664
  116MOL     H934739   4.363   1.252   4.348  0.9913 -2.4565  1.1186
  116MOL    H1034740   4.352   1.128   4.228  0.7139 -0.5291  0.8511
  116MOL    H1134741   4.580   1.068   4.263 -2.0956  0.8483 -1.1445
  116MOL    H1234742   4.603   1.190   4.387  0.6670 -2.2175  2.6616
  116MOL    H1334743   4.492   1.070   4.425 -0.6022  0.9906  0.9448
  116MOL    H1434744   4.556   1.596   4.094 -0.0123 -0.3001  1.2249
  116MOL    H1534745   4.698   1.584   4.188 -0.7102  0.8461 -0.1803
  116MOL    H1634746   4.764   1.369   4.095 -1.2085 -1.8483  0.4506
  116MOL    C1734747   4.742   1.638   3.990 -0.5536  0.4610 -0.9834
  116MOL    O1834748   4.707   1.617   3.858  0.1621  0.4521 -0.0969
  116MOL    C1934749   4.799   1.577   3.767 -0.2561  0.2588  0.1176
  116MOL    O2034750   4.918   1.561   3.782  0.0268  0.4599 -0.2599
  116MOL    C2134751   4.742   1.561   3.626 -0.1750 -0.3402 -0.0929
  116MOL    C2234752   4.843   1.480   3.535  0.8242  0.1073  0.0933
  116MOL    C2334753   4.763   1.791   4.026 -0.1400 -0.9183  0.2070
  116MOL    H2434754   4.840   1.593   4.007 -1.7674 -1.6257  0.8189
  116MOL    H2534755   4.642   1.516   3.626 -0.3071 -0.0518  0.4374
  116MOL    H2634756   4.722   1.664   3.597  1.0862  0.0171  0.3126
  116MOL    H2734757   4.930   1.546   3.537  1.0375 -0.1144 -1.2221
  116MOL    H2834758   4.888   1.398   3.590  1.6247  0.3497 -0.1859
  116MOL    H2934759   4.814   1.431   3.442  1.0040  0.2785 -0.0538
  116MOL    H3034760   4.663   1.834   4.024 -0.4042 -1.4516  1.2382
  116MOL    H3134761   4.799   1.795   4.129  1.0210 -1.8011 -0.1455
  116MOL    C3234762   4.851   1.885   3.946  0.2966  0.1070 -0.2241
  116MOL    O3334763   4.834   2.021   3.970  0.1860  0.0462 -0.0089
  116MOL    C3434764   4.812   2.120   3.875  0.4189 -0.3518 -0.2858
  116MOL    O3534765   4.819   2.096   3.753 -0.4719  0.0787 -0.0467
  116MOL    C3634766   4.764   2.254   3.932 -0.5365 -0.1427 -0.1652
  116MOL    C3734767   4.621   2.241   3.978  0.3196  0.3790  0.5592
  116MOL    C3834768   4.995   1.852   3.968  0.5103  0.0967 -0.4169
  116MOL    H3934769   4.814   1.870   3.845 -2.4543  1.7168  0.4751
  116MOL    H4034770   4.825   2.287   4.016 -0.1526  0.5809 -0.7167
  116MOL    H4134771   4.781   2.325   3.850  2.7331  1.6116  1.9595
  116MOL    H4234772   4.541   2.226   3.906  1.4352 -0.6196 -0.4960
  116MOL    H4334773   4.615   2.155   4.045  0.5429  1.7128  2.3344
  116MOL    H4434774   4.587   2.328   4.033 -1.9134 -0.6731  0.8797
  116MOL    H4534775   5.024   1.900   4.061  0.3415 -0.5447 -0.0342
  116MOL    H4634776   5.009   1.747   3.993  1.7100  0.3992  0.2616
  116MOL    C4734777   5.094   1.903   3.855 -0.3837 -0.3023 -0.3466
  116MOL    O4834778   5.226   1.845   3.883 -0.1747  0.0769  0.0737
  116MOL    C4934779   5.329   1.923   3.903 -0.1275  0.0273 -0.6861
  116MOL    O5034780   5.329   2.037   3.874 -0.1595 -0.2830 -0.5076
  116MOL    C5134781   5.450   1.848   3.958  0.2570  0.4981 -0.0668
  116MOL    C5234782   5.567   1.943   4.008 -0.6149  0.0792 -0.3070
  116MOL    C5334783   5.059   1.861   3.717  0.5322 -0.2106 -0.0674
  116MOL    H5434784   5.094   2.012   3.863  0.1969 -0.0541 -3.0280
  116MOL    H5534785   5.410   1.782   4.035  0.3586 -0.1748 -0.5921
  116MOL    H5634786   5.492   1.782   3.882 -2.3512  0.2001 -1.3054
  116MOL    H5734787   5.642   1.881   4.058 -0.7057 -0.1983 -0.5143
  116MOL    H5834788   5.619   1.997   3.929 -0.0568  0.4089  0.2818
  116MOL    H5934789   5.523   2.012   4.080  0.4267 -0.3313  0.7382
  116MOL    H6034790   5.065   1.752   3.715 -0.6731 -0.2714 -2.1821
  116MOL    H6134791   4.954   1.881   3.695  0.2658 -1.0493  0.4237
  116MOL    C6234792   5.135   1.927   3.597 -0.2130  0.1273  0.5575
  116MOL    O6334793   5.091   1.851   3.482 -0.0076 -0.0535 -0.0553
  116MOL    C6434794   5.175   1.765   3.418  0.5499 -0.4388 -1.2828
  116MOL    O6534795   5.297   1.767   3.434 -0.5141 -0.5025  0.5922
  116MOL    C6634796   5.108   1.688   3.306 -0.5716 -0.0838  0.8901
  116MOL    C6734797   5.156   1.722   3.166  0.2216 -0.4078 -1.0309
  116MOL    C6834798   5.094   2.072   3.584  0.9722 -0.4163  0.2282
  116MOL    H6934799   5.240   1.937   3.626 -0.4071  1.1839  0.8964
  116MOL    H7034800   5.128   1.582   3.317  0.9969  0.1151  0.1001
  116MOL    H7134801   4.999   1.690   3.309 -0.5508  1.6614  0.9527
  116MOL    H7234802   5.086   1.800   3.136  1.4880  1.2166  0.2027
  116MOL    H7334803   5.253   1.771   3.172 -0.1902  0.4145 -1.0047
  116MOL    H7434804   5.145   1.647   3.087 -4.1449 -0.7496 -0.2651
  116MOL    H7534805   4.991   2.061   3.552  1.6056 -3.5768 -0.8960
  116MOL    H7634806   5.092   2.126   3.678  1.1507  2.1905 -1.2130
  116MOL    C7734807   5.171   2.155   3.480 -0.1974 -0.7192  0.2538
  116MOL    O7834808   5.089   2.275   3.458  0.4979  0.3069 -0.2583
  116MOL    C7934809   4.981   2.269   3.370  0.1140  0.1724  0.8656
  116MOL    O8034810   4.942   2.171   3.306  0.0198  0.0030  0.1714
  116MOL    C8134811   4.898   2.397   3.357  0.2427 -1.1069  0.0486
  116MOL    C8234812   4.982   2.521   3.324  0.4078 -0.4254 -0.3292
  116MOL    C8334813   5.314   2.198   3.541 -0.0325 -0.4876  0.4429
  116MOL    H8434814   5.185   2.118   3.379  1.0448 -1.4596  0.6845
  116MOL    H8534815   4.821   2.383   3.281  0.7339  0.8785 -0.8397
  116MOL    H8634816   4.846   2.401   3.453 -1.1402 -0.5840 -0.7034
  116MOL    H8734817   5.049   2.505   3.239  2.1253 -1.3032  1.1427
  116MOL    H8834818   4.925   2.612   3.306 -0.4832 -1.4696 -2.8889
  116MOL    H8934819   5.044   2.547   3.411  2.0594 -0.8151 -1.3630
  116MOL    H9034820   5.294   2.259   3.630 -1.6392 -2.2340  1.3256
  116MOL    H9134821   5.368   2.114   3.584  2.2730  0.8755  0.2833
  116MOL    C9234822   5.403   2.277   3.434 -0.2200  0.1867 -0.1535
  116MOL    O9334823   5.481   2.372   3.507 -0.0773  0.4859  0.2734
  116MOL    C9434824   5.433   2.500   3.530  0.6858  0.2391  0.6107
  116MOL    O9534825   5.324   2.545   3.491  0.0432 -0.0227 -0.4123
  116MOL    C9634826   5.534   2.578   3.619 -0.0177 -0.4682  0.4038
  116MOL    C9734827   5.464   2.613   3.753  0.2734  0.2097  0.4433
  116MOL    C9834828   5.506   2.186   3.368  0.5312  0.4450 -0.0249
  116MOL    H9934829   5.336   2.317   3.358 -0.7249  0.9922  0.6985
  116MOL   H10034830   5.623   2.520   3.641  1.7488  1.2686 -1.7703
  116MOL   H10134831   5.569   2.666   3.564  0.9361 -0.9788  0.1779
  116MOL   H10234832   5.379   2.680   3.742 -1.8332 -2.2907  0.9961
  116MOL   H10334833   5.414   2.523   3.789  1.6016 -0.0333  1.7361
  116MOL   H10434834   5.528   2.662   3.827 -0.2998  0.1915  0.9589
  116MOL   H10534835   5.584   2.177   3.444 -1.0727 -2.8891  1.3153
  116MOL   H10634836   5.469   2.084   3.360 -0.2249  0.8892 -2.9881
  116MOL   C10734837   5.554   2.230   3.227 -0.4493  0.7988 -0.7674
  116MOL   O10834838   5.652   2.341   3.230  0.7513  0.4229  0.3233
  116MOL   C10934839   5.617   2.471   3.215  0.3405 -0.1311  1.1760
  116MOL   O11034840   5.501   2.521   3.209  0.3643 -0.4060  0.3636
  116MOL   C11134841   5.737   2.565   3.212  0.1448 -0.2379 -0.0013
  116MOL   C11234842   5.792   2.585   3.351  0.4005  0.5258 -0.6882
  116MOL   C11334843   5.623   2.116   3.154 -0.3290 -0.5917  0.6024
  116MOL   H11434844   5.468   2.263   3.169  0.2593  0.2398 -2.1520
  116MOL   H11534845   5.820   2.523   3.156  1.6405  2.5412  0.0181
  116MOL   H11634846   5.709   2.661   3.169 -1.1490 -0.0390  1.2111
  116MOL   H11734847   5.826   2.497   3.405 -0.6349  0.4249 -0.1766
  116MOL   H11834848   5.876   2.653   3.349 -0.1345  1.1825 -2.5952
  116MOL   H11934849   5.718   2.644   3.406  1.3528  1.0165  0.0662
  116MOL   H12034850   5.663   2.155   3.061  0.0575 -2.9105 -0.2397
  116MOL   H12134851   5.711   2.083   3.210  0.1879 -0.2738 -0.0285
  116MOL   C12234852   5.527   2.003   3.113 -0.2594 -0.1102  0.1156
  116MOL   O12334853   5.433   2.053   3.021  0.1896 -0.3142  0.6427
  116MOL   C12434854   5.306   2.069   3.065 -0.7064  0.4269  0.1698
  116MOL   O12534855   5.271   2.049   3.180  0.8032  0.5591  0.2396
  116MOL   C12634856   5.213   2.119   2.950 -0.1007  0.0025  1.0576
  116MOL   C12734857   5.128   2.004   2.885 -0.2154 -0.1673  0.7234
  116MOL   C12834858   5.607   1.880   3.066 -0.1796 -0.0348 -0.6038
  116MOL   H12934859   5.479   1.963   3.202 -2.3219 -0.9776 -1.3558
  116MOL   H13034860   5.147   2.197   2.989 -2.0078 -0.6773 -0.7491
  116MOL   H13134861   5.274   2.164   2.872 -0.8036 -0.6424  0.1421
  116MOL   H13234862   5.070   1.948   2.959 -0.9189  0.0450  0.3428
  116MOL   H13334863   5.051   2.036   2.814 -0.7539 -1.6576  0.6126
  116MOL   H13434864   5.190   1.936   2.827 -1.5022  0.0255 -0.9320
  116MOL   H13534865   5.685   1.913   2.998  1.8234 -0.5700  1.4083
  116MOL   H13634866   5.665   1.847   3.152 -2.3437  1.3026  1.4571
  116MOL   C13734867   5.518   1.768   3.010 -0.0458 -0.2419  0.0415
  116MOL   O13834868   5.501   1.774   2.868 -0.3870 -0.6585 -0.6085
  116MOL   C13934869   5.380   1.764   2.805  0.1149  0.0285 -0.5902
  116MOL   O14034870   5.278   1.722   2.857  0.2872  0.0245  0.4328
  116MOL   C14134871   5.377   1.818   2.666  0.2687  0.3044  0.0080
  116MOL   C14234872   5.434   1.727   2.560  0.3081 -0.5066  0.0725
  116MOL   C14334873   5.569   1.626   3.042  0.4460  0.0336 -0.9344
  116MOL   H14434874   5.421   1.774   3.060  0.1727  1.2167  0.2969
  116MOL   H14534875   5.274   1.849   2.643  0.5069  1.1829  0.0935
  116MOL   H14634876   5.431   1.912   2.663  1.9154 -0.5417  2.3430
  116MOL   H14734877   5.540   1.703   2.567  0.3200 -0.2114  0.9394
  116MOL   H14834878   5.387   1.628   2.561 -0.0898 -0.3234  2.0129
  116MOL   H14934879   5.424   1.772   2.461  0.1216 -0.3527  0.1612
  116MOL   H15034880   5.570   1.601   3.148  1.7862 -0.0040 -0.9462
  116MOL   H15134881   5.498   1.553   3.004 -0.8713  0.9479 -0.2595
  116MOL   C15234882   5.715   1.600   2.997  0.1033  0.6692  0.7619
  116MOL   O15334883   5.819   1.673   3.065 -0.1966 -0.2823 -0.2096
  116MOL   C15434884   5.910   1.730   2.985  0.0367  0.0856 -0.7272
  116MOL   O15534885   5.920   1.711   2.859 -0.0299  0.0584  0.3498
  116MOL   C15634886   6.012   1.818   3.061  0.5366  0.3657 -0.1282
  116MOL   C15734887   6.161   1.773   3.045  0.0501  0.5120 -0.0658
  116MOL   C15834888   5.744   1.447   2.989 -0.0301 -0.2590 -0.9428
  116MOL   H15934889   5.716   1.620   2.889 -1.1808 -2.0065  0.2026
  116MOL   H16034890   6.005   1.923   3.032  0.3278  0.3662 -0.0805
  116MOL   H16134891   5.998   1.798   3.167  0.9768 -1.2597 -0.3562
  116MOL   H16234892   6.232   1.841   3.093 -1.4484  1.0321  1.4562
  116MOL   H16334893   6.179   1.672   3.081 -1.6065 -0.1475 -1.0566
  116MOL   H16434894   6.186   1.772   2.939  0.1649  1.9584 -0.0651
  116MOL   H16534895   5.852   1.436   2.979  0.4204  2.4706  0.6235
  116MOL   H16634896   5.716   1.411   3.088 -2.5715  1.6668 -0.9213
  116MOL   C16734897   5.678   1.360   2.871  0.5010 -0.3293 -0.8096
  116MOL   O16834898   5.755   1.395   2.754 -0.1968  0.8330  0.2388
  116MOL   C16934899   5.696   1.426   2.638 -0.6254 -0.9601  0.1321
  116MOL   O17034900   5.570   1.431   2.624  0.2601 -0.4395 -0.4592
  116MOL   C17134901   5.787   1.444   2.521  0.5040 -0.6700  0.0434
  116MOL   C17234902   5.718   1.465   2.384  0.7439  0.4563 -0.2711
  116MOL   C17334903   5.689   1.206   2.866  0.3011  0.7591  0.4510
  116MOL   H17434904   5.572   1.382   2.871  0.3122 -1.2276 -0.1357
  116MOL   H17534905   5.857   1.523   2.546 -0.6130  0.7610 -1.2646
  116MOL   H17634906   5.838   1.348   2.515  0.0486 -0.8651 -0.8364
  116MOL   H17734907   5.611   1.444   2.390  1.1909 -1.6992  1.0901
  116MOL   H17834908   5.715   1.570   2.358 -1.2234  0.3003 -0.7434
  116MOL   H17934909   5.773   1.423   2.300  2.9997  1.2236  0.7862
  116MOL   H18034910   5.639   1.169   2.777  0.4353 -0.4032  0.8488
  116MOL   H18134911   5.789   1.165   2.868 -0.9028 -2.4181 -1.1899
  116MOL   C18234912   5.623   1.142   2.987  0.7237 -0.2783  0.3066
  116MOL   O18334913   5.700   1.150   3.101 -1.1195  0.3559  0.2179
  116MOL   C18434914   5.790   1.059   3.133 -0.4300  0.5083  0.2014
  116MOL   O18534915   5.837   0.976   3.059 -0.2962  0.2535  0.4623
  116MOL   C18634916   5.872   1.086   3.262  0.1615 -0.0763  0.2794
  116MOL   C18734917   5.855   1.227   3.320  0.2934  0.5434 -0.0432
  116MOL   C18834918   5.479   1.188   3.025  0.8143 -0.6315  0.0111
  116MOL   H18934919   5.610   1.035   2.973 -0.4251 -0.1527  0.3360
  116MOL   H19034920   5.853   1.013   3.341  0.4040  0.1696  0.5672
  116MOL   H19134921   5.977   1.073   3.235 -0.2705 -2.0945 -0.5163
  116MOL   H19234922   5.914   1.293   3.256  0.0837  0.4973 -0.2882
  116MOL   H19334923   5.749   1.251   3.316  0.1874 -0.0285 -0.9969
  116MOL   H19434924   5.891   1.226   3.423  0.5032  0.0388 -0.1236
  116MOL   H19534925   5.440   1.138   3.114  1.9901 -1.2176  0.2041
  116MOL   H19634926   5.481   1.288   3.067 -1.2128 -0.7627  0.4748
  116MOL   C19734927   5.376   1.189   2.912 -0.0787 -0.2206  0.3537
  116MOL   O19834928   5.313   1.070   2.881  0.1301  0.2620 -0.3745
  116MOL   C19934929   5.363   0.970   2.808  1.0730 -0.0508  0.0899
  116MOL   O20034930   5.484   0.970   2.772  0.6132  0.1265 -0.5356
  116MOL   C20134931   5.262   0.859   2.771  0.1398 -0.5212 -0.4264
  116MOL   C20234932   5.323   0.743   2.691  0.4420  0.0110  0.4853
  116MOL   C20334933   5.259   1.286   2.941  0.2285  0.4896 -0.2674
  116MOL   H20434934   5.425   1.226   2.821  0.3773 -2.0931 -0.1879
  116MOL   H20534935   5.216   0.818   2.860  0.8323 -0.4582 -0.0340
  116MOL   H20634936   5.179   0.898   2.712  1.0675  2.6893  0.2813
  116MOL   H20734937   5.259   0.662   2.657  0.5789  0.1664 -0.1533
  116MOL   H20834938   5.343   0.798   2.598 -1.6940 -0.4533 -0.2689
  116MOL   H20934939   5.411   0.708   2.744 -1.4890 -4.1689  1.1347
  116MOL   H21034940   5.187   1.237   3.007  0.7533 -2.1586 -1.5950
  116MOL   H21134941   5.284   1.378   2.993 -0.7369 -0.6731  2.3483
  116MOL   C21234942   5.169   1.316   2.820 -0.8208 -0.6747  0.8297
  116MOL   O21334943   5.069   1.403   2.861 -0.4601 -0.0317 -0.3199
  116MOL   C21434944   4.945   1.366   2.899  0.7048  0.2592 -0.3764
  116MOL   O21534945   4.901   1.249   2.912  0.3483 -0.5089 -0.1515
  116MOL   C21634946   4.870   1.490   2.935 -0.4438  0.2381  0.2874
  116MOL   C21734947   4.722   1.464   2.946 -0.3389  1.0479 -0.4083
  116MOL   C21834948   5.247   1.376   2.702 -0.0920  0.1474  0.7543
  116MOL   H21934949   5.126   1.231   2.768 -0.3493 -1.9908  2.5258
  116MOL   H22034950   4.905   1.544   3.023 -0.1110  0.8755 -0.2301
  116MOL   H22134951   4.898   1.559   2.855 -0.4818 -0.5935 -0.4425
  116MOL   H22234952   4.658   1.552   2.957 -0.8950  0.3933  1.8327
  116MOL   H22334953   4.684   1.409   2.859  1.4852 -2.5241  0.9568
  116MOL   H22434954   4.695   1.405   3.033  1.4409  0.4436 -0.2496
  116MOL   H22534955   5.312   1.459   2.733 -0.5485  1.1349 -0.8999
  116MOL   H22634956   5.327   1.314   2.661  1.8030  2.0831  1.4326
  116MOL   C22734957   5.147   1.414   2.588  0.2207  0.4226  0.2792
  116MOL   O22834958   5.106   1.548   2.604 -0.0197 -0.2067 -0.1286
  116MOL   C22934959   4.978   1.585   2.613  0.1931  0.6590  0.3840
  116MOL   O23034960   4.884   1.505   2.603 -0.3866  0.5631 -0.3584
  116MOL   C23134961   4.964   1.734   2.610  0.5885 -0.1615 -0.2060
  116MOL   C23234962   5.014   1.810   2.482  1.0889  0.6018 -0.1426
  116MOL   C23334963   5.215   1.390   2.452 -0.1443  0.5508  0.8816
  116MOL   H23434964   5.058   1.351   2.595  0.9868 -0.4141  3.4813
  116MOL   H23534965   4.856   1.734   2.625  0.4382  0.8425 -1.2099
  116MOL   H23634966   5.023   1.778   2.690  1.3648 -1.0854 -0.2587
  116MOL   H23734967   4.956   1.759   2.405  0.7118  1.2515 -0.2983
  116MOL   H23834968   4.990   1.917   2.481  0.7306  0.5247  0.1960
  116MOL   H23934969   5.121   1.794   2.471  1.3290  1.9674  0.1427
  116MOL   H24034970   5.157   1.445   2.378 -1.4470  0.5946  1.9070
  116MOL   H24134971   5.317   1.430   2.447  0.5595 -1.3375 -0.2228
  116MOL   C24234972   5.223   1.248   2.402 -0.0375  0.9564 -1.0428
  116MOL   O24334973   5.335   1.178   2.457 -0.4043  0.2293  0.8799
  116MOL   C24434974   5.450   1.179   2.401 -0.3601  0.4295  0.5401
  116MOL   O24534975   5.479   1.226   2.295 -0.1608  0.3592 -0.1499
  116MOL   C24634976   5.552   1.100   2.481  0.3232 -0.5470  0.5000
  116MOL   C24734977   5.554   0.957   2.450 -0.4623  0.2603  0.5002
  116MOL   C24834978   5.098   1.157   2.425 -0.6333  0.2531 -0.1210
  116MOL   H24934979   5.235   1.249   2.294  0.9022  0.2888 -0.9511
  116MOL   H25034980   5.652   1.141   2.466  1.1205 -1.6502  2.5644
  116MOL   H25134981   5.525   1.118   2.585  1.0441 -2.3759  1.0188
  116MOL   H25234982   5.621   0.939   2.365 -0.8456 -1.7795  0.6061
  116MOL   H25334983   5.589   0.893   2.530 -0.5986  1.1574  1.2876
  116MOL   H25434984   5.459   0.915   2.416 -0.1169  1.3088 -1.9142
  116MOL   H25534985   5.115   1.058   2.383  1.1357  0.4125  0.1532
  116MOL   H25634986   5.103   1.134   2.532 -0.5993  0.9105  0.0220
  116MOL   C25734987   4.963   1.219   2.378 -0.0978 -0.2949 -0.6898
  116MOL   O25834988   4.978   1.230   2.236  0.0527 -0.2891  0.3748
  116MOL   C25934989   4.974   1.348   2.165 -0.2061 -0.6258 -0.6404
  116MOL   O26034990   4.943   1.461   2.203  0.1530  0.2958 -0.4679
  116MOL   C26134991   5.008   1.328   2.016  0.8606 -0.0418 -0.3867
  116MOL   C26234992   5.145   1.261   1.998  0.4446 -0.0635 -0.2486
  116MOL   C26334993   4.839   1.145   2.425  0.4201 -0.6855  0.1661
  116MOL   H26434994   4.949   1.320   2.416 -1.8203  0.3443 -2.9328
  116MOL   H26534995   4.924   1.281   1.964 -2.0082  3.0562  1.2237
  116MOL   H26634996   5.012   1.424   1.966  2.4253 -0.6481 -1.4529
  116MOL   H26734997   5.145   1.229   1.895  1.1752  0.7096 -0.4970
  116MOL   H26834998   5.224   1.336   2.001  1.8209 -1.5365  3.0140
  116MOL   H26934999   5.158   1.179   2.069 -1.9858  0.5625  1.0111
  116MOL   H27035000   4.860   1.053   2.370  0.6677  0.6116 -1.9453
  116MOL   H27135001   4.827   1.133   2.533 -0.0929  1.7599  0.4092
  116MOL   C27235002   4.709   1.207   2.368  1.2822 -0.0073 -0.5221
  116MOL   O27335003   4.615   1.107   2.412  0.0560  0.1554 -0.1665
  116MOL   C27435004   4.529   1.050   2.325  0.6305 -0.1962 -0.4678
  116MOL   O27535005   4.535   1.061   2.203 -0.7504  0.7798  0.7170
  116MOL   C27635006   4.429   0.955   2.397  0.7986  0.1257 -0.9009
  116MOL   C27735007   4.492   0.851   2.492 -0.2966 -0.5239 -0.0678
  116MOL   C27835008   4.682   1.344   2.423  0.6761  0.3028  0.3247
  116MOL   H27935009   4.718   1.194   2.260  0.1054 -0.9315 -0.5194
  116MOL   H28035010   4.363   1.016   2.459  0.3905  0.3484 -1.5506
  116MOL   H28135011   4.361   0.905   2.328  0.4672 -1.4910  0.5488
  116MOL   H28235012   4.582   0.890   2.540 -0.6696  0.1190  0.1170
  116MOL   H28335013   4.418   0.846   2.571  0.2024  0.2686  0.4598
  116MOL   H28435014   4.495   0.748   2.458 -1.9771  0.1124 -2.2676
  116MOL   H28535015   4.686   1.329   2.531  0.6227 -0.0981  0.2716
  116MOL   H28635016   4.762   1.413   2.393  1.3664 -0.7869 -0.3893
  116MOL   C28735017   4.548   1.403   2.392  0.7107  0.0435 -0.1302
  116MOL   O28835018   4.540   1.527   2.474 -0.3349  0.0495 -0.2223
  116MOL   C28935019   4.454   1.526   2.589 -0.6068 -0.2230 -0.2618
  116MOL   O29035020   4.380   1.428   2.619 -0.3918 -0.2691  0.5110
  116MOL   C29135021   4.474   1.640   2.690 -0.4007 -0.3477  0.4893
  116MOL   C29235022   4.354   1.673   2.774 -0.2378  0.8249 -0.4641
  116MOL   C29335023   4.548   1.439   2.241 -0.1782 -0.3212 -0.7230
  116MOL   H29435024   4.468   1.332   2.414 -0.7206  2.2247  1.8771
  116MOL   H29535025   4.556   1.618   2.758 -0.8367  0.4119  1.2847
  116MOL   H29635026   4.505   1.732   2.639 -1.2779 -0.4466 -0.2430
  116MOL   H29735027   4.374   1.738   2.859  3.4097 -0.5484 -0.1999
  116MOL   H29835028   4.268   1.707   2.716 -0.9540  2.1759  1.3317
  116MOL   H29935029   4.328   1.577   2.819  3.5612 -0.2786 -0.4633
  116MOL   H30035030   4.643   1.481   2.208  0.2947 -0.5765  0.2898
  116MOL   H30135031   4.533   1.348   2.183 -0.3815 -2.5225  2.6645
  116MOL   H30235032   4.465   1.507   2.223 -1.2830 -1.6457 -0.6938
  117MOL     C135033   6.281   0.898   1.477 -0.0631 -0.1253  0.7997
  117MOL     O235034   6.255   0.812   1.594 -0.7374  0.0741 -0.0609
  117MOL     C335035   6.231   0.876   1.710 -0.3954 -1.0783 -0.0345
  117MOL     O435036   6.226   0.999   1.724 -0.1519  0.7700 -0.1813
  117MOL     C535037   6.212   0.794   1.833  0.0647  0.2953 -0.5877
  117MOL     C635038   6.345   0.780   1.917  0.2513 -0.0438  0.6610
  117MOL     C735039   6.319   0.794   1.363  0.2201  0.0500 -0.3443
  117MOL     H835040   6.364   0.966   1.494 -0.2918  0.1908  0.6427
  117MOL     H935041   6.144   0.841   1.904  0.7546 -0.9951  0.9703
  117MOL    H1035042   6.170   0.698   1.802 -2.2997  1.0654  0.1300
  117MOL    H1135043   6.425   0.728   1.863 -0.3168  0.3067 -0.5338
  117MOL    H1235044   6.397   0.875   1.931  1.1521 -0.8678  3.1936
  117MOL    H1335045   6.334   0.735   2.016  1.1188  0.4553  0.9882
  117MOL    H1435046   6.358   0.844   1.274 -3.0766 -0.0413 -1.8998
  117MOL    H1535047   6.416   0.753   1.391  0.9487  0.5997 -1.9859
  117MOL    H1635048   6.197   0.956   1.440 -0.0784 -0.8375 -0.3120
  117MOL    C1735049   6.216   0.685   1.335  0.9523 -0.7527 -0.2424
  117MOL    O1835050   6.090   0.746   1.292  0.1449 -0.2776  0.1437
  117MOL    C1935051   5.993   0.775   1.381  0.1553  0.2403  0.0344
  117MOL    O2035052   5.970   0.723   1.485 -0.4756 -0.1384 -0.8662
  117MOL    C2135053   5.905   0.895   1.349 -0.2821  0.4719  0.1813
  117MOL    C2235054   5.844   0.888   1.209 -0.3254 -0.2803  0.3576
  117MOL    C2335055   6.262   0.573   1.238 -0.1899  0.1075 -0.0722
  117MOL    H2435056   6.200   0.634   1.431 -0.2708  0.7561  0.3733
  117MOL    H2535057   5.831   0.900   1.429  1.1458  4.0670  1.4117
  117MOL    H2635058   5.955   0.992   1.361 -0.3593  0.3131  1.8042
  117MOL    H2735059   5.781   0.801   1.189  0.9350 -1.0016 -0.5756
  117MOL    H2835060   5.785   0.976   1.183  1.4011  0.2319 -2.0442
  117MOL    H2935061   5.920   0.899   1.131  1.5818  2.3385  2.5138
  117MOL    H3035062   6.279   0.625   1.143 -0.2130  0.5400  0.1579
  117MOL    H3135063   6.364   0.548   1.266 -0.4794 -0.9037  0.0833
  117MOL    C3235064   6.165   0.459   1.226 -0.5766  0.1126 -0.6345
  117MOL    O3335065   6.179   0.427   1.087  0.0007  0.1057 -0.0041
  117MOL    C3435066   6.059   0.413   1.018 -0.3321  0.2107  0.2554
  117MOL    O3535067   5.946   0.436   1.060  0.2311  0.2472 -0.3862
  117MOL    C3635068   6.085   0.361   0.875 -0.5236 -0.1818  0.0525
  117MOL    C3735069   5.961   0.289   0.811 -0.2093  0.1340  0.0958
  117MOL    C3835070   6.210   0.329   1.301  0.4487  0.4836  0.6489
  117MOL    H3935071   6.064   0.481   1.261 -0.4493  0.0355 -0.2139
  117MOL    H4035072   6.110   0.442   0.807 -1.2502  0.8128  0.9328
  117MOL    H4135073   6.169   0.293   0.889  0.2002  0.1743 -2.3038
  117MOL    H4235074   5.981   0.291   0.704  0.7424 -0.5190  0.2542
  117MOL    H4335075   5.955   0.183   0.835 -0.6131  0.2117  0.3535
  117MOL    H4435076   5.869   0.346   0.802  1.1748  2.6630  1.4368
  117MOL    H4535077   6.141   0.249   1.276  0.0277  1.3286 -0.9918
  117MOL    H4635078   6.310   0.297   1.270  1.2688  2.9781  0.6168
  117MOL    C4735079   6.198   0.332   1.453  0.2171  0.2886  0.0467
  117MOL    O4835080   6.056   0.341   1.484 -0.3710 -0.2946 -0.3276
  117MOL    C4935081   6.003   0.424   1.578  0.2488  0.0932 -0.0822
  117MOL    O5035082   6.059   0.489   1.660 -0.4193 -0.5512  0.2216
  117MOL    C5135083   5.851   0.418   1.572 -0.6157  0.2275  0.2492
  117MOL    C5235084   5.797   0.448   1.430  0.7800  0.5816 -0.1462
  117MOL    C5335085   6.280   0.219   1.521 -0.5644 -0.1394  0.0491
  117MOL    H5435086   6.248   0.424   1.484  0.7098  0.0789 -0.1100
  117MOL    H5535087   5.807   0.323   1.602 -0.6335 -0.7107 -2.5490
  117MOL    H5635088   5.819   0.498   1.639  1.9107  1.9303 -0.5220
  117MOL    H5735089   5.713   0.516   1.441  1.1146  1.2448 -1.5614
  117MOL    H5835090   5.870   0.472   1.353 -0.2042  1.6982 -0.7542
  117MOL    H5935091   5.760   0.352   1.392  2.4611 -1.2933  2.8427
  117MOL    H6035092   6.223   0.151   1.584 -0.6915 -0.0546  0.0260
  117MOL    H6135093   6.314   0.145   1.449 -1.4256  0.0401 -0.5460
  117MOL    C6235094   6.396   0.265   1.619 -0.9505 -0.3716 -0.5728
  117MOL    O6335095   6.491   0.338   1.546  0.1854 -0.5936 -0.2924
  117MOL    C6435096   6.616   0.286   1.535  0.5449 -0.5260 -0.8167
  117MOL    O6535097   6.657   0.179   1.591 -0.6443 -0.3776  0.0181
  117MOL    C6635098   6.706   0.372   1.443 -0.2963 -0.4988 -0.2682
  117MOL    C6735099   6.670   0.522   1.432 -0.2412 -0.0249 -0.3594
  117MOL    C6835100   6.335   0.349   1.731 -0.1303  0.1123  0.3107
  117MOL    H6935101   6.433   0.170   1.658  0.1119  0.0342 -0.5852
  117MOL    H7035102   6.806   0.361   1.484 -0.9059 -2.7303  0.7008
  117MOL    H7135103   6.700   0.326   1.344 -3.9404  4.2511 -2.4734
  117MOL    H7235104   6.755   0.585   1.406  0.1402 -0.2243  0.3827
  117MOL    H7335105   6.587   0.546   1.365  1.1804  0.9618 -1.7795
  117MOL    H7435106   6.633   0.558   1.528  2.5562  2.1115 -0.0175
  117MOL    H7535107   6.312   0.450   1.694  0.7661 -0.8174 -2.9732
  117MOL    H7635108   6.240   0.302   1.754  0.6723 -2.0840 -0.6797
  117MOL    C7735109   6.432   0.345   1.849  0.7717  0.1305 -0.7937
  117MOL    O7835110   6.528   0.450   1.835  0.3891 -0.3551 -0.1238
  117MOL    C7935111   6.659   0.427   1.882 -0.0020 -0.3398 -0.5737
  117MOL    O8035112   6.689   0.349   1.973 -0.3274 -0.2797 -0.4239
  117MOL    C8135113   6.763   0.507   1.804 -0.2304 -0.1312  0.8924
  117MOL    C8235114   6.811   0.626   1.878  0.3202 -0.2469 -0.0093
  117MOL    C8335115   6.362   0.359   1.986 -0.4655 -0.3333  0.5331
  117MOL    H8435116   6.494   0.255   1.847 -0.3755 -0.6611 -1.6353
  117MOL    H8535117   6.844   0.437   1.782 -0.9663 -0.2200 -1.7515
  117MOL    H8635118   6.713   0.529   1.710 -1.8939 -1.8220  1.3405
  117MOL    H8735119   6.886   0.682   1.822  2.1786 -1.4641  1.1862
  117MOL    H8835120   6.721   0.682   1.902 -0.7879 -2.5132  1.3244
  117MOL    H8935121   6.863   0.593   1.969  1.6047  0.9266 -0.3023
  117MOL    H9035122   6.447   0.377   2.052  0.4288 -0.8286 -0.4732
  117MOL    H9135123   6.300   0.443   2.019  0.4350 -0.2774  2.1361
  117MOL    C9235124   6.274   0.244   2.031  0.9226  0.3194 -0.2952
  117MOL    O9335125   6.352   0.123   2.023  0.3124  0.1628  0.7833
  117MOL    C9435126   6.332   0.031   1.912  0.5791  0.6992 -0.1656
  117MOL    O9535127   6.249   0.054   1.822 -0.6833  0.0412  0.0754
  117MOL    C9635128   6.416   7.849   1.903  0.5887 -0.3817 -0.5252
  117MOL    C9735129   6.539   7.882   1.814 -0.4100 -0.0232  0.2769
  117MOL    C9835130   6.228   0.266   2.174  0.1434  0.3353  0.3971
  117MOL    H9935131   6.189   0.229   1.965  1.4039 -0.2540 -0.7835
  117MOL   H10035132   6.453   7.824   2.003 -0.5051  0.7750  0.1842
  117MOL   H10135133   6.348   7.770   1.871  0.3034 -1.1900  1.9752
  117MOL   H10235134   6.602   7.794   1.824  0.6335  0.4100 -2.2280
  117MOL   H10335135   6.504   7.881   1.711 -1.2692 -2.6401  0.5773
  117MOL   H10435136   6.599   0.026   1.837 -1.5990  0.7921  0.2785
  117MOL   H10535137   6.316   0.278   2.238 -1.1573 -1.1413  2.5136
  117MOL   H10635138   6.169   0.355   2.197 -0.1013  0.6412 -1.3803
  117MOL   C10735139   6.145   0.150   2.230  0.3193  1.0772 -0.6735
  117MOL   O10835140   6.045   0.109   2.135 -0.2730 -0.3499  0.0562
  117MOL   C10935141   5.919   0.118   2.160 -0.6731 -0.1313 -0.3362
  117MOL   O11035142   5.876   0.157   2.269  0.7605  0.2151 -0.0097
  117MOL   C11135143   5.827   0.096   2.039 -0.7525  0.3136 -0.5515
  117MOL   C11235144   5.687   0.150   2.051  0.9349  0.4977  0.3588
  117MOL   C11335145   6.228   0.032   2.284  0.7074  0.0003  0.4417
  117MOL   H11435146   6.093   0.185   2.319  0.4461  0.2593 -0.2738
  117MOL   H11535147   5.876   0.148   1.956 -0.6304  0.8145 -0.1714
  117MOL   H11635148   5.819   7.937   2.009 -0.1615  0.3568 -0.8628
  117MOL   H11735149   5.646   0.180   1.955 -1.4155 -0.5592  0.9976
  117MOL   H11835150   5.614   0.087   2.101 -0.5934 -0.2821 -2.7508
  117MOL   H11935151   5.682   0.246   2.102 -2.3785  0.6713 -0.1907
  117MOL   H12035152   6.156   7.904   2.321 -0.8891  0.7018 -1.2486
  117MOL   H12135153   6.289   7.928   2.208  1.0794  0.5443  0.3900
  117MOL   C12235154   6.314   0.057   2.410  0.3397 -0.1239 -0.5437
  117MOL   O12335155   6.437   0.117   2.356 -0.4080  0.9586 -0.0577
  117MOL   C12435156   6.548   0.037   2.329  0.2864  0.5474 -0.3171
  117MOL   O12535157   6.559   7.863   2.360 -0.0485  0.3747  0.1642
  117MOL   C12635158   6.642   0.105   2.243 -0.0387 -0.3333  0.2706
  117MOL   C12735159   6.714   0.009   2.140 -0.4583  0.8423  0.3111
  117MOL   C12835160   6.249   0.144   2.512  1.5256 -0.4432  0.2634
  117MOL   H12935161   6.347   7.908   2.454  3.4086  2.0577  2.0605
  117MOL   H13035162   6.590   0.172   2.174  0.0037  1.5124  1.9823
  117MOL   H13135163   6.716   0.167   2.294  0.2374  0.5682 -1.2039
  117MOL   H13235164   6.638   7.898   2.087  1.4019 -0.9354 -0.5142
  117MOL   H13335165   6.773   0.065   2.067  1.1428  0.3741  1.2149
  117MOL   H13435166   6.782   7.877   2.177 -0.4296  0.1592 -1.1498
  117MOL   H13535167   6.228   0.246   2.480 -0.9249 -1.5260 -1.7605
  117MOL   H13635168   6.147   0.111   2.533  1.0174  1.3789  0.8069
  117MOL   C13735169   6.322   0.159   2.646  0.0432  0.1368  0.4433
  117MOL   O13835170   6.352   0.034   2.706 -0.2060 -0.4917  0.4075
  117MOL   C13935171   6.291   7.944   2.818  0.4251 -0.0298  0.4818
  117MOL   O14035172   6.198   0.066   2.868  0.6197  0.3137  0.3374
  117MOL   C14135173   6.339   7.812   2.878 -0.1377 -0.2417  0.2618
  117MOL   C14235174   6.222   7.730   2.945  0.4510  0.1547  0.2321
  117MOL   C14335175   6.451   0.243   2.636 -0.8487  0.5219 -0.2967
  117MOL   H14435176   6.249   0.216   2.703 -4.5191 -3.3721 -1.5525
  117MOL   H14535177   6.370   7.744   2.798 -0.9119  0.0263 -0.2715
  117MOL   H14635178   6.423   7.825   2.946  1.4303 -0.8060 -1.5251
  117MOL   H14735179   6.177   7.806   3.007 -0.1111  2.2323 -2.6445
  117MOL   H14835180   6.143   7.688   2.882 -1.0425  1.1687  1.4132
  117MOL   H14935181   6.268   7.646   2.998 -1.2942 -1.8015 -1.2260
  117MOL   H15035182   6.527   0.187   2.582 -0.3570 -1.7588  2.6149
  117MOL   H15135183   6.444   0.333   2.574 -0.1266  0.8639  0.1175
  117MOL   C15235184   6.514   0.282   2.769  0.1527 -0.7994 -0.4214
  117MOL   O15335185   6.635   0.348   2.740  0.1296 -0.1616 -0.2872
  117MOL   C15435186   6.752   0.310   2.800  0.8382 -0.2178  0.6878
  117MOL   O15535187   6.767   0.216   2.874  0.7288  0.6682 -0.1913
  117MOL   C15635188   6.865   0.410   2.781  0.4883 -0.2459 -0.6720
  117MOL   C15735189   6.827   0.554   2.794  0.4376  0.5470 -0.1042
  117MOL   C15835190   6.421   0.362   2.850  0.2994  0.3351 -0.4994
  117MOL   H15935191   6.531   0.191   2.827 -0.1514 -0.3637  0.3585
  117MOL   H16035192   6.936   0.396   2.862  0.2336  0.4414 -0.3266
  117MOL   H16135193   6.923   0.390   2.691 -0.0679  2.1285 -1.5822
  117MOL   H16235194   6.792   0.572   2.895 -0.1265  0.8815 -0.3623
  117MOL   H16335195   6.910   0.613   2.756  1.4886 -1.3906 -0.9218
  117MOL   H16435196   6.744   0.569   2.726  0.5138  0.5362 -0.1998
  117MOL   H16535197   6.411   0.461   2.805 -1.1910  0.6759  0.5326
  117MOL   H16635198   6.321   0.320   2.865  0.7535 -0.3565  0.5494
  117MOL   C16735199   6.477   0.409   2.989  0.2586  0.2342  1.3342
  117MOL   O16835200   6.402   0.513   3.049 -0.7335  0.1891 -0.3010
  117MOL   C16935201   6.435   0.640   3.035 -0.3025  0.0953 -0.1925
  117MOL   O17035202   6.518   0.677   2.961  0.5970  0.3419  0.3233
  117MOL   C17135203   6.357   0.742   3.118  0.4057 -0.6249  0.1418
  117MOL   C17235204   6.207   0.751   3.099  1.2738 -0.1465  0.0014
  117MOL   C17335205   6.491   0.300   3.095 -0.2018 -0.6867  0.5012
  117MOL   H17435206   6.579   0.447   2.981  0.0170  0.7723  0.8335
  117MOL   H17535207   6.372   0.719   3.224  0.9345 -0.7192  0.0455
  117MOL   H17635208   6.394   0.843   3.101  1.5506 -1.6213 -3.6738
  117MOL   H17735209   6.173   0.852   3.122  2.5675  0.6325 -1.4249
  117MOL   H17835210   6.168   0.717   3.003 -0.6290 -0.7351  0.9417
  117MOL   H17935211   6.169   0.678   3.170  0.2025  2.8945  2.6571
  117MOL   H18035212   6.397   0.281   3.148  0.7362 -0.3463  2.3232
  117MOL   H18135213   6.496   0.204   3.044  0.7039  0.3388 -1.3508
  117MOL   C18235214   6.618   0.320   3.187  0.0043  0.1148 -0.3013
  117MOL   O18335215   6.628   0.446   3.257 -0.3001 -0.4998  0.3760
  117MOL   C18435216   6.709   0.543   3.226  0.7981  0.0983  0.2951
  117MOL   O18535217   6.785   0.549   3.134  0.1171 -0.0774  0.0585
  117MOL   C18635218   6.705   0.657   3.325  0.3666  0.2976 -0.2529
  117MOL   C18735219   6.689   0.803   3.264  0.0299  0.1018  0.1824
  117MOL   C18835220   6.657   0.205   3.272  0.1871  0.1472  0.4019
  117MOL   H18935221   6.704   0.334   3.121 -0.4916 -3.5212 -1.8223
  117MOL   H19035222   6.617   0.630   3.383 -1.3354  1.2379 -2.3815
  117MOL   H19135223   6.787   0.653   3.397 -0.5316 -0.1055  0.7575
  117MOL   H19235224   6.589   0.803   3.220  0.6859 -0.6489 -1.3275
  117MOL   H19335225   6.700   0.878   3.343  0.6035 -1.6434  1.8063
  117MOL   H19435226   6.760   0.824   3.185  2.1003 -0.5151  1.8291
  117MOL   H19535227   6.644   0.117   3.210  0.0226  0.1391  0.4488
  117MOL   H19635228   6.765   0.201   3.290  0.4415 -1.4407 -1.4337
  117MOL   C19735229   6.571   0.184   3.403 -0.5176  0.2703 -0.0517
  117MOL   O19835230   6.570   0.045   3.433 -0.3918 -0.5208 -0.3759
  117MOL   C19935231   6.497   7.907   3.350  0.5574 -0.7724  0.5570
  117MOL   O20035232   6.433   0.006   3.257  0.0188  0.4141 -0.1168
  117MOL   C20135233   6.502   7.757   3.387 -0.0689  0.0321 -0.1060
  117MOL   C20235234   6.394   7.662   3.323 -0.4307  0.4118  0.4068
  117MOL   C20335235   6.611   0.273   3.519  0.7965 -0.5818 -0.0730
  117MOL   H20435236   6.469   0.207   3.370 -0.6432 -2.8180 -2.0023
  117MOL   H20535237   6.597   7.724   3.346  0.8224 -2.1606  3.5301
  117MOL   H20635238   6.501   7.740   3.494  1.1296  0.1745 -0.0672
  117MOL   H20735239   6.446   7.570   3.297 -0.3509  0.1938  1.3163
  117MOL   H20835240   6.318   7.637   3.397  0.2930  1.9709  1.7041
  117MOL   H20935241   6.333   7.686   3.236  1.0239 -1.3389 -1.1590
  117MOL   H21035242   6.613   0.379   3.494 -0.0650 -1.0910 -2.4681
  117MOL   H21135243   6.534   0.257   3.595  0.1954 -1.1984 -0.8044
  117MOL   C21235244   6.748   0.240   3.569  0.3380 -0.2540 -0.0015
  117MOL   O21335245   6.835   0.328   3.505  0.1897 -0.4104  0.6254
  117MOL   C21435246   6.965   0.297   3.505 -0.2975 -0.2943  0.6107
  117MOL   O21535247   7.014   0.196   3.548 -0.0407  1.0287 -0.6036
  117MOL   C21635248   7.043   0.400   3.432  1.0614 -0.4413  0.1687
  117MOL   C21735249   7.066   0.343   3.293 -0.3390 -0.0242  0.2609
  117MOL   C21835250   6.736   0.273   3.726 -0.1087  0.1527  0.3583
  117MOL   H21935251   6.781   0.138   3.556 -0.8512 -0.8890  1.6685
  117MOL   H22035252   6.986   0.492   3.428 -0.3191 -1.3146 -0.7790
  117MOL   H22135253   7.138   0.410   3.486  0.5661 -1.6586  1.3090
  117MOL   H22235254   7.015   0.253   3.258 -1.5980 -0.8163  3.9293
  117MOL   H22335255   7.037   0.423   3.225  0.2256 -1.3981 -1.6252
  117MOL   H22435256   7.168   0.316   3.267 -0.5570  1.1904 -1.9914
  117MOL   H22535257   6.657   0.213   3.770 -0.6640 -0.0691 -0.9225
  117MOL   H22635258   6.826   0.228   3.768  0.1574 -0.4884 -0.8920
  117MOL   C22735259   6.712   0.421   3.770  0.5866  0.2021 -0.0712
  117MOL   O22835260   6.586   0.478   3.732 -0.0490  0.0067  0.0353
  117MOL   C22935261   6.577   0.605   3.685 -0.4621  0.0885  0.2162
  117MOL   O23035262   6.663   0.692   3.687  0.2290 -0.9503 -0.0841
  117MOL   C23135263   6.436   0.648   3.648 -0.2299  0.8141 -0.0895
  117MOL   C23235264   6.377   0.583   3.521 -0.1726 -0.7250  0.4671
  117MOL   C23335265   6.726   0.433   3.928 -0.1154  0.9277  0.0368
  117MOL   H23435266   6.793   0.478   3.723 -1.0872  1.5389 -1.4353
  117MOL   H23535267   6.369   0.641   3.733  1.1010  0.2501  0.9288
  117MOL   H23635268   6.448   0.750   3.609 -3.5314  0.8036 -1.2495
  117MOL   H23735269   6.319   0.495   3.552 -0.6849 -0.2613  0.8321
  117MOL   H23835270   6.309   0.641   3.459 -0.0770  0.2923  1.3023
  117MOL   H23935271   6.446   0.539   3.449  1.2732  1.7379  0.3113
  117MOL   H24035272   6.668   0.520   3.960  2.1692  2.5138 -0.0326
  117MOL   H24135273   6.681   0.349   3.981  1.9097 -0.3537 -0.2004
  117MOL   C24235274   6.871   0.464   3.970 -0.2640  0.7089 -0.0796
  117MOL   O24335275   6.919   0.583   3.923 -0.7247 -0.0405 -0.7675
  117MOL   C24435276   7.026   0.597   3.845 -0.4598  0.4940 -0.5770
  117MOL   O24535277   7.107   0.504   3.821 -0.2595  0.3602  0.2156
  117MOL   C24635278   7.053   0.743   3.801  0.1861 -0.5129 -0.7137
  117MOL   C24735279   7.025   0.757   3.651  0.2926 -0.1500  0.7147
  117MOL   C24835280   6.887   0.464   4.124 -0.0085  0.2643 -0.3711
  117MOL   H24935281   6.930   0.378   3.939  0.8346  0.4952  2.4533
  117MOL   H25035282   6.982   0.805   3.856  0.1965 -1.6595  0.6126
  117MOL   H25135283   7.154   0.776   3.826  0.4683 -2.2701  0.4925
  117MOL   H25235284   6.955   0.838   3.630 -0.1438 -1.1759 -1.9012
  117MOL   H25335285   7.114   0.768   3.590 -1.1882 -0.0026 -1.4642
  117MOL   H25435286   6.979   0.664   3.617  1.1362 -0.5353  0.6100
  117MOL   H25535287   6.829   0.553   4.150  1.0597  0.9836 -0.4574
  117MOL   H25635288   6.841   0.380   4.176  0.7317 -0.4437 -0.8528
  117MOL   C25735289   7.027   0.488   4.189  0.9330 -0.7570  0.0417
  117MOL   O25835290   6.990   0.495   4.333 -0.4044 -0.0558 -0.4415
  117MOL   C25935291   6.963   0.613   4.397 -0.8003  0.4953 -1.1439
  117MOL   O26035292   6.978   0.726   4.353 -0.1186  0.2438 -0.0378
  117MOL   C26135293   6.930   0.580   4.545  0.6243  0.1262 -0.1825
  117MOL   C26235294   6.783   0.531   4.558  0.2960  0.6397  0.2594
  117MOL   C26335295   7.129   0.378   4.158 -0.0741  0.1964 -0.5314
  117MOL   H26435296   7.065   0.583   4.154 -2.4758  0.2147 -1.1929
  117MOL   H26535297   6.996   0.500   4.576  1.4600  0.2660 -1.5706
  117MOL   H26635298   6.946   0.678   4.590  2.4282 -0.2788  0.0944
  117MOL   H26735299   6.747   0.494   4.654  0.2823 -0.4697 -0.1671
  117MOL   H26835300   6.707   0.597   4.518 -1.5817 -0.5149  1.8542
  117MOL   H26935301   6.774   0.434   4.510 -1.6257  0.7645  0.3322
  117MOL   H27035302   7.093   0.286   4.205 -0.8174  1.1001  0.7122
  117MOL   H27135303   7.112   0.353   4.053 -0.8636  0.6253 -0.5130
  117MOL   C27235304   7.274   0.417   4.196 -0.0153 -1.1269 -0.2654
  117MOL   O27335305   7.295   0.434   4.340 -0.4958 -0.2468 -0.2523
  117MOL   C27435306   7.365   0.544   4.392  0.0452 -0.3857  0.1611
  117MOL   O27535307   7.408   0.638   4.325 -0.2230  0.4985 -0.4751
  117MOL   C27635308   7.397   0.535   4.542  0.2595  0.0741 -0.4436
  117MOL   C27735309   7.277   0.579   4.632 -0.0419 -0.0641  0.5731
  117MOL   C27835310   7.389   0.324   4.138  0.1374 -0.7078  0.4851
  117MOL   H27935311   7.302   0.504   4.136  2.9454  0.5825  3.3942
  117MOL   H28035312   7.442   0.438   4.560  1.1478  0.6956  0.7415
  117MOL   H28135313   7.477   0.610   4.546 -0.0955  0.4842 -0.8984
  117MOL   H28235314   7.316   0.634   4.717  0.3016 -1.0836  1.0866
  117MOL   H28335315   7.207   0.645   4.581 -1.5614 -2.4018 -0.5087
  117MOL   H28435316   7.229   0.488   4.668 -1.5488 -0.9061 -3.3307
  117MOL   H28535317   7.471   0.357   4.201 -0.9327  0.0558  1.5055
  117MOL   H28635318   7.367   0.224   4.176  1.1774 -0.8623  0.7065
  117MOL   C28735319   7.412   0.318   3.982 -0.3812  0.2469 -0.1231
  117MOL   O28835320   7.461   0.443   3.941  0.4343 -0.0628  0.1396
  117MOL   C28935321   7.473   0.485   3.816 -0.4761  0.3947  0.1787
  117MOL   O29035322   7.453   0.416   3.718 -0.2340  0.0597 -0.2333
  117MOL   C29135323   7.511   0.635   3.809 -0.7940  0.3332 -0.5323
  117MOL   C29235324   7.458   0.688   3.677  0.0571 -0.1928  0.8943
  117MOL   C29335325   7.491   0.195   3.953  0.3449 -0.2218  0.0822
  117MOL   H29435326   7.308   0.310   3.951  0.2364 -1.5493 -1.8772
  117MOL   H29535327   7.472   0.694   3.891  1.7560  0.1055  0.8901
  117MOL   H29635328   7.619   0.643   3.816 -0.9353  1.9404 -0.2144
  117MOL   H29735329   7.358   0.648   3.659 -0.3582 -0.0705  2.8046
  117MOL   H29835330   7.451   0.797   3.681 -0.5070 -0.1832 -0.2172
  117MOL   H29935331   7.529   0.661   3.599  1.7333  4.2144  0.7745
  117MOL   H30035332   7.513   0.180   3.847  1.8165  0.2532  0.2954
  117MOL   H30135333   7.592   0.196   3.995  0.2175 -1.0207  0.4099
  117MOL   H30235334   7.452   0.097   3.977  1.7947 -0.7519  0.3472
  118MOL     C135335   3.535   3.520   7.023 -0.6386  0.3123 -0.2705
  118MOL     O235336   3.558   3.658   7.066 -0.3225 -0.2286 -0.4251
  118MOL     C335337   3.650   3.730   7.005  0.3464 -0.6521 -0.1867
  118MOL     O435338   3.733   3.683   6.931  0.2850 -0.1909 -0.2038
  118MOL     C535339   3.654   3.872   7.046  0.0070  0.1290  0.3124
  118MOL     C635340   3.528   3.943   7.004 -0.5862  0.0762 -0.2410
  118MOL     C735341   3.627   3.427   7.105  0.1311 -0.5561 -0.2119
  118MOL     H835342   3.550   3.502   6.917 -2.0444 -2.7314 -0.0018
  118MOL     H935343   3.672   3.869   7.154  1.5383  1.1895  0.0915
  118MOL    H1035344   3.735   3.937   7.013 -0.6375  2.0806  2.3626
  118MOL    H1135345   3.537   4.049   7.030  1.6909 -0.3587  0.8609
  118MOL    H1235346   3.512   3.937   6.896 -1.5388 -1.3262 -0.0255
  118MOL    H1335347   3.435   3.914   7.053  0.6755 -0.6806  1.7540
  118MOL    H1435348   3.729   3.442   7.071  0.7913 -0.2140  1.8255
  118MOL    H1535349   3.630   3.452   7.211  3.4180  1.9075 -0.8302
  118MOL    H1635350   3.434   3.485   7.044 -0.9395 -0.2425 -2.5298
  118MOL    C1735351   3.598   3.273   7.095 -0.0075  0.5016 -0.6717
  118MOL    O1835352   3.468   3.245   7.124 -0.0695  0.2126  0.2313
  118MOL    C1935353   3.421   3.218   7.248  0.6744 -0.0356  0.0302
  118MOL    O2035354   3.495   3.210   7.349 -0.4658 -0.0497  0.0463
  118MOL    C2135355   3.270   3.199   7.259 -0.2335  0.2470 -0.2509
  118MOL    C2235356   3.208   3.335   7.261  0.6887 -0.0184  0.4307
  118MOL    C2335357   3.642   3.214   6.959  0.2595 -0.6909 -1.3288
  118MOL    H2435358   3.656   3.218   7.169 -0.8331  2.9196  1.8216
  118MOL    H2535359   3.245   3.143   7.169  1.9926 -1.3138  0.0623
  118MOL    H2635360   3.236   3.140   7.344  1.7232 -1.6246 -0.7249
  118MOL    H2735361   3.262   3.402   7.194  0.0662  0.8013  0.7364
  118MOL    H2835362   3.102   3.349   7.237  0.3353 -4.1370 -0.7999
  118MOL    H2935363   3.233   3.379   7.357 -0.3486  1.8374 -0.1164
  118MOL    H3035364   3.597   3.115   6.960  2.5812 -1.8180 -2.6497
  118MOL    H3135365   3.599   3.274   6.878 -0.2843  1.4914  0.5288
  118MOL    C3235366   3.792   3.201   6.939 -0.8478 -0.0523 -0.2395
  118MOL    O3335367   3.849   3.134   7.045 -0.2792 -0.0938 -0.2711
  118MOL    C3435368   3.937   3.185   7.127 -0.5340 -0.5304 -0.7383
  118MOL    O3535369   3.981   3.300   7.116  0.2830 -0.4092  0.5741
  118MOL    C3635370   3.990   3.084   7.229  0.1394  0.1617 -0.1989
  118MOL    C3735371   4.118   3.011   7.168  0.1642  0.5924  0.0551
  118MOL    C3835372   3.815   3.114   6.816 -0.2932  0.3710 -0.2009
  118MOL    H3935373   3.834   3.302   6.931  0.5172 -0.4465  1.7033
  118MOL    H4035374   4.009   3.152   7.312 -0.4607 -0.5870  0.5615
  118MOL    H4135375   3.909   3.015   7.250  0.6995 -0.7735 -1.0548
  118MOL    H4235376   4.109   2.957   7.074 -0.9811  1.6219 -0.4252
  118MOL    H4335377   4.195   3.087   7.167 -0.7626  1.5340 -0.5466
  118MOL    H4435378   4.174   2.943   7.234 -0.0365 -0.9898 -1.3700
  118MOL    H4535379   3.922   3.094   6.812 -0.0276  1.8823 -0.9598
  118MOL    H4635380   3.760   3.023   6.838  1.4907 -1.7418 -4.0530
  118MOL    C4735381   3.780   3.171   6.682 -0.3913  0.6379  0.6947
  118MOL    O4835382   3.852   3.293   6.667 -0.2719 -0.2053  0.3108
  118MOL    C4935383   3.788   3.422   6.669  0.9170 -0.2209  0.0599
  118MOL    O5035384   3.666   3.441   6.680 -0.0086  0.0349  0.0886
  118MOL    C5135385   3.889   3.542   6.650 -0.0775  0.4644 -0.1096
  118MOL    C5235386   3.834   3.645   6.557 -0.1656 -0.5189 -0.1924
  118MOL    C5335387   3.808   3.074   6.560 -0.3921 -0.0974  0.0958
  118MOL    H5435388   3.671   3.179   6.675 -0.4654 -1.7837 -1.4379
  118MOL    H5535389   3.915   3.591   6.744  1.1089 -0.6506  0.1459
  118MOL    H5635390   3.980   3.500   6.608 -1.1987  0.7186 -2.9291
  118MOL    H5735391   3.742   3.687   6.597  0.7948  1.7774 -0.3355
  118MOL    H5835392   3.909   3.724   6.552 -0.7308 -0.0531 -1.6110
  118MOL    H5935393   3.822   3.612   6.454 -1.8905  1.1987 -0.5683
  118MOL    H6035394   3.800   3.137   6.472 -3.0717 -0.1432  0.2830
  118MOL    H6135395   3.916   3.057   6.570 -0.2310  0.5713 -0.4940
  118MOL    C6235396   3.712   2.955   6.553 -0.3601 -0.4560  0.4178
  118MOL    O6335397   3.581   3.008   6.530 -0.2912  0.0890 -0.2248
  118MOL    C6435398   3.492   3.008   6.637 -0.6272  0.0761  0.4687
  118MOL    O6535399   3.504   2.956   6.747 -0.0180  0.2501  0.2283
  118MOL    C6635400   3.359   3.071   6.605 -0.0803 -0.0287  0.5308
  118MOL    C6735401   3.360   3.216   6.544 -0.1210 -1.0833 -0.8153
  118MOL    C6835402   3.747   2.851   6.439  0.0604 -0.1201 -0.1877
  118MOL    H6935403   3.736   2.907   6.648 -0.1517  0.0733  0.6363
  118MOL    H7035404   3.295   3.013   6.540 -0.4448  1.4183 -0.4355
  118MOL    H7135405   3.295   3.068   6.693 -0.7483  1.5769  0.1242
  118MOL    H7235406   3.264   3.266   6.532 -0.2610 -1.6053 -2.0580
  118MOL    H7335407   3.425   3.281   6.602 -1.3946  1.2819 -1.9991
  118MOL    H7435408   3.396   3.204   6.442 -3.1061 -0.5014 -2.0033
  118MOL    H7535409   3.665   2.780   6.431 -0.5661  0.6617 -0.7629
  118MOL    H7635410   3.763   2.901   6.343  0.4924 -2.3520 -1.3005
  118MOL    C7735411   3.873   2.769   6.473 -0.1142  0.2990 -0.4299
  118MOL    O7835412   3.846   2.667   6.571 -0.1639 -0.2387 -0.2211
  118MOL    C7935413   3.882   2.675   6.694  0.2456 -0.5111 -0.2880
  118MOL    O8035414   3.922   2.775   6.755 -0.1174  0.4785 -0.0407
  118MOL    C8135415   3.876   2.545   6.766  0.1001  0.2921 -0.2844
  118MOL    C8235416   4.028   2.520   6.800  0.3814 -0.4629 -0.0059
  118MOL    C8335417   3.926   2.688   6.353  0.0308 -0.5779 -0.1087
  118MOL    H8435418   3.947   2.837   6.516 -0.6616  0.2211  0.6392
  118MOL    H8535419   3.810   2.552   6.852  1.0638 -0.9843  0.5885
  118MOL    H8635420   3.835   2.474   6.695  0.7506 -2.5501  2.0658
  118MOL    H8735421   4.063   2.586   6.879 -0.0046 -0.8966  0.5280
  118MOL    H8835422   4.038   2.417   6.835 -0.1973 -0.5400 -0.0708
  118MOL    H8935423   4.089   2.540   6.712  1.5129 -0.1502  0.8410
  118MOL    H9035424   3.840   2.624   6.329 -1.6384  1.2166  0.9399
  118MOL    H9135425   3.937   2.756   6.268  3.4450  1.6831  2.0363
  118MOL    C9235426   4.048   2.598   6.361 -0.3269  0.0146 -0.3037
  118MOL    O9335427   4.045   2.482   6.270  0.0749 -0.4489  0.1254
  118MOL    C9435428   3.977   2.356   6.294 -0.1864  0.1561 -0.4568
  118MOL    O9535429   3.889   2.347   6.380  0.0354  0.2151 -0.1153
  118MOL    C9635430   4.017   2.246   6.198  0.5383  0.5860  0.4388
  118MOL    C9735431   3.914   2.133   6.157  0.1792 -0.5758 -0.2080
  118MOL    C9835432   4.182   2.664   6.315  1.1721  0.4978 -0.1926
  118MOL    H9935433   4.053   2.557   6.462  1.2396  0.9041 -0.0108
  118MOL   H10035434   4.041   2.297   6.104 -1.5174  1.5172  0.3647
  118MOL   H10135435   4.105   2.190   6.228 -1.5173 -2.6699  0.6540
  118MOL   H10235436   3.952   2.063   6.083  0.9572  1.5116 -1.8159
  118MOL   H10335437   3.859   2.089   6.241  0.2192  3.4815  2.0888
  118MOL   H10435438   3.830   2.181   6.107 -1.1618 -0.4575  2.0411
  118MOL   H10535439   4.265   2.595   6.329  0.6220 -0.7943 -3.0107
  118MOL   H10635440   4.170   2.683   6.208 -0.0699  0.4878 -0.0643
  118MOL   C10735441   4.210   2.804   6.375  0.8093 -0.2230 -0.6531
  118MOL   O10835442   4.237   2.783   6.512 -0.3215  0.5393  0.3451
  118MOL   C10935443   4.214   2.890   6.599 -0.4438  0.3266 -1.0208
  118MOL   O11035444   4.194   3.008   6.563  0.4056 -0.0681 -0.0547
  118MOL   C11135445   4.219   2.842   6.747  0.1396  0.2815 -0.0836
  118MOL   C11235446   4.364   2.846   6.809  0.3443 -1.0394  0.6922
  118MOL   C11335447   4.335   2.862   6.298  0.3604  0.4664 -0.0103
  118MOL   H11435448   4.119   2.861   6.359  0.1254 -0.8907  0.7748
  118MOL   H11535449   4.158   2.898   6.818  1.1606 -0.2219  1.2062
  118MOL   H11635450   4.188   2.738   6.740  0.3920  0.1331  0.9546
  118MOL   H11735451   4.370   2.790   6.903  0.5372  0.3473  1.5069
  118MOL   H11835452   4.435   2.796   6.744  1.1070 -0.2795  0.9441
  118MOL   H11935453   4.397   2.949   6.820  2.2854 -1.5047 -0.6392
  118MOL   H12035454   4.393   2.918   6.372 -0.4991  1.3330  0.0162
  118MOL   H12135455   4.389   2.774   6.264 -1.3236 -0.3349 -0.6593
  118MOL   C12235456   4.294   2.948   6.175  0.0123 -0.2351  0.4253
  118MOL   O12335457   4.243   3.075   6.227  0.2641  0.5663  0.1007
  118MOL   C12435458   4.125   3.116   6.190 -0.3472  0.6681  0.1685
  118MOL   O12535459   4.030   3.045   6.141 -0.1656  0.0458  0.6470
  118MOL   C12635460   4.107   3.265   6.226 -0.1923 -0.4938  0.0701
  118MOL   C12735461   3.966   3.305   6.263 -0.1377 -0.4046 -0.1192
  118MOL   C12835462   4.421   2.966   6.074  0.3067 -0.5764 -0.1519
  118MOL   H12935463   4.216   2.897   6.119  1.1594  0.2061 -1.6399
  118MOL   H13035464   4.170   3.274   6.314 -0.5175 -0.7838  0.3308
  118MOL   H13135465   4.139   3.324   6.139  3.5357 -2.3238  0.1405
  118MOL   H13235466   3.985   3.391   6.327  1.1405  0.0377 -1.0577
  118MOL   H13335467   3.911   3.344   6.177  1.0512  0.7869 -0.3718
  118MOL   H13435468   3.913   3.223   6.310  1.9961 -1.7078  0.1173
  118MOL   H13535469   4.481   3.052   6.107 -1.6462  0.9971 -0.6401
  118MOL   H13635470   4.494   2.885   6.074  2.6055  1.4107  1.1572
  118MOL   C13735471   4.377   2.999   5.933  0.4685 -0.2111 -0.1888
  118MOL   O13835472   4.473   3.085   5.875 -0.8547 -0.1672  0.2659
  118MOL   C13935473   4.448   3.203   5.834 -0.0711  0.3145 -0.1818
  118MOL   O14035474   4.349   3.268   5.848  0.0559  0.5097 -0.0693
  118MOL   C14135475   4.566   3.259   5.751 -0.1035  0.5897  0.6388
  118MOL   C14235476   4.616   3.160   5.641 -0.2222 -0.0728 -0.1702
  118MOL   C14335477   4.371   2.868   5.846  0.1965 -1.0751  0.8413
  118MOL   H14435478   4.283   3.054   5.941 -0.4251 -1.1535 -3.4836
  118MOL   H14535479   4.549   3.354   5.700  0.6847  0.6697  0.5271
  118MOL   H14635480   4.645   3.271   5.825  0.2299  1.4809  0.1493
  118MOL   H14735481   4.711   3.197   5.603 -1.5603  1.3716 -2.2085
  118MOL   H14835482   4.634   3.058   5.674  0.0613 -1.0359 -3.1460
  118MOL   H14935483   4.547   3.158   5.557 -1.4876 -0.6108  0.8576
  118MOL   H15035484   4.380   2.900   5.743  0.2169  0.8167  1.4087
  118MOL   H15135485   4.472   2.834   5.869  1.6882  0.8658 -2.5282
  118MOL   C15235486   4.259   2.765   5.869 -0.3848  0.0654  0.2728
  118MOL   O15335487   4.136   2.828   5.844  0.2506 -0.6130 -0.4713
  118MOL   C15435488   4.027   2.768   5.915  0.6522  0.2956 -0.2153
  118MOL   O15535489   4.033   2.664   5.984 -0.2928 -0.0848  0.2061
  118MOL   C15635490   3.896   2.837   5.897 -0.6412  0.6446  1.0045
  118MOL   C15735491   3.779   2.780   5.981 -0.1668  0.5498  0.1648
  118MOL   C15835492   4.261   2.645   5.773  0.0044  0.1900  0.0629
  118MOL   H15935493   4.274   2.745   5.976  2.7118  0.9336  0.0663
  118MOL   H16035494   3.904   2.940   5.933 -1.7597 -0.0953  3.5090
  118MOL   H16135495   3.867   2.837   5.791 -1.5429 -4.1445  1.1496
  118MOL   H16235496   3.756   2.846   6.065  2.7057 -1.3579  2.5860
  118MOL   H16335497   3.693   2.746   5.924 -0.9402  1.1489  0.9544
  118MOL   H16435498   3.808   2.692   6.039 -0.5111  1.6800  2.1217
  118MOL   H16535499   4.177   2.578   5.789  1.8249 -2.0025  0.7634
  118MOL   H16635500   4.256   2.677   5.669  1.1986  2.1791  0.5822
  118MOL   C16735501   4.395   2.567   5.791 -0.6264  0.0458 -0.0748
  118MOL   O16835502   4.374   2.461   5.893 -0.8470 -0.0560  0.4093
  118MOL   C16935503   4.396   2.481   6.025  0.0874 -0.8076 -0.0371
  118MOL   O17035504   4.444   2.584   6.067 -0.2079  0.0571  0.6136
  118MOL   C17135505   4.335   2.370   6.109 -0.1913 -0.2808  0.1062
  118MOL   C17235506   4.428   2.327   6.221  0.8046  0.0633  1.0860
  118MOL   C17335507   4.447   2.495   5.669 -0.2647 -0.5162 -0.4322
  118MOL   H17435508   4.477   2.631   5.821 -1.0359  0.1855  0.7715
  118MOL   H17535509   4.243   2.395   6.161 -0.0988 -0.3964  0.3298
  118MOL   H17635510   4.299   2.292   6.041  0.6590 -0.1621 -0.4875
  118MOL   H17735511   4.527   2.289   6.195  0.7896 -0.1616  1.3627
  118MOL   H17835512   4.454   2.403   6.294  0.2067 -0.4520  1.8511
  118MOL   H17935513   4.379   2.246   6.275  1.3747 -1.5046 -0.7049
  118MOL   H18035514   4.524   2.423   5.695 -1.2664 -1.1236  0.8707
  118MOL   H18135515   4.372   2.433   5.619  0.3964 -1.4841 -0.2374
  118MOL   C18235516   4.507   2.594   5.566 -0.2753 -0.0780 -0.1767
  118MOL   O18335517   4.651   2.586   5.578  0.5248  0.0141  0.2530
  118MOL   C18435518   4.725   2.677   5.627  0.4663  0.8908 -0.3297
  118MOL   O18535519   4.683   2.794   5.652 -0.0402 -0.0353  0.5779
  118MOL   C18635520   4.869   2.630   5.650  0.2338 -0.0127  0.1770
  118MOL   C18735521   4.942   2.605   5.523 -1.1813  0.4166  0.2306
  118MOL   C18835522   4.445   2.594   5.425 -0.3680 -0.0525  0.2058
  118MOL   H18935523   4.468   2.691   5.596  0.7208 -0.1186  1.2871
  118MOL   H19035524   4.922   2.700   5.715  0.6715  0.2366 -0.4401
  118MOL   H19135525   4.851   2.535   5.699 -2.1503  0.6494  0.6356
  118MOL   H19235526   4.974   2.701   5.482 -0.4736  0.1195  0.0773
  118MOL   H19335527   5.035   2.552   5.541 -0.8845  0.4994 -1.0182
  118MOL   H19435528   4.890   2.534   5.459  1.3960  1.1329 -2.7964
  118MOL   H19535529   4.493   2.512   5.371  0.1814  1.2493 -1.2920
  118MOL   H19635530   4.339   2.570   5.431  0.0353 -2.4353 -1.1847
  118MOL   C19735531   4.458   2.720   5.350 -0.8936 -0.6859  0.3037
  118MOL   O19835532   4.597   2.753   5.327  0.3182 -0.6023  0.1856
  118MOL   C19935533   4.644   2.875   5.355  0.1196  0.8484  0.2417
  118MOL   O20035534   4.579   2.967   5.403 -0.4999  0.0607 -0.6093
  118MOL   C20135535   4.784   2.893   5.295 -0.2482 -0.6165  0.4266
  118MOL   C20235536   4.773   3.001   5.183  0.3770 -0.1106  0.1603
  118MOL   C20335537   4.398   2.703   5.213  0.5872 -0.4396 -0.3034
  118MOL   H20435538   4.401   2.791   5.410 -1.3198  0.8867 -1.9280
  118MOL   H20535539   4.843   2.928   5.380  0.3642  4.3096 -1.8449
  118MOL   H20635540   4.814   2.795   5.258 -3.1196 -1.0166 -0.9722
  118MOL   H20735541   4.715   3.091   5.207 -1.6405 -1.1187 -0.8196
  118MOL   H20835542   4.868   3.035   5.144 -0.5477  0.6101 -1.4976
  118MOL   H20935543   4.724   2.966   5.093  1.0750  1.7772 -0.9776
  118MOL   H21035544   4.459   2.644   5.145  0.5871 -0.5906 -0.1725
  118MOL   H21135545   4.306   2.649   5.231  1.5387 -1.5890  1.1822
  118MOL   C21235546   4.372   2.841   5.138  0.2888  0.0262 -0.4228
  118MOL   O21335547   4.344   2.809   5.002  0.7757  0.0700  0.0428
  118MOL   C21435548   4.390   2.894   4.909  0.2031 -0.0627  0.2000
  118MOL   O21535549   4.463   2.993   4.933 -0.0984  0.5418  0.2293
  118MOL   C21635550   4.350   2.863   4.770 -0.0321  0.4251  0.7881
  118MOL   C21735551   4.228   2.944   4.712  0.3483  0.0439 -0.1921
  118MOL   C21835552   4.257   2.922   5.198  0.2995 -0.0787 -0.1656
  118MOL   H21935553   4.464   2.899   5.133 -0.5284  1.2029 -2.1977
  118MOL   H22035554   4.443   2.888   4.719 -0.2788 -1.9092 -0.8988
  118MOL   H22135555   4.334   2.755   4.767 -0.4573  0.4798  1.0831
  118MOL   H22235556   4.140   2.916   4.769  1.5248  1.4041  2.3823
  118MOL   H22335557   4.255   3.049   4.722 -0.1022  0.5692 -3.7197
  118MOL   H22435558   4.224   2.915   4.607 -0.5906 -0.2090 -0.0920
  118MOL   H22535559   4.167   2.873   5.159  0.7554  0.3592 -1.8388
  118MOL   H22635560   4.253   2.913   5.306 -0.7395 -0.3007 -0.2129
  118MOL   C22735561   4.267   3.076   5.165  0.4433 -0.2287  0.2412
  118MOL   O22835562   4.140   3.117   5.223 -0.0720 -0.2747  0.3959
  118MOL   C22935563   4.059   3.189   5.152  0.2499 -0.7225  0.0984
  118MOL   O23035564   4.069   3.226   5.035 -0.0095 -0.5409 -1.0207
  118MOL   C23135565   3.933   3.235   5.226  0.5655  0.0526  0.1549
  118MOL   C23235566   3.839   3.314   5.138 -0.0908 -0.1336  0.6187
  118MOL   C23335567   4.388   3.145   5.241  0.4716  0.2673 -0.3467
  118MOL   H23435568   4.274   3.093   5.057  2.0428  2.4049  0.7137
  118MOL   H23535569   3.886   3.148   5.272  0.7632  0.4396  1.1025
  118MOL   H23635570   3.956   3.295   5.314  0.9641 -1.3038  0.9942
  118MOL   H23735571   3.819   3.264   5.043  0.0057 -0.6902  0.8878
  118MOL   H23835572   3.739   3.333   5.178 -0.0431 -2.2972  1.8302
  118MOL   H23935573   3.876   3.414   5.118  1.2972 -0.7328  0.1303
  118MOL   H24035574   4.359   3.128   5.345 -2.3043  2.1052 -0.7782
  118MOL   H24135575   4.478   3.088   5.218  0.2162 -1.5249  2.7877
  118MOL   C24235576   4.397   3.292   5.214  0.5097  0.1340 -0.0518
  118MOL   O24335577   4.458   3.366   5.318 -0.2363  0.3559  0.0864
  118MOL   C24435578   4.383   3.409   5.425  0.9441 -0.2050  0.5401
  118MOL   O24535579   4.267   3.380   5.445  0.1774 -0.0231 -0.2639
  118MOL   C24635580   4.450   3.525   5.504 -0.2768  0.3146  0.2639
  118MOL   C24735581   4.357   3.584   5.610  0.5040 -0.6191  0.2532
  118MOL   C24835582   4.476   3.306   5.090  0.8555  0.0598 -0.5056
  118MOL   H24935583   4.297   3.334   5.205 -0.2672 -1.6783 -0.0691
  118MOL   H25035584   4.550   3.499   5.538  0.2950  0.2944 -1.3920
  118MOL   H25135585   4.459   3.597   5.423 -1.1691  0.3417  0.1788
  118MOL   H25235586   4.400   3.663   5.672 -0.7387 -0.3041  0.7334
  118MOL   H25335587   4.276   3.637   5.561  2.0611 -0.1443 -1.9186
  118MOL   H25435588   4.317   3.505   5.673 -0.9368 -1.4440 -1.6437
  118MOL   H25535589   4.579   3.274   5.106  1.1015  1.9134  2.0133
  118MOL   H25635590   4.438   3.244   5.009  0.2428 -0.1174 -0.0802
  118MOL   C25735591   4.474   3.453   5.040 -0.2266 -0.3669 -0.7319
  118MOL   O25835592   4.575   3.468   4.940  0.4263  0.2948 -0.4971
  118MOL   C25935593   4.686   3.549   4.955 -0.2941  0.0514 -0.4921
  118MOL   O26035594   4.711   3.612   5.058 -0.2503 -0.1088 -0.3043
  118MOL   C26135595   4.773   3.562   4.824 -0.3992  0.3399  0.0117
  118MOL   C26235596   4.893   3.467   4.846  0.2107  0.3066 -0.2205
  118MOL   C26335597   4.335   3.491   4.971 -0.5683  0.2996  0.0044
  118MOL   H26435598   4.486   3.515   5.129  0.8276 -1.1392 -0.3215
  118MOL   H26535599   4.704   3.540   4.742  0.8010 -1.6384 -0.4803
  118MOL   H26635600   4.816   3.662   4.814  0.5601 -0.1721 -1.0654
  118MOL   H26735601   4.890   3.408   4.938 -0.3649  0.4224 -0.1648
  118MOL   H26835602   4.896   3.394   4.766  1.2625 -0.6985  0.7136
  118MOL   H26935603   4.990   3.516   4.847 -0.1682  1.0671 -0.0170
  118MOL   H27035604   4.361   3.528   4.872 -0.8304 -1.8010 -0.8716
  118MOL   H27135605   4.272   3.405   4.950 -0.3820 -0.4563  2.4333
  118MOL   C27235606   4.257   3.604   5.042 -0.2827 -0.8641 -0.0495
  118MOL   O27335607   4.319   3.729   5.018  0.3026 -0.6706 -0.0387
  118MOL   C27435608   4.388   3.791   5.120  0.0873  0.0992  0.4646
  118MOL   O27535609   4.404   3.748   5.241 -0.0861 -0.3888  0.0491
  118MOL   C27635610   4.446   3.923   5.082 -0.0058 -0.5171  0.5043
  118MOL   C27735611   4.559   3.921   4.973 -0.2490 -0.1395 -0.0283
  118MOL   C27835612   4.111   3.609   4.988 -0.8340 -0.1917  0.7711
  118MOL   H27935613   4.245   3.578   5.147  1.3356 -1.2256  0.0500
  118MOL   H28035614   4.365   3.991   5.055 -0.0278  0.3181  2.6167
  118MOL   H28135615   4.483   3.969   5.173  2.7934 -0.4287 -0.6304
  118MOL   H28235616   4.510   3.914   4.876 -1.3001  1.7990  0.3240
  118MOL   H28335617   4.620   4.008   4.996  1.8750 -1.8691  1.0339
  118MOL   H28435618   4.616   3.828   4.979 -0.8385 -0.3370  3.7854
  118MOL   H28535619   4.124   3.619   4.880 -0.0582  1.6451  1.0092
  118MOL   H28635620   4.069   3.509   4.994 -0.5906 -0.2433  1.6846
  118MOL   C28735621   4.031   3.735   5.039  0.5495  0.6670 -0.3620
  118MOL   O28835622   3.893   3.710   5.021  0.9617 -0.3681  0.6714
  118MOL   C28935623   3.824   3.771   4.926 -0.1301 -0.5980  0.0387
  118MOL   O29035624   3.869   3.844   4.836 -0.2742 -0.1518 -0.8312
  118MOL   C29135625   3.669   3.736   4.922  0.0451 -0.1718 -0.1090
  118MOL   C29235626   3.648   3.580   4.922  0.5198  0.6307  0.5748
  118MOL   C29335627   4.021   3.759   5.194 -0.1274 -0.0195 -0.1353
  118MOL   H29435628   4.066   3.831   5.001 -2.2968  1.7226 -0.4491
  118MOL   H29535629   3.616   3.777   5.008 -0.3878  0.2301 -0.5685
  118MOL   H29635630   3.624   3.786   4.836 -1.1126  1.9056  1.6709
  118MOL   H29735631   3.690   3.527   4.836 -1.3381 -0.0302  0.0502
  118MOL   H29835632   3.674   3.540   5.021 -1.7632  1.1824  1.4190
  118MOL   H29935633   3.541   3.583   4.904  0.3871 -4.0622  0.0941
  118MOL   H30035634   4.121   3.777   5.234 -0.4513  1.3742  0.1020
  118MOL   H30135635   3.963   3.844   5.232 -0.3942 -1.0950  1.9056
  118MOL   H30235636   3.997   3.664   5.240  0.4803 -0.3978 -0.5976
  119MOL     C135637   3.791   3.353   4.043 -0.0612 -0.0155 -0.1696
  119MOL     O235638   3.652   3.312   4.059 -0.2740  0.1633 -0.1171
  119MOL     C335639   3.558   3.395   4.013  0.1289 -0.1658  0.1339
  119MOL     O435640   3.573   3.490   3.935  0.0711 -0.5082  0.9143
  119MOL     C535641   3.413   3.363   4.057  0.2237 -0.3756 -0.1438
  119MOL     C635642   3.374   3.210   4.064 -0.5288  0.2156 -0.2581
  119MOL     C735643   3.849   3.300   3.915 -0.2631 -0.0266  0.2255
  119MOL     H835644   3.849   3.310   4.125  0.5162 -2.8136 -1.9681
  119MOL     H935645   3.405   3.414   4.153 -0.4813 -3.0437  1.2856
  119MOL    H1035646   3.342   3.405   3.986  0.0724  1.2612  0.9694
  119MOL    H1135647   3.403   3.168   3.968 -1.3504 -2.7647  0.7511
  119MOL    H1235648   3.427   3.171   4.151  0.2756  2.6596  0.4085
  119MOL    H1335649   3.265   3.208   4.071 -0.5652 -1.7275 -1.2444
  119MOL    H1435650   3.823   3.196   3.895 -0.5214  0.1427 -0.3264
  119MOL    H1535651   3.814   3.358   3.830 -1.8370 -0.4462  0.5586
  119MOL    H1635652   3.813   3.457   4.066 -2.9037  0.5410  0.1974
  119MOL    C1735653   4.006   3.319   3.897 -0.4667  0.0913 -0.4239
  119MOL    O1835654   4.083   3.265   4.003 -0.3317 -0.1347 -0.4972
  119MOL    C1935655   4.142   3.346   4.093  0.1702  0.1706  0.2555
  119MOL    O2035656   4.138   3.466   4.086  0.0410 -0.1402 -0.7290
  119MOL    C2135657   4.222   3.269   4.195  0.1228 -0.0249 -0.1493
  119MOL    C2235658   4.298   3.367   4.280  0.0184 -0.0393  0.1815
  119MOL    C2335659   4.069   3.254   3.766 -0.0991  0.4124 -0.8371
  119MOL    H2435660   4.022   3.427   3.895  0.0931  0.0268  0.4150
  119MOL    H2535661   4.148   3.204   4.242  0.7672 -0.0072  0.8961
  119MOL    H2635662   4.285   3.199   4.140 -1.0519 -0.7445 -0.5894
  119MOL    H2735663   4.359   3.430   4.216 -2.7599  3.1244  0.5025
  119MOL    H2835664   4.247   3.445   4.337  1.6499  1.9011 -0.9706
  119MOL    H2935665   4.349   3.305   4.353 -0.1503  0.7133  0.9454
  119MOL    H3035666   4.175   3.277   3.755 -0.6247  2.5720 -1.6851
  119MOL    H3135667   4.044   3.148   3.773 -0.5222  0.3937 -2.3705
  119MOL    C3235668   3.991   3.304   3.640 -0.0267  0.2362  0.3401
  119MOL    O3335669   4.021   3.442   3.619 -0.1681  0.4271 -0.1982
  119MOL    C3435670   3.919   3.531   3.606 -0.7134  0.4189  0.2998
  119MOL    O3535671   3.800   3.510   3.626  0.4330  0.3391  0.6891
  119MOL    C3635672   3.957   3.667   3.556 -0.5085  0.8734 -0.6653
  119MOL    C3735673   4.020   3.684   3.421  0.2189  0.5172 -0.1735
  119MOL    C3835674   4.044   3.215   3.521 -0.3849  0.9761  0.6384
  119MOL    H3935675   3.883   3.296   3.633 -0.0094  1.4694 -1.8853
  119MOL    H4035676   3.874   3.737   3.552 -0.7813  0.5023 -1.9145
  119MOL    H4135677   4.015   3.719   3.632 -2.0905  3.2746 -1.0584
  119MOL    H4235678   4.127   3.705   3.421  0.2169  0.6288  2.3027
  119MOL    H4335679   4.004   3.592   3.364  4.6969  0.0328 -0.8533
  119MOL    H4435680   3.972   3.764   3.365 -1.4261  0.7311  1.5331
  119MOL    H4535681   4.146   3.248   3.507 -0.1110  0.3185  1.0412
  119MOL    H4635682   4.064   3.109   3.537 -0.2565  0.2497 -3.7805
  119MOL    C4735683   3.965   3.229   3.392 -0.2006 -0.1238 -0.2404
  119MOL    O4835684   4.058   3.200   3.288  0.0147  0.0799  0.4209
  119MOL    C4935685   4.111   3.303   3.215  0.0621  0.6138 -0.2499
  119MOL    O5035686   4.088   3.424   3.221 -0.6693 -0.6934 -0.0963
  119MOL    C5135687   4.202   3.249   3.114  0.2439  0.1469  0.3151
  119MOL    C5235688   4.342   3.235   3.173 -0.1490 -0.2334  0.5012
  119MOL    C5335689   3.854   3.115   3.394 -0.3045  0.6366 -0.1095
  119MOL    H5435690   3.932   3.333   3.385 -0.8282 -0.3401 -0.5578
  119MOL    H5535691   4.180   3.152   3.069  0.3833  1.0963 -1.8896
  119MOL    H5635692   4.190   3.316   3.029 -0.5864  0.1089  0.4040
  119MOL    H5735693   4.412   3.197   3.099  0.3948  0.2758  0.7472
  119MOL    H5835694   4.380   3.332   3.206  1.1831  0.2225 -2.2385
  119MOL    H5935695   4.344   3.161   3.254 -2.3728 -1.9964 -1.0085
  119MOL    H6035696   3.888   3.016   3.365 -0.6673  0.6661 -0.6367
  119MOL    H6135697   3.817   3.102   3.496  1.1598  0.5809  0.4217
  119MOL    C6235698   3.727   3.172   3.331 -0.7297 -0.0639 -0.1311
  119MOL    O6335699   3.753   3.213   3.198 -0.0912 -0.3641 -0.1688
  119MOL    C6435700   3.722   3.337   3.148  0.0974 -0.2160 -0.5168
  119MOL    O6535701   3.723   3.441   3.211  0.0207 -0.0814 -0.1356
  119MOL    C6635702   3.704   3.342   2.998 -0.1166 -0.1437  0.1200
  119MOL    C6735703   3.831   3.386   2.922  0.6336 -0.8386  0.7070
  119MOL    C6835704   3.625   3.058   3.323  0.5740 -0.4230 -0.0790
  119MOL    H6935705   3.698   3.258   3.392  3.2539 -0.4988  2.5564
  119MOL    H7035706   3.666   3.247   2.960  1.9875 -0.5425 -1.0939
  119MOL    H7135707   3.630   3.419   2.979 -0.5061  0.0077  2.1929
  119MOL    H7235708   3.804   3.405   2.819  0.3496  0.3094  0.9882
  119MOL    H7335709   3.882   3.475   2.960  0.3744  0.4991 -2.0044
  119MOL    H7435710   3.900   3.302   2.926  1.3972 -0.2482  0.1876
  119MOL    H7535711   3.540   3.099   3.269  1.3031  0.7618 -0.3610
  119MOL    H7635712   3.659   2.973   3.263  2.0994 -0.1485  0.3726
  119MOL    C7735713   3.579   2.995   3.451 -0.5378  0.6354  0.6331
  119MOL    O7835714   3.505   3.098   3.514 -0.2032  0.3148 -0.2159
  119MOL    C7935715   3.556   3.179   3.615 -0.5926  0.2384 -0.4287
  119MOL    O8035716   3.657   3.146   3.679 -0.3667 -0.3347  0.4292
  119MOL    C8135717   3.471   3.297   3.648  0.1935 -0.0269  0.3164
  119MOL    C8235718   3.437   3.388   3.526 -0.0070  0.3906 -0.2892
  119MOL    C8335719   3.485   2.876   3.424 -0.2038 -0.0220  0.5485
  119MOL    H8435720   3.667   2.967   3.509  0.1926 -0.0748 -0.7882
  119MOL    H8535721   3.383   3.251   3.694  0.7126  0.3564  1.7009
  119MOL    H8635722   3.518   3.362   3.722 -1.0138  0.4845  0.6518
  119MOL    H8735723   3.500   3.477   3.526  1.8116 -0.8571  0.3822
  119MOL    H8835724   3.433   3.342   3.428 -3.0905 -0.1115 -0.0029
  119MOL    H8935725   3.335   3.424   3.541 -0.3083 -0.8680  0.8267
  119MOL    H9035726   3.394   2.916   3.380 -1.2898  1.2965  3.8553
  119MOL    H9135727   3.529   2.813   3.346  0.5569  0.6119  0.4620
  119MOL    C9235728   3.450   2.789   3.554 -0.5822  0.6169  0.1975
  119MOL    O9335729   3.369   2.871   3.645 -0.2870 -0.0981 -0.3205
  119MOL    C9435730   3.366   2.850   3.781 -0.4508  0.3781  0.2722
  119MOL    O9535731   3.445   2.785   3.842 -0.3558  0.2957 -0.1341
  119MOL    C9635732   3.254   2.923   3.848 -0.5027 -0.2327 -1.1196
  119MOL    C9735733   3.208   2.855   3.982  0.2519 -0.4281 -0.0263
  119MOL    C9835734   3.372   2.666   3.515  0.0743 -0.5998 -0.1438
  119MOL    H9935735   3.546   2.769   3.601 -1.6131  0.2594  2.2134
  119MOL   H10035736   3.292   3.020   3.880  0.0209 -0.7949  0.0193
  119MOL   H10135737   3.168   2.943   3.784 -0.7678  2.1679 -0.0570
  119MOL   H10235738   3.288   2.849   4.057 -0.1200  3.3412  0.7473
  119MOL   H10335739   3.128   2.914   4.027  0.5450  0.9361 -1.2651
  119MOL   H10435740   3.169   2.754   3.972  0.1875 -0.7797  3.2284
  119MOL   H10535741   3.267   2.693   3.507  0.0649 -1.0506 -1.8037
  119MOL   H10635742   3.413   2.647   3.416  2.9412 -1.0514  1.0726
  119MOL   C10735743   3.390   2.538   3.598 -0.2046 -0.2366  0.4002
  119MOL   O10835744   3.313   2.445   3.528  0.1342  0.1564 -0.1696
  119MOL   C10935745   3.178   2.443   3.553 -0.3779  0.6991  0.8497
  119MOL   O11035746   3.116   2.528   3.608  0.2762 -0.2497  0.0436
  119MOL   C11135747   3.119   2.312   3.499 -0.0816 -0.2363 -0.1895
  119MOL   C11235748   3.124   2.321   3.347 -0.9927  0.6757 -0.8398
  119MOL   C11335749   3.536   2.479   3.608  0.6917 -0.7617 -0.2862
  119MOL   H11435750   3.334   2.555   3.690 -0.7597  0.0110  0.0206
  119MOL   H11535751   3.175   2.227   3.539 -0.7149 -1.8248 -2.5810
  119MOL   H11635752   3.014   2.301   3.528  0.6365  0.6986  2.9830
  119MOL   H11735753   3.223   2.298   3.306  0.1049  2.5086  0.6925
  119MOL   H11835754   3.054   2.251   3.300 -1.3433  0.6576 -0.2930
  119MOL   H11935755   3.111   2.426   3.319 -2.2233  1.1484  1.4294
  119MOL   H12035756   3.573   2.444   3.512  0.8410 -0.1133 -0.4612
  119MOL   H12135757   3.600   2.552   3.656  0.6871  0.0552 -1.5158
  119MOL   C12235758   3.537   2.358   3.698 -0.5130  0.2594 -0.3187
  119MOL   O12335759   3.491   2.410   3.823  0.7783 -0.2247 -0.2566
  119MOL   C12435760   3.572   2.425   3.939  0.3309  0.2496 -0.4864
  119MOL   O12535761   3.692   2.405   3.951  0.5599 -0.2491  0.4197
  119MOL   C12635762   3.487   2.471   4.056  0.1651  0.2645  0.2456
  119MOL   C12735763   3.390   2.368   4.113  0.7098 -0.2426 -0.6662
  119MOL   C12835764   3.468   2.228   3.649  0.9264 -0.6369 -0.3918
  119MOL   H12935765   3.643   2.339   3.713 -0.8928 -0.7114  1.2866
  119MOL   H13035766   3.542   2.512   4.141 -1.0077  0.9390  0.6925
  119MOL   H13135767   3.421   2.548   4.018 -0.3073 -1.6893 -3.0591
  119MOL   H13235768   3.332   2.407   4.197  0.5629 -1.6213 -0.1147
  119MOL   H13335769   3.318   2.338   4.037 -0.0594  2.0527 -0.8827
  119MOL   H13435770   3.441   2.279   4.149  0.5577  0.2543  0.8129
  119MOL   H13535771   3.364   2.225   3.682 -0.0943  0.7253 -3.3247
  119MOL   H13635772   3.467   2.247   3.542  0.3115  1.3377 -0.0739
  119MOL   C13735773   3.551   2.109   3.685  0.8590  0.9170  0.0192
  119MOL   O13835774   3.528   2.082   3.823 -0.3670 -0.2916  0.2041
  119MOL   C13935775   3.622   2.020   3.897  0.3506 -0.0630  1.0210
  119MOL   O14035776   3.738   1.998   3.862 -0.4279  0.6108  0.2360
  119MOL   C14135777   3.566   1.964   4.028  0.0932  0.1983 -0.2677
  119MOL   C14235778   3.636   2.038   4.143 -0.0828 -0.5992 -0.2091
  119MOL   C14335779   3.499   1.981   3.614  0.3488 -0.8950  0.5605
  119MOL   H14435780   3.655   2.129   3.662  0.5587  0.8776 -1.3900
  119MOL   H14535781   3.460   1.988   4.036 -0.0694 -1.0590  1.6010
  119MOL   H14635782   3.573   1.856   4.038 -1.8454  0.1913  1.3396
  119MOL   H14735783   3.690   2.127   4.111 -1.0771  0.7929  1.8548
  119MOL   H14835784   3.573   2.056   4.230 -0.1384 -0.4639 -0.2782
  119MOL   H14935785   3.703   1.957   4.173 -2.8025 -2.4393  1.0805
  119MOL   H15035786   3.551   1.892   3.650  0.7154 -0.7390  0.4220
  119MOL   H15135787   3.398   1.965   3.651 -0.2405 -0.0073 -0.6227
  119MOL   C15235788   3.498   1.973   3.465  0.0459  0.0499 -0.2732
  119MOL   O15335789   3.628   2.009   3.403 -0.0117  0.1106  0.4297
  119MOL   C15435790   3.647   2.120   3.333  0.0033  0.6309  0.0144
  119MOL   O15535791   3.563   2.198   3.298  0.3470  0.6739 -0.6472
  119MOL   C15635792   3.799   2.143   3.307 -0.9489  0.1157  0.6056
  119MOL   C15735793   3.858   2.225   3.421  0.0174  0.6092 -0.2596
  119MOL   C15835794   3.469   1.831   3.426  0.1325 -0.6634  0.3794
  119MOL   H15935795   3.423   2.040   3.423 -0.3540  0.4338  1.0266
  119MOL   H16035796   3.855   2.054   3.280  1.2908  1.4982  0.5520
  119MOL   H16135797   3.781   2.205   3.219 -0.9861 -1.1376 -0.2783
  119MOL   H16235798   3.835   2.330   3.406 -2.3375  0.0649 -0.6568
  119MOL   H16335799   3.816   2.197   3.518 -2.7596 -0.3469 -1.6676
  119MOL   H16435800   3.965   2.203   3.425  0.0464  1.0138  2.2708
  119MOL   H16535801   3.493   1.821   3.320  1.0302  0.2782  0.4859
  119MOL   H16635802   3.548   1.769   3.469  0.2258 -0.9607 -0.1995
  119MOL   C16735803   3.330   1.768   3.465  0.0512  0.4360 -0.3016
  119MOL   O16835804   3.249   1.783   3.355  0.2193  0.1163 -0.3032
  119MOL   C16935805   3.169   1.898   3.339  0.0913  0.5069  0.1990
  119MOL   O17035806   3.165   1.991   3.417 -0.0196  0.0018  0.6435
  119MOL   C17135807   3.093   1.892   3.214 -0.1570  0.3061  0.1333
  119MOL   C17235808   2.959   1.961   3.225  0.2008  0.2964 -0.1777
  119MOL   C17335809   3.355   1.620   3.503  0.3689  0.0708  0.9282
  119MOL   H17435810   3.284   1.820   3.548  0.5362  1.0443 -0.4108
  119MOL   H17535811   3.150   1.931   3.129  0.1912  0.2633  0.3470
  119MOL   H17635812   3.076   1.792   3.175  0.1937 -0.2603  1.4281
  119MOL   H17735813   2.969   2.070   3.225 -2.2871  0.6431  3.3628
  119MOL   H17835814   2.902   1.942   3.135  2.2143 -1.6795 -1.0853
  119MOL   H17935815   2.907   1.932   3.316 -0.8450  0.8216 -0.6064
  119MOL   H18035816   3.263   1.562   3.493 -0.3203  1.6015 -2.1626
  119MOL   H18135817   3.427   1.575   3.435  0.6665 -1.1790  2.0416
  119MOL   C18235818   3.399   1.594   3.640  0.3726  0.3401 -0.1763
  119MOL   O18335819   3.291   1.603   3.742 -0.3379  0.2281 -0.5357
  119MOL   C18435820   3.309   1.667   3.848 -0.3284  0.0036  0.0113
  119MOL   O18535821   3.399   1.738   3.870 -0.3460 -0.2619  0.0419
  119MOL   C18635822   3.200   1.652   3.949  0.8068 -0.8661 -0.5248
  119MOL   C18735823   3.246   1.711   4.088  0.0654  0.2150 -0.0519
  119MOL   C18835824   3.454   1.447   3.659  0.7542 -0.2226 -0.4676
  119MOL   H18935825   3.474   1.671   3.660 -0.2951  1.3892 -1.5679
  119MOL   H19035826   3.112   1.710   3.920  0.1422 -1.6153 -0.0173
  119MOL   H19135827   3.162   1.551   3.963  0.4855 -0.3050  3.0435
  119MOL   H19235828   3.167   1.696   4.162  1.6774 -1.5227  1.3521
  119MOL   H19335829   3.343   1.682   4.127 -0.4669  1.8018  2.5665
  119MOL   H19435830   3.260   1.817   4.066  3.9424 -0.1594  0.2947
  119MOL   H19535831   3.451   1.431   3.767 -1.3540  1.1726 -0.2825
  119MOL   H19635832   3.390   1.375   3.609  0.7798  1.0948 -2.4274
  119MOL   C19735833   3.594   1.418   3.618  1.1981  0.5299  1.1052
  119MOL   O19835834   3.680   1.512   3.675  0.1349 -0.3574  0.1325
  119MOL   C19935835   3.745   1.596   3.593 -0.5777 -0.3949 -0.4954
  119MOL   O20035836   3.736   1.607   3.469 -0.1264 -0.2658 -0.1284
  119MOL   C20135837   3.824   1.701   3.672  0.1395  0.5580 -0.4083
  119MOL   C20235838   3.867   1.828   3.597  0.3778  0.5725  0.4195
  119MOL   C20335839   3.656   1.280   3.658 -0.4125  0.7750  0.5216
  119MOL   H20435840   3.591   1.426   3.510  0.9926 -2.3328  0.8746
  119MOL   H20535841   3.766   1.730   3.759 -0.9551  0.1087 -0.9824
  119MOL   H20635842   3.913   1.646   3.704 -1.0553 -1.7814 -1.0303
  119MOL   H20735843   3.956   1.806   3.537  0.1613 -0.4188  0.4454
  119MOL   H20835844   3.790   1.858   3.526  1.5742 -1.1613 -1.6839
  119MOL   H20935845   3.902   1.905   3.665 -0.8049  0.2262  1.4298
  119MOL   H21035846   3.764   1.286   3.653 -0.3111 -0.2729  1.1495
  119MOL   H21135847   3.641   1.257   3.764  0.1842  0.3007  0.5052
  119MOL   C21235848   3.594   1.169   3.567 -0.6070 -0.2703 -0.5460
  119MOL   O21335849   3.665   1.201   3.448 -0.3307 -0.1286  0.0819
  119MOL   C21435850   3.611   1.168   3.332 -0.5752  0.4989  0.3978
  119MOL   O21535851   3.505   1.107   3.314  0.1098 -0.2643  0.4922
  119MOL   C21635852   3.704   1.193   3.218  0.1162  0.2529  0.5449
  119MOL   C21735853   3.702   1.334   3.169 -0.5149 -0.4658 -0.6672
  119MOL   C21835854   3.622   1.019   3.615 -0.2834  0.2240  0.2790
  119MOL   H21935855   3.486   1.185   3.562 -0.9340 -1.9480  0.8159
  119MOL   H22035856   3.804   1.165   3.252 -1.0913 -1.3239  2.9390
  119MOL   H22135857   3.694   1.132   3.128  0.6211  0.7639  0.1372
  119MOL   H22235858   3.717   1.400   3.254 -0.3422 -1.2775 -0.0719
  119MOL   H22335859   3.787   1.356   3.105  0.1170  0.5858  0.5228
  119MOL   H22435860   3.616   1.359   3.107 -1.2519  2.1018  1.3133
  119MOL   H22535861   3.613   0.953   3.529  2.0503  1.3337 -0.8790
  119MOL   H22635862   3.724   0.995   3.645 -0.8050 -0.8725  1.1876
  119MOL   C22735863   3.527   0.972   3.727 -0.7364  0.5665  0.1637
  119MOL   O22835864   3.392   0.977   3.680  0.0670  0.1294  0.0137
  119MOL   C22935865   3.310   1.069   3.730  0.1598  0.1978  0.2174
  119MOL   O23035866   3.336   1.166   3.805 -0.6249  0.2460  0.3068
  119MOL   C23135867   3.172   1.060   3.669  0.5412 -0.2490 -0.5456
  119MOL   C23235868   3.177   1.100   3.516  0.0373  0.3842 -0.0760
  119MOL   C23335869   3.568   0.833   3.780 -0.0130  0.7750  0.4858
  119MOL   H23435870   3.552   1.029   3.816  0.9088 -0.8607  0.6419
  119MOL   H23535871   3.127   0.961   3.682 -0.0845  0.1804  0.5798
  119MOL   H23635872   3.098   1.128   3.711  2.7407 -0.3692  3.7853
  119MOL   H23735873   3.225   1.020   3.458  2.2474  1.1288  0.6693
  119MOL   H23835874   3.080   1.129   3.476  0.3772  1.0288 -0.4397
  119MOL   H23935875   3.236   1.189   3.497  0.9864  0.4562  2.8524
  119MOL   H24035876   3.533   0.759   3.709 -0.4128 -1.3673  2.8416
  119MOL   H24135877   3.676   0.828   3.772  0.0557  0.6113  1.4144
  119MOL   C24235878   3.526   0.798   3.924  0.3623  0.0582 -0.6500
  119MOL   O24335879   3.534   0.657   3.936  0.0627 -0.1311 -0.4038
  119MOL   C24435880   3.433   0.583   3.989  0.3366  0.3078 -0.0461
  119MOL   O24535881   3.339   0.633   4.050  0.5182 -0.2559  0.5469
  119MOL   C24635882   3.461   0.433   3.987  0.7349  0.0891  0.2182
  119MOL   C24735883   3.370   0.348   4.069  0.4524  0.3603  0.3216
  119MOL   C24835884   3.630   0.852   4.024 -0.0010 -0.5600  0.0093
  119MOL   H24935885   3.427   0.843   3.935  0.1105 -0.5409 -0.4042
  119MOL   H25035886   3.458   0.392   3.886 -0.5429  0.7781 -0.0329
  119MOL   H25135887   3.562   0.428   4.030  0.4215  0.6332  1.0316
  119MOL   H25235888   3.393   0.335   4.175  0.4080 -1.9366  0.0617
  119MOL   H25335889   3.266   0.380   4.059  0.1626 -0.9130 -0.7202
  119MOL   H25435890   3.362   0.250   4.023 -0.6552  0.9939 -0.8549
  119MOL   H25535891   3.724   0.796   4.020  0.7071  0.5375  0.9448
  119MOL   H25635892   3.659   0.956   4.011 -0.0610 -0.6221 -0.6377
  119MOL   C25735893   3.580   0.860   4.170 -0.3808 -0.3858  0.5396
  119MOL   O25835894   3.579   0.726   4.231 -0.4589  0.1934  0.1758
  119MOL   C25935895   3.483   0.696   4.313 -0.1035 -0.2027  0.0224
  119MOL   O26035896   3.389   0.768   4.345 -0.1504  0.5241 -0.2285
  119MOL   C26135897   3.519   0.561   4.369 -0.2521  0.1441  0.2312
  119MOL   C26235898   3.597   0.572   4.501 -0.2598 -0.5930  0.5877
  119MOL   C26335899   3.657   0.949   4.264  0.8813 -0.7008  0.7714
  119MOL   H26435900   3.478   0.897   4.171 -0.5109 -0.6430 -1.1029
  119MOL   H26535901   3.421   0.521   4.394 -0.5722  0.6787 -0.1459
  119MOL   H26635902   3.568   0.494   4.299  1.4107  2.9156 -1.3515
  119MOL   H26735903   3.639   0.474   4.523 -1.5400 -1.2219  0.2623
  119MOL   H26835904   3.675   0.649   4.502 -1.2833  0.7038 -4.9084
  119MOL   H26935905   3.530   0.587   4.586 -2.7000  2.7675 -1.8063
  119MOL   H27035906   3.616   0.929   4.363  0.4463 -2.0887  0.3169
  119MOL   H27135907   3.759   0.913   4.280  0.9572 -0.1332  1.5902
  119MOL   C27235908   3.660   1.102   4.231  0.0839 -0.0882  0.7720
  119MOL   O27335909   3.527   1.153   4.229  0.3005 -0.4596  0.1388
  119MOL   C27435910   3.479   1.217   4.121 -0.2505  0.2999 -0.3750
  119MOL   O27535911   3.544   1.235   4.021 -0.0774 -1.0358 -0.1663
  119MOL   C27635912   3.333   1.258   4.136 -0.2445  0.0752  0.7806
  119MOL   C27735913   3.286   1.286   4.276 -0.1148  0.6860  0.0623
  119MOL   C27835914   3.747   1.185   4.328 -0.7182  0.7043  0.1632
  119MOL   H27935915   3.709   1.102   4.134  0.6512  0.9511  1.0411
  119MOL   H28035916   3.316   1.348   4.077  1.2150  0.0578  0.3115
  119MOL   H28135917   3.280   1.169   4.100 -1.0583  0.2048  1.6547
  119MOL   H28235918   3.296   1.199   4.341 -1.4352  0.2013 -0.3786
  119MOL   H28335919   3.347   1.366   4.320  3.0445 -1.6706  0.1327
  119MOL   H28435920   3.181   1.316   4.278 -0.3274 -0.0905  0.7139
  119MOL   H28535921   3.725   1.288   4.299 -1.9224 -0.1945 -2.3293
  119MOL   H28635922   3.713   1.176   4.431 -2.3518  1.3022 -0.3059
  119MOL   C28735923   3.895   1.148   4.324  0.3606 -1.1033 -0.0640
  119MOL   O28835924   3.948   1.177   4.199  0.1626 -0.0929  0.8218
  119MOL   C28935925   4.004   1.081   4.134  0.1822  0.7440  0.3535
  119MOL   O29035926   4.002   0.961   4.171 -0.9283 -0.2369 -0.0405
  119MOL   C29135927   4.067   1.118   4.003  0.3533  0.1530 -0.1950
  119MOL   C29235928   3.967   1.121   3.888 -0.0703 -0.3031 -0.4800
  119MOL   C29335929   3.975   1.236   4.414 -0.1265  1.0717  0.2358
  119MOL   H29435930   3.912   1.047   4.361  0.3819 -0.3644  1.9973
  119MOL   H29535931   4.117   1.210   4.035 -0.3145  0.1514  0.8914
  119MOL   H29635932   4.149   1.047   3.990  1.9080  1.9881 -0.6200
  119MOL   H29735933   4.024   1.147   3.798  1.1524  1.0498  0.6491
  119MOL   H29835934   3.919   1.025   3.873  1.2495 -1.2027  0.9333
  119MOL   H29935935   3.890   1.195   3.909 -0.8046 -1.3875  0.6944
  119MOL   H30035936   3.955   1.194   4.513 -0.9358  2.4348  0.6522
  119MOL   H30135937   4.083   1.224   4.405 -0.3013 -1.2396  0.7129
  119MOL   H30235938   3.927   1.333   4.413 -1.5435  0.4047  1.2020
  120MOL     C135939   2.920   1.121   1.158 -0.4081 -0.2914  0.0726
  120MOL     O235940   3.016   1.213   1.215 -0.0142 -0.4852 -0.3971
  120MOL     C335941   2.984   1.264   1.336  0.1234  0.1051  0.0547
  120MOL     O435942   2.884   1.239   1.406  0.5524 -0.0423 -0.3316
  120MOL     C535943   3.096   1.353   1.387 -0.0237 -0.3728 -0.6057
  120MOL     C635944   3.218   1.279   1.460  0.3054 -0.0747 -0.0200
  120MOL     C735945   2.846   1.204   1.049 -0.4438 -0.7774 -0.3459
  120MOL     H835946   2.848   1.086   1.231  1.0550 -0.0823  1.6494
  120MOL     H935947   3.128   1.418   1.306  0.4651  2.1662  1.5627
  120MOL    H1035948   3.055   1.431   1.452  2.5579  2.0747 -1.8359
  120MOL    H1135949   3.242   1.192   1.399  0.8465 -0.7530  1.1472
  120MOL    H1235950   3.303   1.347   1.468 -0.7995  1.5793 -1.8748
  120MOL    H1335951   3.191   1.253   1.563  0.5629 -3.5457 -0.7679
  120MOL    H1435952   2.803   1.295   1.090  0.8568 -0.5323  0.4886
  120MOL    H1535953   2.912   1.235   0.969  0.1762  0.0365  0.4767
  120MOL    H1635954   2.971   1.039   1.107  1.3410 -0.0609  1.3899
  120MOL    C1735955   2.737   1.119   0.989  0.3957  0.1589 -0.0075
  120MOL    O1835956   2.655   1.068   1.094 -0.5195 -0.1022 -0.1679
  120MOL    C1935957   2.641   0.938   1.126  0.8487 -0.4932 -0.1955
  120MOL    O2035958   2.683   0.843   1.061  0.7884  0.7733  0.4743
  120MOL    C2135959   2.570   0.931   1.260  0.2365 -0.1388 -0.7149
  120MOL    C2235960   2.491   0.800   1.275  0.0828  0.4174 -0.1241
  120MOL    C2335961   2.643   1.186   0.888 -1.1885 -0.4146  0.0810
  120MOL    H2435962   2.785   1.039   0.932  0.6905 -0.3896  1.0055
  120MOL    H2535963   2.639   0.941   1.345  0.4501  0.4693 -0.9616
  120MOL    H2635964   2.493   1.007   1.263 -1.8372 -2.1898 -0.8819
  120MOL    H2735965   2.412   0.777   1.205  2.4117  0.8346 -2.9818
  120MOL    H2835966   2.555   0.713   1.293 -1.9140 -0.7755  1.4103
  120MOL    H2935967   2.438   0.816   1.369  0.4222  1.9568 -0.1825
  120MOL    H3035968   2.542   1.163   0.923 -1.9108  0.1112 -1.5997
  120MOL    H3135969   2.637   1.295   0.893  1.3361 -0.2415  0.0253
  120MOL    C3235970   2.658   1.147   0.742  0.7250  0.7218  0.5920
  120MOL    O3335971   2.789   1.185   0.699 -0.4026  0.9618 -0.4237
  120MOL    C3435972   2.816   1.196   0.577  0.3297  0.1265 -0.0559
  120MOL    O3535973   2.733   1.215   0.490 -0.5207  0.2281  0.4482
  120MOL    C3635974   2.961   1.168   0.539 -0.5400 -0.3432 -0.4010
  120MOL    C3735975   2.973   1.101   0.401 -0.4200  0.2157  0.3605
  120MOL    C3835976   2.635   0.997   0.711 -0.6526 -0.0349 -0.4698
  120MOL    H3935977   2.585   1.201   0.682  0.6866 -0.9302 -0.8934
  120MOL    H4035978   3.020   1.260   0.539  1.0216 -1.2929  1.9058
  120MOL    H4135979   3.004   1.109   0.620  1.8874 -0.0210 -1.4175
  120MOL    H4235980   2.927   1.002   0.399 -0.0885  0.0692 -0.0227
  120MOL    H4335981   2.925   1.169   0.331 -1.2013 -0.2568  0.4175
  120MOL    H4435982   3.073   1.084   0.364 -0.2348  0.5897  0.6877
  120MOL    H4535983   2.634   0.982   0.603 -1.2897 -1.5814 -0.2676
  120MOL    H4635984   2.710   0.934   0.759 -0.6730  1.0608  1.0276
  120MOL    C4735985   2.505   0.932   0.756 -0.2515  0.5532 -0.8133
  120MOL    O4835986   2.402   0.976   0.669 -0.2346  0.0173  0.2415
  120MOL    C4935987   2.304   1.065   0.708 -0.6264  0.9549 -0.3518
  120MOL    O5035988   2.316   1.132   0.813 -0.2914  1.0942  0.0760
  120MOL    C5135989   2.183   1.087   0.614  0.3272 -0.1130  0.0252
  120MOL    C5235990   2.207   1.189   0.499 -0.4336  0.2596  0.0763
  120MOL    C5335991   2.507   0.776   0.761  0.3756 -0.4863 -0.3635
  120MOL    H5435992   2.495   0.980   0.853  0.1467 -1.1291  0.0751
  120MOL    H5535993   2.161   0.991   0.567  1.5487 -1.4646  2.1224
  120MOL    H5635994   2.091   1.117   0.664  0.9768 -1.8878  2.3747
  120MOL    H5735995   2.117   1.201   0.438 -0.0636 -1.5995 -0.8721
  120MOL    H5835996   2.259   1.279   0.532  0.1328  0.7486 -2.0730
  120MOL    H5935997   2.285   1.145   0.437  0.8912  2.7318 -0.0829
  120MOL    H6035998   2.498   0.752   0.655 -3.0374 -0.9173 -0.0245
  120MOL    H6135999   2.598   0.730   0.800  0.0462 -1.3491 -0.6086
  120MOL    C6236000   2.405   0.699   0.840  0.1670  0.7610  0.5358
  120MOL    O6336001   2.271   0.735   0.823  0.6341 -0.3897  0.5203
  120MOL    C6436002   2.206   0.813   0.918 -0.3880  0.3000  0.2771
  120MOL    O6536003   2.253   0.865   1.017  0.1268 -0.3680  0.0040
  120MOL    C6636004   2.055   0.811   0.895 -0.0250 -0.6053  0.3671
  120MOL    C6736005   1.979   0.916   0.975 -0.5225  0.5674 -0.0143
  120MOL    C6836006   2.410   0.539   0.819  0.1798 -0.1786 -0.1345
  120MOL    H6936007   2.429   0.715   0.945  1.0888 -0.8948  0.6045
  120MOL    H7036008   2.056   0.847   0.792  3.1220  0.7471  0.8198
  120MOL    H7136009   2.018   0.709   0.908 -1.7580 -0.0556 -0.1236
  120MOL    H7236010   2.040   1.006   0.987  2.4457 -1.1229 -1.9996
  120MOL    H7336011   1.889   0.945   0.921  0.8322 -0.4886 -2.9202
  120MOL    H7436012   1.958   0.890   1.079 -1.7255  2.3043  0.2104
  120MOL    H7536013   2.356   0.520   0.726 -1.2993 -0.6182  0.8120
  120MOL    H7636014   2.509   0.494   0.811  0.1119 -0.8698  2.5520
  120MOL    C7736015   2.335   0.459   0.920 -0.1431  0.4532  0.0884
  120MOL    O7836016   2.304   0.330   0.868 -0.0220 -0.0986  0.6655
  120MOL    C7936017   2.176   0.298   0.838  0.0101  0.2952 -0.5187
  120MOL    O8036018   2.079   0.360   0.873  0.4544 -0.2147 -0.0242
  120MOL    C8136019   2.159   0.181   0.739  0.1406  0.8543  0.0314
  120MOL    C8236020   2.232   0.220   0.601  0.5726 -0.3274 -0.0263
  120MOL    C8336021   2.411   0.443   1.058  0.1652 -1.1970 -0.0039
  120MOL    H8436022   2.243   0.511   0.946 -0.3940 -0.5411  1.2471
  120MOL    H8536023   2.212   0.094   0.777 -2.6876 -0.1263  1.9253
  120MOL    H8636024   2.055   0.153   0.724  1.0695 -2.7215 -0.0967
  120MOL    H8736025   2.295   0.142   0.560 -0.8892 -1.2751 -0.5259
  120MOL    H8836026   2.149   0.229   0.530  0.5499 -2.5212 -0.3072
  120MOL    H8936027   2.289   0.313   0.599  0.1561 -0.0777 -0.5331
  120MOL    H9036028   2.498   0.379   1.045  0.4759 -0.6135 -0.8425
  120MOL    H9136029   2.455   0.531   1.105  1.6475 -2.0149  0.1697
  120MOL    C9236030   2.323   0.379   1.177 -0.3371 -0.2621  0.2773
  120MOL    O9336031   2.402   0.343   1.293 -0.2573 -0.0019  0.2430
  120MOL    C9436032   2.409   0.219   1.345 -0.2679 -0.2147  0.0292
  120MOL    O9536033   2.348   0.125   1.294 -0.2622 -0.0359 -0.7905
  120MOL    C9636034   2.486   0.195   1.476  0.1180 -0.8831 -0.8065
  120MOL    C9736035   2.398   0.198   1.594 -0.6417 -0.0794  0.3122
  120MOL    C9836036   2.202   0.466   1.223 -0.2522 -0.4349  0.2164
  120MOL    H9936037   2.296   0.285   1.127  1.5298 -0.7121  0.0748
  120MOL   H10036038   2.547   0.105   1.472 -0.3558 -1.1378 -2.8794
  120MOL   H10136039   2.556   0.278   1.486 -2.3291  1.3349 -1.2215
  120MOL   H10236040   2.346   0.103   1.598 -0.5100 -0.0853  2.3026
  120MOL   H10336041   2.467   0.205   1.678 -1.4001 -1.6277  1.0851
  120MOL   H10436042   2.324   0.279   1.595  0.6150  1.0943 -0.3607
  120MOL   H10536043   2.246   0.552   1.273  3.1968 -3.1660  2.1511
  120MOL   H10636044   2.143   0.504   1.140  2.2492  0.0903 -1.3670
  120MOL   C10736045   2.108   0.407   1.330 -0.4218 -0.3969 -0.0574
  120MOL   O10836046   2.004   0.501   1.378 -0.2880  0.5728  0.0098
  120MOL   C10936047   1.991   0.525   1.514 -0.1885  0.4130 -0.2265
  120MOL   O11036048   2.072   0.475   1.589 -0.0061 -0.6524  0.3487
  120MOL   C11136049   1.857   0.594   1.554 -0.4665 -0.1661  0.3079
  120MOL   C11236050   1.735   0.512   1.507 -0.4524 -0.1625  0.1184
  120MOL   C11336051   2.040   0.281   1.274  1.0781  0.7854 -0.3299
  120MOL   H11436052   2.178   0.376   1.407  1.0667 -1.4413 -1.8096
  120MOL   H11536053   1.848   0.607   1.662  3.0654  1.2304  0.4923
  120MOL   H11636054   1.841   0.693   1.512 -2.6581 -0.2391  0.8629
  120MOL   H11736055   1.724   0.420   1.565 -0.2682 -0.6389 -0.5988
  120MOL   H11836056   1.641   0.566   1.521 -0.7641 -0.4925 -0.6726
  120MOL   H11936057   1.730   0.481   1.403  0.6249 -1.7760  0.5384
  120MOL   H12036058   1.975   0.303   1.190 -0.8222 -0.3433  0.7951
  120MOL   H12136059   2.117   0.219   1.228  1.4270  2.0063 -1.4313
  120MOL   C12236060   1.963   0.195   1.382  0.2180 -0.7705  0.3394
  120MOL   O12336061   1.871   0.112   1.305  0.1071  0.0278  0.4278
  120MOL   C12436062   1.737   0.143   1.290  0.3331  0.1297  0.0794
  120MOL   O12536063   1.674   0.226   1.361 -0.4082 -0.4480  0.0447
  120MOL   C12636064   1.669   0.050   1.185 -0.2206 -0.1378 -0.0167
  120MOL   C12736065   1.533   0.105   1.151  0.4997 -0.0386 -0.2951
  120MOL   C12836066   2.053   0.109   1.474  0.1572  0.2370  0.1187
  120MOL   H12936067   1.902   0.257   1.448 -1.9124 -0.6243 -1.6793
  120MOL   H13036068   1.739   0.061   1.102 -1.0870  2.3873 -0.4495
  120MOL   H13136069   1.670   7.889   1.214  1.0608 -0.1427 -0.0446
  120MOL   H13236070   1.539   0.206   1.111  1.2984  0.1348  0.2454
  120MOL   H13336071   1.485   0.052   1.068  0.3148 -0.4900  0.0949
  120MOL   H13436072   1.461   0.099   1.233  0.6939  0.2444 -0.1005
  120MOL   H13536073   2.112   0.050   1.404 -2.1386 -1.2225 -0.6476
  120MOL   H13636074   2.112   0.187   1.520 -0.7377 -0.0033  1.6990
  120MOL   C13736075   1.980   0.012   1.576 -0.0433  0.5538  0.7714
  120MOL   O13836076   2.024   7.822   1.551 -0.1200 -0.0790 -0.7691
  120MOL   C13936077   1.945   7.738   1.479 -0.3621  0.1764 -0.8080
  120MOL   O14036078   1.859   7.771   1.404  0.4276 -0.1141 -0.1921
  120MOL   C14136079   1.982   7.595   1.502  0.2330  0.6563 -0.1966
  120MOL   C14236080   1.877   7.497   1.426  0.2420 -0.2159  0.5295
  120MOL   C14336081   2.002   0.051   1.724  0.2183 -0.0567 -0.1509
  120MOL   H14436082   1.873   0.019   1.558  0.0410  0.2134  0.1051
  120MOL   H14536083   2.086   7.585   1.471  0.5118  0.0062  0.9287
  120MOL   H14636084   1.970   7.571   1.607 -1.6994  1.4172 -0.2111
  120MOL   H14736085   1.905   7.393   1.444  0.9852 -0.0795  0.1948
  120MOL   H14836086   1.773   7.513   1.454 -0.3966 -0.6870 -1.4713
  120MOL   H14936087   1.879   7.505   1.317 -1.2625  1.3243  0.6003
  120MOL   H15036088   2.105   0.043   1.760  0.4470 -1.2017 -1.0150
  120MOL   H15136089   1.981   0.158   1.720 -0.1643 -0.1349 -0.2374
  120MOL   C15236090   1.911   7.924   1.821 -0.4423 -0.2232 -0.2587
  120MOL   O15336091   1.982   7.811   1.863 -0.2875 -0.1039 -0.1877
  120MOL   C15436092   1.931   7.689   1.858 -0.5170  0.6336  0.0756
  120MOL   O15536093   1.815   7.662   1.811 -0.1428  0.0374 -0.8799
  120MOL   C15636094   2.022   7.577   1.909 -0.1502 -0.0272 -0.4245
  120MOL   C15736095   2.123   7.623   2.020 -0.1181  0.2232  1.0095
  120MOL   C15836096   1.870   0.066   1.943 -0.7775  1.0176  0.3649
  120MOL   H15936097   1.823   7.906   1.760  0.0759 -0.6457 -0.8943
  120MOL   H16036098   1.961   7.498   1.954 -1.2773  0.4179 -1.1673
  120MOL   H16136099   2.077   7.538   1.823 -0.3149 -0.5961 -0.2736
  120MOL   H16236100   2.189   7.539   2.043 -0.4205  0.5033  2.9537
  120MOL   H16336101   2.187   7.705   1.987 -1.5848  0.3144 -1.7141
  120MOL   H16436102   2.081   7.636   2.120  1.7817  0.5129  1.7973
  120MOL   H16536103   1.956   0.086   2.007 -0.0318 -0.1576 -0.2587
  120MOL   H16636104   1.834   0.157   1.895  1.8149  2.3156  0.8177
  120MOL   C16736105   1.772   7.943   2.041 -0.1815 -0.1689  0.5156
  120MOL   O16836106   1.756   0.085   2.155 -0.2694  0.3685  0.8717
  120MOL   C16936107   1.743   0.017   2.273  0.3107  0.4064  0.5962
  120MOL   O17036108   1.732   7.844   2.288 -0.0839 -0.3333  0.0048
  120MOL   C17136109   1.742   0.105   2.399 -0.5591 -0.6200  0.5471
  120MOL   C17236110   1.619   0.198   2.406  0.5748 -0.1183 -0.1404
  120MOL   C17336111   1.630   7.936   1.972  0.4850 -0.9528 -0.0099
  120MOL   H17436112   1.811   7.842   2.057  0.2824 -0.0838 -0.0665
  120MOL   H17536113   1.742   0.039   2.486  1.0686 -0.0455  1.0149
  120MOL   H17636114   1.838   0.156   2.408 -0.3220 -0.4612 -2.2954
  120MOL   H17736115   1.600   0.228   2.509  1.3156 -0.3862  0.0779
  120MOL   H17836116   1.643   0.286   2.348  2.0597  0.8831  1.9370
  120MOL   H17936117   1.529   0.159   2.358  1.8823 -0.7359 -2.1077
  120MOL   H18036118   1.585   0.090   1.967 -3.9551 -3.0000 -3.1022
  120MOL   H18136119   1.644   7.900   1.870  2.2007  1.6022 -0.7478
  120MOL   C18236120   1.538   7.830   2.044 -0.2039 -0.5408  0.2522
  120MOL   O18336121   1.415   7.861   1.980  0.3219  0.9042 -0.6367
  120MOL   C18436122   1.315   7.924   2.045  0.7247 -0.2288 -0.1448
  120MOL   O18536123   1.311   0.002   2.170 -0.1413 -0.0502  0.2379
  120MOL   C18636124   1.208   0.027   1.952  0.5338 -0.0409  0.1916
  120MOL   C18736125   1.141   7.867   1.863 -0.3982 -0.2112  0.3915
  120MOL   C18836126   1.584   7.695   2.022  0.0961 -0.2886 -0.1659
  120MOL   H18936127   1.522   7.857   2.148  3.2885  0.4316  0.6004
  120MOL   H19036128   1.143   0.088   2.014  0.7981 -0.2500  0.6767
  120MOL   H19136129   1.257   0.096   1.883 -0.1647 -0.3494 -0.6070
  120MOL   H19236130   1.211   7.793   1.825 -1.0153 -1.0481  0.8622
  120MOL   H19336131   1.069   7.804   1.915  0.5791 -1.3033  0.4480
  120MOL   H19436132   1.089   7.903   1.774 -0.2790 -1.7579 -0.3185
  120MOL   H19536133   1.589   7.677   1.914  0.8956 -2.1254  0.1708
  120MOL   H19636134   1.678   7.688   2.077  1.0148 -1.2025 -1.8060
  120MOL   C19736135   1.484   7.591   2.079 -0.0961  0.1892  0.4585
  120MOL   O19836136   1.381   7.563   1.987  0.4373  0.2787  0.3694
  120MOL   C19936137   1.272   7.498   2.024 -1.2539  0.2202 -0.2636
  120MOL   O20036138   1.244   7.471   2.140 -0.1936 -0.5715  0.3246
  120MOL   C20136139   1.175   7.463   1.912  0.1870 -0.5359 -0.2572
  120MOL   C20236140   1.111   7.325   1.933 -0.2582 -0.6762  0.0188
  120MOL   C20336141   1.573   7.458   2.101 -0.0549  0.3058  0.5890
  120MOL   H20436142   1.440   7.606   2.178 -2.5292 -1.8069 -0.2842
  120MOL   H20536143   1.088   7.527   1.910 -1.4079 -2.6682 -0.8474
  120MOL   H20636144   1.210   7.465   1.809  0.6456  0.3112 -0.0867
  120MOL   H20736145   1.185   7.248   1.951 -0.0363 -1.0598 -2.4383
  120MOL   H20836146   1.055   7.310   2.026 -0.7480 -1.5230 -0.4009
  120MOL   H20936147   1.044   7.305   1.849 -2.2796  2.1470  0.8625
  120MOL   H21036148   1.514   7.382   2.050 -0.7877  1.2156  0.0586
  120MOL   H21136149   1.659   7.466   2.036 -0.7165 -0.5428 -0.4144
  120MOL   C21236150   1.602   7.440   2.252 -0.1593 -0.4260 -0.5213
  120MOL   O21336151   1.504   7.365   2.317  0.3368  0.4340  0.5945
  120MOL   C21436152   1.410   7.421   2.395 -0.0032 -0.0658  0.1306
  120MOL   O21536153   1.402   7.535   2.423  0.1522 -0.3777 -0.3103
  120MOL   C21636154   1.332   7.310   2.462 -0.0825  0.1457 -0.1696
  120MOL   C21736155   1.182   7.326   2.421 -0.1758 -0.2861  0.7633
  120MOL   C21836156   1.731   7.357   2.263 -0.1801 -0.0275 -0.2097
  120MOL   H21936157   1.623   7.538   2.294  0.4453 -0.4473 -0.7779
  120MOL   H22036158   1.359   7.211   2.427 -0.2730  1.0907 -3.1016
  120MOL   H22136159   1.354   7.308   2.569 -0.1789  0.6045 -0.1384
  120MOL   H22236160   1.139   7.417   2.462 -1.1933 -0.6712  0.5560
  120MOL   H22336161   1.166   7.311   2.314  1.3824 -1.4234  0.6569
  120MOL   H22436162   1.129   7.252   2.481 -0.9096 -0.9703 -0.7013
  120MOL   H22536163   1.708   7.252   2.246  0.3796 -0.2750  0.5418
  120MOL   H22636164   1.799   7.387   2.183 -0.2707 -1.5347 -0.8723
  120MOL   C22736165   1.791   7.368   2.402 -0.1978  0.2761 -0.4596
  120MOL   O22836166   1.714   7.278   2.478  0.6223  0.1498 -0.0801
  120MOL   C22936167   1.719   7.289   2.612 -0.2302  0.8577  0.0017
  120MOL   O23036168   1.799   7.351   2.683  0.0006 -0.1483  0.0663
  120MOL   C23136169   1.626   7.191   2.676 -0.2299  0.0140  0.2539
  120MOL   C23236170   1.682   7.057   2.707  0.2368 -0.1696 -0.0206
  120MOL   C23336171   1.942   7.330   2.391  0.6559  0.0397 -0.0190
  120MOL   H23436172   1.792   7.468   2.444 -0.5857 -0.0792  0.4050
  120MOL   H23536173   1.589   7.232   2.770 -0.3552 -2.1941  1.1976
  120MOL   H23636174   1.542   7.183   2.608 -0.6576  2.9503  0.3498
  120MOL   H23736175   1.694   6.992   2.620 -0.3006 -0.2709 -0.0243
  120MOL   H23836176   1.787   7.071   2.733  0.6832 -0.2008 -1.7714
  120MOL   H23936177   1.620   7.011   2.785 -1.7716 -0.2829 -1.6430
  120MOL   H24036178   1.977   7.299   2.489 -0.9968 -1.8875 -0.0030
  120MOL   H24136179   1.954   7.240   2.330  0.1798  0.3243 -0.5416
  120MOL   C24236180   2.027   7.448   2.346  0.8035 -0.1505 -0.4861
  120MOL   O24336181   2.016   7.542   2.453  0.6189  0.6165  0.3325
  120MOL   C24436182   1.996   7.676   2.434  0.3908 -0.2039 -0.6328
  120MOL   O24536183   2.005   7.736   2.327  0.3509 -0.6114  0.8409
  120MOL   C24636184   1.977   7.761   2.561  0.0411 -0.5213  0.1352
  120MOL   C24736185   1.871   7.711   2.653  0.4739 -0.2550 -0.3499
  120MOL   C24836186   2.167   7.406   2.314  0.1777 -0.4110 -0.6458
  120MOL   H24936187   1.980   7.491   2.258 -1.0197 -0.3062  0.4051
  120MOL   H25036188   2.068   7.774   2.620  0.9773 -1.0493 -1.1502
  120MOL   H25136189   1.947   7.862   2.534 -2.0667 -1.9185 -3.0019
  120MOL   H25236190   1.779   7.765   2.630 -0.7820 -1.7864  0.9714
  120MOL   H25336191   1.854   7.605   2.636  1.5705 -0.2993 -1.1993
  120MOL   H25436192   1.900   7.725   2.757  0.1864 -3.4808  0.2171
  120MOL   H25536193   2.164   7.346   2.223  0.1048 -1.2685 -0.0828
  120MOL   H25636194   2.232   7.492   2.296  0.8955 -0.9450 -0.6264
  120MOL   C25736195   2.237   7.318   2.420 -0.8798 -0.3684 -0.1296
  120MOL   O25836196   2.210   7.179   2.416 -0.4128 -0.0837 -0.4441
  120MOL   C25936197   2.188   7.104   2.524  0.3474 -0.1544 -0.0504
  120MOL   O26036198   2.214   7.135   2.638 -0.5330 -0.0919  0.2301
  120MOL   C26136199   2.115   6.966   2.493  0.5946 -0.2937  0.0044
  120MOL   C26236200   1.968   6.982   2.469 -0.5127 -0.1948 -0.0310
  120MOL   C26336201   2.390   7.335   2.444 -0.1813 -0.5278 -0.1222
  120MOL   H26436202   2.191   7.364   2.507 -1.9115 -2.4752  0.4559
  120MOL   H26536203   2.162   6.916   2.408  0.9573 -0.6777  0.4275
  120MOL   H26636204   2.124   6.896   2.576 -0.2151 -1.0088 -0.4873
  120MOL   H26736205   1.924   7.077   2.501 -1.8845 -0.7923 -0.1102
  120MOL   H26836206   1.958   6.974   2.361 -1.5346  2.0439 -0.1311
  120MOL   H26936207   1.909   6.903   2.515  0.8637 -0.3730  1.4648
  120MOL   H27036208   2.435   7.238   2.467 -0.8892 -0.6462  0.8127
  120MOL   H27136209   2.443   7.372   2.356 -1.4368  1.9020  0.1002
  120MOL   C27236210   2.416   7.426   2.566  0.7925 -0.4808  0.0718
  120MOL   O27336211   2.558   7.426   2.582 -0.7689 -0.5506  0.0627
  120MOL   C27436212   2.610   7.380   2.696  0.3239 -0.6538 -0.3837
  120MOL   O27536213   2.544   7.340   2.794  0.5404  0.1217 -0.7765
  120MOL   C27636214   2.766   7.374   2.700 -0.6245  0.1938  0.6721
  120MOL   C27736215   2.817   7.236   2.737  0.4977 -0.5084  0.2565
  120MOL   C27836216   2.365   7.568   2.544  0.4146 -1.2733 -0.1401
  120MOL   H27936217   2.351   7.382   2.641  1.0257  0.9388  1.1234
  120MOL   H28036218   2.802   7.416   2.605 -0.9743  1.4424  1.0752
  120MOL   H28136219   2.792   7.438   2.784 -1.3099  0.6605  0.5321
  120MOL   H28236220   2.764   7.201   2.825  0.3688  1.6571  1.0758
  120MOL   H28336221   2.789   7.163   2.661  0.8476 -1.1258  0.7183
  120MOL   H28436222   2.923   7.237   2.759  0.4595  1.0319  0.4204
  120MOL   H28536223   2.412   7.625   2.464 -2.1154  0.5467 -0.4161
  120MOL   H28636224   2.264   7.572   2.502  0.0429 -0.6278  0.8075
  120MOL   C28736225   2.353   7.656   2.665  0.0440 -0.3341 -0.6404
  120MOL   O28836226   2.303   7.780   2.630 -0.5413  0.3282 -0.4124
  120MOL   C28936227   2.358   7.900   2.669 -0.2335  0.0464  0.3681
  120MOL   O29036228   2.468   7.916   2.728  0.3926  0.6567 -0.4010
  120MOL   C29136229   2.285   0.072   2.603  0.2719  0.3452 -0.8032
  120MOL   C29236230   2.273   0.057   2.447 -0.0216  0.7257  0.3491
  120MOL   C29336231   2.265   7.603   2.778 -0.4336 -0.0380 -0.0418
  120MOL   H29436232   2.459   7.671   2.688  0.2264  1.0047 -2.2488
  120MOL   H29536233   2.183   0.081   2.640  0.1207 -1.8444 -0.6686
  120MOL   H29636234   2.329   0.165   2.640  0.2559 -0.6344  1.7145
  120MOL   H29736235   2.268   7.897   2.419 -0.6122  1.2437 -1.6190
  120MOL   H29836236   2.187   0.107   2.400 -0.9293 -0.6616  0.5184
  120MOL   H29936237   2.358   0.098   2.392  0.5500 -2.2847 -1.1198
  120MOL   H30036238   2.167   7.563   2.751 -1.7050  0.6692  3.3061
  120MOL   H30136239   2.320   7.526   2.833  0.9653  0.4104 -0.7940
  120MOL   H30236240   2.247   7.689   2.842  1.2634 -0.6586  1.3145
  121MOL     C136241   6.104   6.619   0.613  0.4022  0.0913  0.2160
  121MOL     O236242   6.097   6.744   0.682  0.3045 -0.4812 -0.2863
  121MOL     C336243   5.989   6.768   0.757 -0.1068  0.4941  0.2893
  121MOL     O436244   5.896   6.690   0.769 -0.1345 -0.1804 -0.5470
  121MOL     C536245   6.009   6.891   0.852 -0.5544 -0.1361  0.2838
  121MOL     C636246   5.900   6.998   0.850  0.0981 -1.0901 -0.0189
  121MOL     C736247   6.250   6.591   0.576 -0.2606  0.3602  0.0912
  121MOL     H836248   6.039   6.608   0.526 -0.8898 -0.2201  1.2088
  121MOL     H936249   6.008   6.839   0.947  0.9064  0.2395  0.5235
  121MOL    H1036250   6.112   6.927   0.841 -0.6029 -0.4067 -1.1363
  121MOL    H1136251   5.905   7.059   0.940 -0.0675  1.2041 -1.5314
  121MOL    H1236252   5.912   7.060   0.761 -1.5737 -1.3842 -0.4644
  121MOL    H1336253   5.798   6.958   0.847 -0.6046  0.3772  2.8374
  121MOL    H1436254   6.251   6.491   0.534 -0.4059  0.8822 -1.1770
  121MOL    H1536255   6.278   6.651   0.489  0.6478 -0.5592 -0.2562
  121MOL    H1636256   6.077   6.544   0.686  1.6807  1.1198  1.7842
  121MOL    C1736257   6.347   6.602   0.698  0.3316 -0.0593 -0.4201
  121MOL    O1836258   6.306   6.509   0.799 -0.3275  0.5908  0.2831
  121MOL    C1936259   6.258   6.555   0.918  0.0018  1.3259  0.2779
  121MOL    O2036260   6.254   6.672   0.950  0.7627  0.2540 -0.1089
  121MOL    C2136261   6.218   6.442   1.015 -0.6292  0.3709 -0.3857
  121MOL    C2236262   6.201   6.488   1.161 -0.2287 -0.4700 -0.5631
  121MOL    C2336263   6.490   6.569   0.649 -0.9392  0.3553 -0.0200
  121MOL    H2436264   6.344   6.703   0.739 -0.8525 -0.4902  0.5977
  121MOL    H2536265   6.130   6.383   0.986 -0.6020  0.0004  0.2698
  121MOL    H2636266   6.294   6.364   1.009  0.5357  1.4746 -0.1894
  121MOL    H2736267   6.183   6.407   1.232  1.4538 -1.4940 -1.2821
  121MOL    H2836268   6.278   6.557   1.197 -2.1013  1.3173  0.1335
  121MOL    H2936269   6.117   6.557   1.154 -0.3050 -0.5920 -0.8222
  121MOL    H3036270   6.484   6.469   0.606  0.2966  0.3749 -0.2409
  121MOL    H3136271   6.515   6.637   0.568 -0.1174 -0.7974 -0.7470
  121MOL    C3236272   6.595   6.582   0.758 -0.7078 -0.3930  0.0913
  121MOL    O3336273   6.702   6.491   0.738  0.2050 -0.0327  0.0143
  121MOL    C3436274   6.695   6.367   0.772  0.5754 -0.2939  0.8997
  121MOL    O3536275   6.608   6.314   0.833 -0.3730 -0.4743  0.0558
  121MOL    C3636276   6.816   6.282   0.737 -0.5106 -0.2133 -0.6969
  121MOL    C3736277   6.947   6.322   0.808 -0.0728 -0.3583  0.0767
  121MOL    C3836278   6.640   6.730   0.778 -0.0555  0.4923  0.4652
  121MOL    H3936279   6.555   6.557   0.857 -0.7604 -1.7449 -0.2635
  121MOL    H4036280   6.789   6.177   0.750  2.5963 -0.7568  1.9793
  121MOL    H4136281   6.828   6.302   0.630 -0.1117  0.4947 -0.5231
  121MOL    H4236282   7.030   6.283   0.750 -1.7199 -1.8190 -1.3595
  121MOL    H4336283   6.950   6.431   0.816  0.1876 -0.2478 -1.4493
  121MOL    H4436284   6.948   6.283   0.910  1.5797  0.1559  0.2618
  121MOL    H4536285   6.702   6.746   0.690  1.9984  0.6172  1.9032
  121MOL    H4636286   6.552   6.793   0.768  0.5882  1.0063 -2.2601
  121MOL    C4736287   6.720   6.763   0.904  0.7541  0.4785  0.0022
  121MOL    O4836288   6.789   6.887   0.865 -0.0875 -0.0099 -0.3898
  121MOL    C4936289   6.911   6.878   0.806  0.1221 -0.0234 -0.6878
  121MOL    O5036290   6.967   6.771   0.787  0.0553 -0.5757 -0.2782
  121MOL    C5136291   6.968   7.015   0.758  0.6137 -0.1385 -0.0607
  121MOL    C5236292   7.064   7.009   0.639  0.1561 -0.1936 -0.0516
  121MOL    C5336293   6.648   6.781   1.040  0.5570  0.5869 -0.0112
  121MOL    H5436294   6.793   6.682   0.914  0.1426 -0.5436 -3.1743
  121MOL    H5536295   6.892   7.090   0.738 -0.3322 -0.9627  0.4204
  121MOL    H5636296   7.032   7.054   0.838  1.1473 -3.5180  1.2340
  121MOL    H5736297   7.125   6.920   0.655 -0.1526 -0.8861 -2.5388
  121MOL    H5836298   7.003   6.995   0.549 -1.9119 -1.5821  1.5013
  121MOL    H5936299   7.119   7.101   0.623  1.6566 -0.3841  3.4515
  121MOL    H6036300   6.693   6.868   1.088 -0.6151  0.7080  0.8961
  121MOL    H6136301   6.544   6.799   1.014  0.9023  0.9301 -1.1976
  121MOL    C6236302   6.661   6.657   1.136  0.7451 -0.2593  0.3683
  121MOL    O6336303   6.802   6.633   1.173  0.2190  0.1082 -0.2351
  121MOL    C6436304   6.861   6.517   1.136  0.2729  0.3407  0.1369
  121MOL    O6536305   6.799   6.431   1.080 -0.6526  0.5098 -0.1760
  121MOL    C6636306   7.011   6.515   1.154 -0.1694  0.7246  0.0495
  121MOL    C6736307   7.076   6.624   1.073  0.2103 -0.5008 -0.9746
  121MOL    C6836308   6.594   6.680   1.268  0.4818  0.3636 -0.0964
  121MOL    H6936309   6.601   6.575   1.096 -1.5464  1.2468  0.6023
  121MOL    H7036310   7.038   6.520   1.260 -2.1669  0.7326  0.5878
  121MOL    H7136311   7.060   6.424   1.118  1.3248  1.0015  1.3448
  121MOL    H7236312   7.018   6.716   1.078 -1.2480 -1.3086 -2.4104
  121MOL    H7336313   7.178   6.641   1.107  0.1493 -0.0698 -1.0094
  121MOL    H7436314   7.071   6.603   0.966 -0.2881  1.7343 -1.4218
  121MOL    H7536315   6.658   6.753   1.317 -0.2361  0.6497  0.4096
  121MOL    H7636316   6.493   6.711   1.239  0.8659 -0.1185 -2.0540
  121MOL    C7736317   6.588   6.561   1.364 -0.0025  0.0420  0.1557
  121MOL    O7836318   6.512   6.609   1.479  0.4028 -0.2270 -0.4722
  121MOL    C7936319   6.581   6.626   1.593  0.2252 -0.5839  1.0688
  121MOL    O8036320   6.703   6.607   1.614  0.1048 -0.4410  0.2144
  121MOL    C8136321   6.490   6.668   1.701 -0.1601 -0.6298 -0.8325
  121MOL    C8236322   6.390   6.769   1.657  0.2942  0.1164 -0.6470
  121MOL    C8336323   6.515   6.433   1.324  0.1052  0.6956 -0.3256
  121MOL    H8436324   6.686   6.521   1.392 -0.2909  0.3473  1.6298
  121MOL    H8536325   6.433   6.577   1.720  0.6877 -1.1942 -0.9179
  121MOL    H8636326   6.550   6.696   1.787  4.2508 -1.2623 -3.5410
  121MOL    H8736327   6.438   6.856   1.612  0.4558 -0.0910 -0.8821
  121MOL    H8836328   6.311   6.728   1.595  0.6342  0.6567 -1.4439
  121MOL    H8936329   6.337   6.786   1.750 -0.7646 -0.8469 -1.0621
  121MOL    H9036330   6.433   6.413   1.393 -1.5281 -0.6331 -2.5925
  121MOL    H9136331   6.462   6.438   1.229  0.5359  0.4766 -0.5797
  121MOL    C9236332   6.613   6.314   1.319  0.1164 -0.0007 -0.4894
  121MOL    O9336333   6.674   6.286   1.446 -0.0173 -0.0924  0.1811
  121MOL    C9436334   6.813   6.263   1.450 -0.1195 -0.3770 -0.4224
  121MOL    O9536335   6.895   6.265   1.361  0.2908  0.4022  0.0624
  121MOL    C9636336   6.859   6.246   1.597 -0.0557  0.2762 -0.4867
  121MOL    C9736337   6.785   6.135   1.670  0.4289  0.1164  0.4433
  121MOL    C9836338   6.527   6.189   1.282 -0.6963 -0.2085  0.1591
  121MOL    H9936339   6.693   6.334   1.248  0.0849  0.1559 -0.4797
  121MOL   H10036340   6.968   6.238   1.606 -0.1954 -0.0345  1.0532
  121MOL   H10136341   6.845   6.348   1.634 -0.8019 -0.1441  0.4027
  121MOL   H10236342   6.823   6.113   1.770 -1.4568  0.7948  1.3400
  121MOL   H10336343   6.678   6.156   1.667 -0.0297 -1.6833  2.4852
  121MOL   H10436344   6.797   6.036   1.625  0.3929 -0.0928  0.8885
  121MOL   H10536345   6.475   6.164   1.375  3.2776  1.1311  2.8950
  121MOL   H10636346   6.447   6.217   1.215  0.5074 -0.7245 -1.5391
  121MOL   C10736347   6.614   6.069   1.225 -0.0836 -0.6310  0.8347
  121MOL   O10836348   6.550   5.945   1.235 -0.1960  0.6703 -0.1556
  121MOL   C10936349   6.569   5.860   1.337 -0.0952 -0.6047  0.2023
  121MOL   O11036350   6.627   5.891   1.444  0.1265  0.4214  0.0653
  121MOL   C11136351   6.535   5.714   1.307 -0.7503  0.0115  0.0493
  121MOL   C11236352   6.389   5.702   1.288 -0.1015 -0.2477 -0.0983
  121MOL   C11336353   6.660   6.093   1.080 -0.7075 -0.5605 -0.4303
  121MOL   H11436354   6.705   6.057   1.284  1.4471 -2.2580 -1.7685
  121MOL   H11536355   6.587   5.672   1.221  0.5452 -2.5854  2.0262
  121MOL   H11636356   6.561   5.651   1.391  0.1944  0.7688  0.3320
  121MOL   H11736357   6.348   5.602   1.293  1.1944 -0.7789 -0.0005
  121MOL   H11836358   6.336   5.767   1.358  0.7518 -0.9353  1.2146
  121MOL   H11936359   6.360   5.750   1.194  2.2492  1.3401 -0.0555
  121MOL   H12036360   6.574   6.070   1.018 -0.3373 -0.5967 -0.9412
  121MOL   H12136361   6.677   6.199   1.061  1.8876 -0.1640  3.5320
  121MOL   C12236362   6.780   6.003   1.037  0.6932  0.1386  0.1180
  121MOL   O12336363   6.757   5.994   0.894  0.5519 -0.4842 -0.6041
  121MOL   C12436364   6.766   5.878   0.833  0.0699 -0.1618  0.0177
  121MOL   O12536365   6.801   5.774   0.883 -0.0957  0.9903  0.3294
  121MOL   C12636366   6.741   5.886   0.682  0.6547  0.4737  0.0397
  121MOL   C12736367   6.769   5.749   0.616  0.0893 -0.4584 -0.2883
  121MOL   C12836368   6.916   6.073   1.077  0.0838 -0.5462  1.2360
  121MOL   H12936369   6.768   5.901   1.074 -1.8987 -0.3058 -1.7941
  121MOL   H13036370   6.634   5.905   0.669  0.2911  0.0307  2.1905
  121MOL   H13136371   6.791   5.971   0.635  0.1758  1.5569  1.4295
  121MOL   H13236372   6.875   5.729   0.631  0.2466  0.3922 -0.2795
  121MOL   H13336373   6.706   5.672   0.663 -1.3604  0.6655 -0.3410
  121MOL   H13436374   6.754   5.752   0.508 -0.1815 -0.0011 -0.2380
  121MOL   H13536375   6.969   6.076   0.982  1.2946 -0.3326  1.9041
  121MOL   H13636376   6.913   6.180   1.098 -2.0074 -0.3019 -0.2211
  121MOL   C13736377   6.997   6.004   1.186  0.6020 -0.0548  0.0796
  121MOL   O13836378   7.033   5.872   1.139  0.0312 -0.3347 -0.1669
  121MOL   C13936379   6.983   5.751   1.182 -0.0391 -0.5294  0.2596
  121MOL   O14036380   6.892   5.734   1.259  0.1556 -0.4927 -1.0954
  121MOL   C14136381   7.043   5.627   1.112 -0.7899  0.1166 -0.4363
  121MOL   C14236382   7.203   5.627   1.138 -0.5170  0.7646  0.2214
  121MOL   C14336383   7.121   6.082   1.208 -0.2189  0.2716  1.0294
  121MOL   H14436384   6.930   6.017   1.271 -0.3316  2.2887 -1.0044
  121MOL   H14536385   6.988   5.539   1.144  1.9117 -1.1144  0.9589
  121MOL   H14636386   7.018   5.642   1.007  1.0610 -0.5321 -0.9842
  121MOL   H14736387   7.258   5.611   1.046 -0.2944 -1.5558  0.7160
  121MOL   H14836388   7.238   5.722   1.177 -0.4004  1.1866 -0.9165
  121MOL   H14936389   7.234   5.553   1.213  0.3853 -1.1830 -2.0113
  121MOL   H15036390   7.189   6.072   1.124 -0.2401 -1.0134  1.1525
  121MOL   H15136391   7.090   6.187   1.209  0.9318  0.6187  0.6852
  121MOL   C15236392   7.202   6.050   1.338  0.7665  0.1832 -0.2818
  121MOL   O15336393   7.334   6.094   1.328  0.1824 -0.2670  0.2845
  121MOL   C15436394   7.432   6.012   1.301 -0.4709 -0.7551  0.8909
  121MOL   O15536395   7.423   5.895   1.268 -0.0341 -0.0041  0.2291
  121MOL   C15636396   7.569   6.070   1.322 -0.5810 -0.4210  0.0092
  121MOL   C15736397   7.672   5.961   1.317  0.5775  0.1428 -0.0102
  121MOL   C15836398   7.138   6.105   1.460 -0.2960  0.6628  0.1135
  121MOL   H15936399   7.208   5.942   1.350 -0.6932 -0.1071 -1.8295
  121MOL   H16036400   7.587   6.131   1.233 -0.3684 -1.3004 -0.5574
  121MOL   H16136401   7.574   6.127   1.415 -0.7824  0.0294 -0.2522
  121MOL   H16236402   7.772   6.003   1.327  1.2774 -0.0147 -5.0701
  121MOL   H16336403   7.660   5.890   1.398  0.4039 -0.7918 -0.8525
  121MOL   H16436404   7.680   5.919   1.217 -1.2741 -0.2701  0.0091
  121MOL   H16536405   7.126   6.213   1.451 -2.2746  0.3723 -1.2038
  121MOL   H16636406   7.038   6.061   1.469 -1.3229  3.1774  1.5392
  121MOL   C16736407   7.230   6.086   1.588  0.4487  0.7435  0.2229
  121MOL   O16836408   7.275   6.206   1.641  0.0303 -0.1107 -0.1553
  121MOL   C16936409   7.405   6.218   1.673 -0.2601  0.3467 -0.5207
  121MOL   O17036410   7.496   6.139   1.643 -0.1127  0.2811  0.0442
  121MOL   C17136411   7.439   6.336   1.760 -0.0455 -0.8486 -0.0195
  121MOL   C17236412   7.432   6.469   1.696 -0.7008  0.3541 -0.0438
  121MOL   C17336413   7.159   6.015   1.703 -0.3604 -0.3821  0.2705
  121MOL   H17436414   7.310   6.017   1.560  1.8838  2.8871 -1.1140
  121MOL   H17536415   7.371   6.332   1.844 -0.4536 -2.7432 -0.4233
  121MOL   H17636416   7.539   6.328   1.803  0.7058 -0.0959 -1.5505
  121MOL   H17736417   7.325   6.487   1.685 -0.8668 -0.7874 -0.3660
  121MOL   H17836418   7.471   6.547   1.762  1.7259 -0.2064 -0.7651
  121MOL   H17936419   7.484   6.468   1.600  1.7924 -1.8322  1.2671
  121MOL   H18036420   7.091   6.092   1.739 -0.3749 -0.5786  0.6681
  121MOL   H18136421   7.098   5.933   1.663 -0.3576 -0.2997  0.0946
  121MOL   C18236422   7.247   5.980   1.822 -0.2817  0.0941 -0.1826
  121MOL   O18336423   7.157   5.955   1.933  0.0360 -0.5997 -0.3930
  121MOL   C18436424   7.168   6.039   2.041 -0.0732  0.5127 -0.6158
  121MOL   O18536425   7.255   6.124   2.054  0.1387  0.2246  1.0044
  121MOL   C18636426   7.069   6.025   2.152  0.1259  0.8202  0.4392
  121MOL   C18736427   6.926   6.002   2.098 -0.2182  0.8962 -0.0463
  121MOL   C18836428   7.324   5.841   1.799 -0.8250  0.2417 -0.0209
  121MOL   H18936429   7.316   6.061   1.847 -2.0219  1.2699  0.9375
  121MOL   H19036430   7.092   5.936   2.212  0.8132 -0.6208 -1.8743
  121MOL   H19136431   7.071   6.107   2.223  0.1110  1.5495 -0.3999
  121MOL   H19236432   6.875   5.933   2.166  1.3970  0.4837  0.7780
  121MOL   H19336433   6.864   6.091   2.092 -0.4515  0.9761  2.8081
  121MOL   H19436434   6.931   5.967   1.995  1.1696  0.8686  0.0173
  121MOL   H19536435   7.281   5.777   1.722  0.3190  0.9579 -1.2540
  121MOL   H19636436   7.425   5.866   1.768 -0.7046  1.4903  1.3135
  121MOL   C19736437   7.351   5.742   1.924 -0.2884 -0.1170 -0.3602
  121MOL   O19836438   7.246   5.643   1.934  0.7608 -0.1513 -0.7653
  121MOL   C19936439   7.174   5.637   2.053  0.3138 -0.0759  0.7838
  121MOL   O20036440   7.190   5.715   2.147 -0.0095  0.9368 -0.2639
  121MOL   C20136441   7.058   5.541   2.042  0.0964  0.1007 -0.0755
  121MOL   C20236442   6.945   5.570   2.140  0.3787  0.0324 -0.1660
  121MOL   C20336443   7.473   5.656   1.922 -0.1335 -0.0972 -0.3663
  121MOL   H20436444   7.359   5.797   2.018  0.1196 -1.0439  0.1585
  121MOL   H20536445   7.032   5.552   1.937 -2.4184  1.5130  0.6625
  121MOL   H20636446   7.100   5.441   2.053 -0.0261 -0.0708 -1.1763
  121MOL   H20736447   6.916   5.675   2.134 -0.1518  0.0066  1.6011
  121MOL   H20836448   6.863   5.500   2.125 -0.1741  0.5767  0.3047
  121MOL   H20936449   6.977   5.560   2.243  1.4158  1.6287 -0.3006
  121MOL   H21036450   7.458   5.580   1.999  5.1692  0.0146  0.9320
  121MOL   H21136451   7.482   5.607   1.825  1.3118 -0.6112  0.0189
  121MOL   C21236452   7.597   5.741   1.958 -0.2715  0.6936 -0.6077
  121MOL   O21336453   7.577   5.786   2.092  0.5372 -0.8405  0.2668
  121MOL   C21436454   7.627   5.899   2.134  0.6683  0.0503 -0.1127
  121MOL   O21536455   7.702   5.971   2.075 -0.2822 -0.1964  0.5627
  121MOL   C21636456   7.580   5.935   2.278 -0.0005  0.1639 -0.0548
  121MOL   C21736457   7.461   5.857   2.337 -0.1016 -0.3448 -0.2126
  121MOL   C21836458   7.722   5.644   1.974  0.2543  0.5416 -0.9320
  121MOL   H21936459   7.620   5.824   1.891  2.4935  1.0091  0.6533
  121MOL   H22036460   7.672   5.926   2.336  0.6987 -0.2783 -1.2258
  121MOL   H22136461   7.544   6.038   2.280  0.5208  0.3284  1.5924
  121MOL   H22236462   7.485   5.751   2.328  0.8820 -0.1856  0.4667
  121MOL   H22336463   7.466   5.872   2.445  0.4244  0.5019 -0.3540
  121MOL   H22436464   7.359   5.873   2.301  0.0058 -0.5720 -0.6164
  121MOL   H22536465   7.810   5.694   2.014 -0.0571  2.0306 -2.0613
  121MOL   H22636466   7.706   5.567   2.049 -1.8582  1.1811 -0.6833
  121MOL   C22736467   7.771   5.593   1.830  0.0257 -0.9534 -0.4151
  121MOL   O22836468   7.833   5.707   1.767 -0.1280 -0.0760 -0.1868
  121MOL   C22936469   7.808   5.736   1.636 -0.3558  0.0273 -0.0893
  121MOL   O23036470   7.740   5.665   1.565  0.1942  0.0572  0.2234
  121MOL   C23136471   7.870   5.872   1.585 -0.3457  0.1864  0.0410
  121MOL   C23236472   7.798   5.994   1.635  0.5470  0.0389 -0.6816
  121MOL   C23336473   7.868   5.472   1.824  0.1861  0.4106 -0.6929
  121MOL   H23436474   7.683   5.554   1.779 -0.2324 -0.6385 -0.2158
  121MOL   H23536475   0.030   5.864   1.614 -0.9365 -0.3413  2.1182
  121MOL   H23636476   7.861   5.866   1.477 -1.5544  0.3319  0.1249
  121MOL   H23736477   7.691   5.980   1.620  0.7595 -1.4426 -0.9300
  121MOL   H23836478   7.808   5.995   1.744  0.6857 -0.5136 -0.6884
  121MOL   H23936479   7.826   6.087   1.585  1.3827  0.0921 -0.1177
  121MOL   H24036480   7.907   5.447   1.726 -2.4071  0.9260 -1.9019
  121MOL   H24136481   0.004   5.511   1.885 -1.2524  2.3830  0.0242
  121MOL   C24236482   7.812   5.341   1.885  0.0415 -0.2165 -0.7116
  121MOL   O24336483   7.728   5.287   1.779 -0.5918 -0.0479  0.1776
  121MOL   C24436484   7.593   5.262   1.801 -0.0201  0.1732  0.3218
  121MOL   O24536485   7.537   5.264   1.913 -0.1666 -0.2558 -0.1686
  121MOL   C24636486   7.505   5.225   1.679  0.3713  0.0229 -0.4157
  121MOL   C24736487   7.421   5.093   1.701 -0.0601  0.0677  0.1166
  121MOL   C24836488   7.922   5.239   1.915 -0.6537 -0.0920  0.2239
  121MOL   H24936489   7.762   5.362   1.980  2.7428 -0.9872  0.9258
  121MOL   H25036490   7.448   5.311   1.644 -1.6290 -0.9825  0.3242
  121MOL   H25136491   7.577   5.205   1.599  0.9189 -0.3308  0.1570
  121MOL   H25236492   7.388   5.036   1.615 -0.2712 -1.8448  1.4289
  121MOL   H25336493   7.480   5.030   1.768  0.0268 -0.9159 -0.8869
  121MOL   H25436494   7.331   5.123   1.755 -0.1976  0.7567 -0.4775
  121MOL   H25536495   0.045   5.217   1.833  1.6555 -0.5298  2.2264
  121MOL   H25636496   0.043   5.289   1.986 -0.8290 -0.1093  0.3992
  121MOL   C25736497   7.880   5.096   1.968 -0.1880  0.1966  0.2663
  121MOL   O25836498   0.051   5.006   1.975  0.6442  0.5052  0.5882
  121MOL   C25936499   0.040   4.878   1.937 -0.6443 -0.1708  1.0268
  121MOL   O26036500   7.876   4.828   1.898  0.1858 -0.3510 -0.1994
  121MOL   C26136501   0.171   4.803   1.942  0.1706  0.1800 -0.3755
  121MOL   C26236502   0.201   4.704   1.829  0.0077  0.3122  0.0496
  121MOL   C26336503   7.824   5.113   2.111 -0.2906 -0.5755  0.2803
  121MOL   H26436504   7.808   5.050   1.900 -0.6137  0.8466  0.2677
  121MOL   H26536505   0.243   4.881   1.914  2.1274 -1.5963 -0.3929
  121MOL   H26636506   0.192   4.774   2.045 -1.9855 -2.0980 -0.5372
  121MOL   H26736507   0.154   4.608   1.848  0.1361  0.2360 -0.0179
  121MOL   H26836508   0.152   4.735   1.737  0.6858 -2.2940 -1.2281
  121MOL   H26936509   0.308   4.687   1.815  0.0189 -0.3618  0.8641
  121MOL   H27036510   7.911   5.130   2.174 -2.1501 -0.4525  2.9120
  121MOL   H27136511   7.763   5.201   2.134  0.8591  0.1205  0.6880
  121MOL   C27236512   7.745   4.990   2.154  0.1071 -0.4472  0.0661
  121MOL   O27336513   7.731   4.998   2.299  0.2198  0.8118  0.5346
  121MOL   C27436514   7.820   4.944   2.388  0.0950 -0.0650 -0.4190
  121MOL   O27536515   7.926   4.888   2.353 -0.1887  0.2808 -0.0508
  121MOL   C27636516   7.765   4.948   2.532  0.3607 -0.1520  0.7166
  121MOL   C27736517   7.827   4.856   2.638  0.4700 -0.4093  0.5498
  121MOL   C27836518   7.608   5.000   2.091  0.4410  0.0499  0.0680
  121MOL   H27936519   7.788   4.893   2.129  0.0668 -0.4161 -0.1219
  121MOL   H28036520   7.772   5.053   2.562 -0.8290  0.5944 -1.5046
  121MOL   H28136521   7.661   4.917   2.524  0.8786 -1.7830  0.1740
  121MOL   H28236522   7.764   4.832   2.724  0.5713 -0.5018  0.5969
  121MOL   H28336523   7.860   4.766   2.587 -0.2622 -0.8334  0.8150
  121MOL   H28436524   7.925   4.896   2.662  1.6520 -2.9535  0.1086
  121MOL   H28536525   7.547   5.078   2.136  0.4337 -0.0798  0.2886
  121MOL   H28636526   7.618   5.027   1.987 -1.0938  0.1181 -0.0749
  121MOL   C28736527   7.525   4.875   2.096 -0.1291  0.4422  0.1583
  121MOL   O28836528   7.395   4.904   2.055  0.3844 -0.4278  0.0526
  121MOL   C28936529   7.288   4.882   2.145  0.0576  0.9080  0.1288
  121MOL   O29036530   7.299   4.855   2.263  0.0457 -0.1155 -0.4767
  121MOL   C29136531   7.151   4.883   2.072 -0.6729 -0.2395 -0.1136
  121MOL   C29236532   7.131   5.003   1.979 -0.0774  0.2489 -0.3155
  121MOL   C29336533   7.575   4.767   1.996 -0.0603  1.0512  0.2989
  121MOL   H29436534   7.522   4.843   2.200 -0.1751 -0.0116  0.0201
  121MOL   H29536535   7.149   4.792   2.012  0.9216 -0.6762  0.4712
  121MOL   H29636536   7.074   4.862   2.147 -0.2703 -0.3366  0.2705
  121MOL   H29736537   7.060   5.066   2.034 -2.5265 -2.5632 -0.1686
  121MOL   H29836538   7.224   5.055   1.954  0.0389  0.2312  0.0817
  121MOL   H29936539   7.081   4.993   1.883  0.0583  2.4508 -0.6529
  121MOL   H30036540   7.673   4.726   2.022  0.4351 -0.7161 -3.8881
  121MOL   H30136541   7.519   4.674   1.990  1.5855  0.1212 -1.1032
  121MOL   H30236542   7.586   4.810   1.897  0.7603 -0.5906 -0.3519
  122MOL     C136543   4.296   1.959   5.853 -0.1277 -0.4065  0.2926
  122MOL     O236544   4.430   1.973   5.907 -0.7022 -0.2341 -0.0893
  122MOL     C336545   4.461   1.984   6.035  1.1291 -0.1556  0.5778
  122MOL     O436546   4.385   1.985   6.130 -0.3171 -0.2922 -0.2806
  122MOL     C536547   4.610   1.985   6.061  0.5018 -0.4298  0.3793
  122MOL     C636548   4.656   1.945   6.198 -0.4577  0.1293  0.0492
  122MOL     C736549   4.216   2.094   5.878 -0.1521 -0.2560  0.3337
  122MOL     H836550   4.244   1.873   5.895 -0.7522  1.2101  2.9948
  122MOL     H936551   4.678   1.938   5.990  0.9411  1.8518 -0.7862
  122MOL    H1036552   4.629   2.088   6.029  1.1418 -0.7455 -0.2893
  122MOL    H1136553   4.751   1.893   6.210 -0.3278  0.6014  1.1587
  122MOL    H1236554   4.668   2.034   6.261  0.3177 -1.0058  1.5445
  122MOL    H1336555   4.587   1.879   6.251 -0.9482  0.7291  0.1624
  122MOL    H1436556   4.190   2.102   5.984 -0.2382  1.3606  0.2026
  122MOL    H1536557   4.279   2.183   5.871 -3.0283  1.9677  1.6640
  122MOL    H1636558   4.291   1.937   5.747 -1.5370 -2.4961  0.7536
  122MOL    C1736559   4.096   2.110   5.774 -0.2285  0.0449 -0.4500
  122MOL    O1836560   3.989   2.022   5.805  0.6272 -0.1740  0.2694
  122MOL    C1936561   3.962   1.907   5.739 -0.4687  0.2287  0.4183
  122MOL    O2036562   4.015   1.874   5.636  0.4266  0.1407  0.7497
  122MOL    C2136563   3.857   1.812   5.806 -0.0088 -1.1957  0.0730
  122MOL    C2236564   3.716   1.867   5.790  0.1003 -0.4603  0.6167
  122MOL    C2336565   4.029   2.250   5.786  0.4038 -0.0406  0.5592
  122MOL    H2436566   4.136   2.104   5.673 -0.7512 -1.7460 -0.5665
  122MOL    H2536567   3.843   1.708   5.778  1.7706 -1.0431 -1.4547
  122MOL    H2636568   3.880   1.818   5.913  0.3313 -0.6679 -0.0243
  122MOL    H2736569   3.694   1.844   5.686  1.7979 -0.4070  0.2378
  122MOL    H2836570   3.644   1.806   5.845 -0.7664 -2.2140 -2.3430
  122MOL    H2936571   3.705   1.973   5.812  0.1303 -0.5240  0.9378
  122MOL    H3036572   3.973   2.259   5.879 -0.9885 -2.3931 -0.0129
  122MOL    H3136573   4.104   2.328   5.791  0.8055 -0.4333  0.7439
  122MOL    C3236574   3.942   2.299   5.668 -0.0585 -0.4228 -0.2226
  122MOL    O3336575   4.003   2.281   5.544  0.3136 -0.2482 -0.6957
  122MOL    C3436576   4.098   2.362   5.501 -0.1633  0.0461 -0.2404
  122MOL    O3536577   4.140   2.466   5.554 -0.5650  0.3400  0.1753
  122MOL    C3636578   4.154   2.305   5.374 -0.2195  0.0835  0.4190
  122MOL    C3736579   4.083   2.364   5.249 -0.1601 -0.2160 -0.5162
  122MOL    C3836580   3.801   2.233   5.659 -0.3094 -0.2286  0.2429
  122MOL    H3936581   3.934   2.408   5.669  3.0523 -0.1067 -2.3458
  122MOL    H4036582   4.258   2.336   5.363 -0.2076 -0.6117 -1.7694
  122MOL    H4136583   4.133   2.198   5.381  2.7075 -0.4919  1.1317
  122MOL    H4236584   4.064   2.299   5.164 -2.3333  1.0832 -1.0603
  122MOL    H4336585   3.991   2.413   5.280 -0.3383 -0.5223 -0.5584
  122MOL    H4436586   4.147   2.439   5.203 -0.5845 -0.2865 -1.2315
  122MOL    H4536587   3.818   2.125   5.659  3.2757  0.2782 -0.2618
  122MOL    H4636588   3.731   2.242   5.742  0.2544 -3.5897  1.1935
  122MOL    C4736589   3.731   2.264   5.524 -0.0719  0.1735 -0.8478
  122MOL    O4836590   3.612   2.183   5.502 -0.4728 -0.5591 -0.4601
  122MOL    C4936591   3.627   2.060   5.460  0.4245 -0.0742 -0.7875
  122MOL    O5036592   3.731   1.996   5.467  0.6929 -0.2538 -0.2269
  122MOL    C5136593   3.499   2.001   5.401  1.3240 -0.0845  0.0967
  122MOL    C5236594   3.426   1.920   5.502 -0.3939 -0.0081 -0.2185
  122MOL    C5336595   3.697   2.409   5.489 -0.3586  0.1298 -1.3513
  122MOL    H5436596   3.788   2.240   5.434  2.6062  0.5484  0.6878
  122MOL    H5536597   3.461   2.089   5.350 -0.6427 -1.3517 -0.6499
  122MOL    H5636598   3.527   1.940   5.315 -0.1565 -0.5354 -0.0687
  122MOL    H5736599   3.372   1.969   5.583  0.0828  0.0913  0.0409
  122MOL    H5836600   3.359   1.852   5.450  0.8447 -1.2433 -0.2400
  122MOL    H5936601   3.498   1.849   5.543 -0.1786 -1.3980 -2.9029
  122MOL    H6036602   3.784   2.473   5.503  0.4784 -1.0794 -0.9160
  122MOL    H6136603   3.680   2.411   5.382  1.7837  1.3166 -1.6890
  122MOL    C6236604   3.570   2.472   5.555 -0.2032  0.2868 -0.6549
  122MOL    O6336605   3.587   2.497   5.694 -0.9394 -0.3159 -0.4333
  122MOL    C6436606   3.505   2.444   5.790 -0.0962 -0.4849 -0.3912
  122MOL    O6536607   3.401   2.388   5.771  0.1534 -0.0487  0.0074
  122MOL    C6636608   3.554   2.469   5.934  0.1547  0.3523  0.4304
  122MOL    C6736609   3.700   2.425   5.961  0.1249 -0.4599  0.3436
  122MOL    C6836610   3.500   2.593   5.494 -0.3062 -0.0852  0.1284
  122MOL    H6936611   3.493   2.396   5.542  0.5285 -0.1245 -2.7977
  122MOL    H7036612   3.542   2.573   5.965  1.0151  0.0863  1.6945
  122MOL    H7136613   3.495   2.410   6.003  0.2838  1.6811  1.7130
  122MOL    H7236614   3.745   2.471   6.049 -0.4843  1.3461 -0.2554
  122MOL    H7336615   3.706   2.317   5.975  0.0913 -0.7998 -2.0613
  122MOL    H7436616   3.765   2.453   5.878 -1.3680 -0.0761 -0.7231
  122MOL    H7536617   3.416   2.613   5.561  0.5097  0.8984  0.8872
  122MOL    H7636618   3.563   2.680   5.512  0.4224 -0.4127 -0.8271
  122MOL    C7736619   3.461   2.577   5.344  0.7714 -0.0649 -0.2002
  122MOL    O7836620   3.356   2.488   5.315 -0.1022 -0.2267  0.1768
  122MOL    C7936621   3.386   2.361   5.274 -0.2921 -0.1539 -0.4354
  122MOL    O8036622   3.491   2.326   5.223  0.1271 -0.0516  0.5670
  122MOL    C8136623   3.262   2.285   5.267  0.0945 -1.1170  0.3742
  122MOL    C8236624   3.125   2.354   5.247 -0.0662  0.9836 -0.0245
  122MOL    C8336625   3.400   2.706   5.285 -0.2724  0.1340 -0.8164
  122MOL    H8436626   3.544   2.561   5.275  0.2371  1.7454 -1.3121
  122MOL    H8536627   3.282   2.219   5.182 -0.2287  0.3432 -0.8638
  122MOL    H8636628   3.256   2.221   5.355  2.4498 -2.0875 -0.1352
  122MOL    H8736629   3.134   2.430   5.169  1.6889 -0.1988 -1.0098
  122MOL    H8836630   3.044   2.288   5.213  1.9572 -1.1107 -0.9113
  122MOL    H8936631   3.094   2.409   5.336  0.8366  0.1531  0.8050
  122MOL    H9036632   3.295   2.711   5.312  0.0551  2.0214  0.1665
  122MOL    H9136633   3.458   2.787   5.330  0.8907  0.3579 -2.6578
  122MOL    C9236634   3.399   2.719   5.130  0.3493  0.3024  0.0526
  122MOL    O9336635   3.346   2.843   5.086 -0.3045  0.1388 -0.4191
  122MOL    C9436636   3.213   2.858   5.057  0.0569 -0.1296 -0.1297
  122MOL    O9536637   3.127   2.771   5.059 -0.0064  0.5706 -0.6802
  122MOL    C9636638   3.194   2.996   5.006  0.5940 -0.2895 -1.0191
  122MOL    C9736639   3.244   3.101   5.109 -0.6657  0.4427  0.0802
  122MOL    C9836640   3.529   2.722   5.055 -0.2659  0.2113 -0.0659
  122MOL    H9936641   3.340   2.639   5.086 -0.0817  1.6718 -1.9370
  122MOL   H10036642   3.244   3.007   4.910  1.8293 -1.0635 -0.4878
  122MOL   H10136643   3.086   3.007   4.993  0.4506  2.4199  1.8517
  122MOL   H10236644   3.199   3.194   5.077  0.4176  0.9460 -0.0000
  122MOL   H10336645   3.228   3.079   5.215  1.0651 -3.2264 -0.3145
  122MOL   H10436646   3.353   3.104   5.111 -0.6683  0.2694  2.6043
  122MOL   H10536647   3.550   2.617   5.072  1.7154  0.3944 -1.1911
  122MOL   H10636648   3.511   2.729   4.947  0.1873 -1.4339 -0.2562
  122MOL   C10736649   3.654   2.805   5.103 -0.2990  0.0846  0.0492
  122MOL   O10836650   3.713   2.738   5.220 -0.0813 -0.5726 -0.2697
  122MOL   C10936651   3.782   2.811   5.308 -0.4418  0.6092  0.3519
  122MOL   O11036652   3.790   2.937   5.305 -0.1096  0.8229 -0.3676
  122MOL   C11136653   3.867   2.733   5.404  0.1178  0.3810 -0.4658
  122MOL   C11236654   3.971   2.820   5.478  0.2920 -0.2565  0.0052
  122MOL   C11336655   3.760   2.819   4.988 -0.2925  0.5109  0.9251
  122MOL   H11436656   3.625   2.907   5.126  0.4428  0.7261 -1.7735
  122MOL   H11536657   3.797   2.707   5.484  1.2311  1.0483  0.7337
  122MOL   H11636658   3.903   2.636   5.369  0.1667  0.7829 -1.5454
  122MOL   H11736659   3.934   2.867   5.569 -0.7895 -3.1554  1.1390
  122MOL   H11836660   4.043   2.747   5.515 -0.2941 -1.1074 -0.4854
  122MOL   H11936661   4.020   2.892   5.413 -1.7911 -0.0955 -1.4380
  122MOL   H12036662   3.860   2.851   5.017 -0.0717  0.9297 -0.2623
  122MOL   H12136663   3.786   2.716   4.964 -0.7313  0.6925 -0.3775
  122MOL   C12236664   3.713   2.885   4.857  0.4497  0.5519  0.2007
  122MOL   O12336665   3.685   3.015   4.893 -0.5721 -0.0200  0.4382
  122MOL   C12436666   3.574   3.070   4.842 -0.2793 -0.1694 -0.0814
  122MOL   O12536667   3.496   3.009   4.767  0.1944  0.2197  0.0544
  122MOL   C12636668   3.565   3.212   4.882 -0.1803 -0.0243  0.1152
  122MOL   C12736669   3.426   3.275   4.869  0.3998  0.1345 -0.6867
  122MOL   C12836670   3.820   2.881   4.749  0.1783 -0.0052  0.5549
  122MOL   H12936671   3.624   2.830   4.825 -0.4243  1.8275  0.4193
  122MOL   H13036672   3.606   3.216   4.982  2.9543  0.3113 -1.1326
  122MOL   H13136673   3.631   3.267   4.815 -1.2198  1.7734  0.5352
  122MOL   H13236674   3.392   3.321   4.962  4.1518 -0.0857  0.9255
  122MOL   H13336675   3.423   3.358   4.799 -0.1798 -0.0554 -0.8846
  122MOL   H13436676   3.339   3.214   4.847  0.6265 -0.0667 -1.0348
  122MOL   H13536677   3.876   2.974   4.758 -1.1241  0.7945  0.4939
  122MOL   H13636678   3.890   2.800   4.769  1.1345  0.4603 -0.8627
  122MOL   C13736679   3.768   2.874   4.610  0.5880  0.1888  0.8523
  122MOL   O13836680   3.755   3.003   4.551 -0.4167 -0.4357  0.4292
  122MOL   C13936681   3.647   3.033   4.458 -0.4896  0.1551 -0.6377
  122MOL   O14036682   3.560   2.952   4.427  0.5950 -0.3962  0.5034
  122MOL   C14136683   3.653   3.177   4.414 -0.5121  0.1037 -0.6988
  122MOL   C14236684   3.646   3.286   4.519  0.1661  0.3585  1.0275
  122MOL   C14336685   3.852   2.783   4.515  0.2051 -0.4218  0.2610
  122MOL   H14436686   3.666   2.835   4.612 -0.1613  2.0364 -0.2881
  122MOL   H14536687   3.743   3.202   4.356 -1.3359  3.8799 -0.4733
  122MOL   H14636688   3.574   3.207   4.345  1.2689  1.5179 -2.1878
  122MOL   H14736689   3.699   3.253   4.608  0.8481 -0.1473  0.4402
  122MOL   H14836690   3.684   3.382   4.485  0.0981  0.9356  2.5484
  122MOL   H14936691   3.544   3.295   4.554 -0.3516  1.9010 -0.8032
  122MOL   H15036692   3.845   2.683   4.558  1.2468 -0.0957  1.2223
  122MOL   H15136693   3.800   2.787   4.420 -0.8648 -0.6012  0.8345
  122MOL   C15236694   3.995   2.826   4.497  0.1346  1.5384 -0.1604
  122MOL   O15336695   4.085   2.716   4.467  0.6268  0.7582 -0.0915
  122MOL   C15436696   4.111   2.619   4.568  0.2722  0.2437 -0.2107
  122MOL   O15536697   4.087   2.618   4.691  0.2419 -0.7924 -0.1143
  122MOL   C15636698   4.195   2.504   4.519  0.6359  0.0485 -0.2332
  122MOL   C15736699   4.333   2.554   4.467 -0.6171  0.1126 -0.0065
  122MOL   C15836700   4.020   2.929   4.386  0.4965 -0.0234 -0.0784
  122MOL   H15936701   4.022   2.869   4.593 -0.6230  2.4263 -0.3385
  122MOL   H16036702   4.206   2.426   4.594  3.2925 -0.4628 -1.1060
  122MOL   H16136703   4.143   2.454   4.438  1.3878  1.3733 -1.5653
  122MOL   H16236704   4.398   2.570   4.552 -2.2468  0.6990  1.1624
  122MOL   H16336705   4.367   2.468   4.408 -2.5408 -2.2856  2.2331
  122MOL   H16436706   4.330   2.641   4.401 -0.9210 -0.7565 -1.1671
  122MOL   H16536707   3.961   3.018   4.408 -1.8642 -1.7749  0.7998
  122MOL   H16636708   4.125   2.954   4.399  0.3486  1.4363 -1.5486
  122MOL   C16736709   4.010   2.872   4.238  0.5145 -0.7424 -0.1098
  122MOL   O16836710   3.873   2.892   4.199 -0.2731 -0.1722 -0.0381
  122MOL   C16936711   3.794   2.793   4.140 -0.2656 -0.5297 -0.5925
  122MOL   O17036712   3.825   2.673   4.122  0.1369 -0.3663 -0.1498
  122MOL   C17136713   3.656   2.848   4.110  0.8289  0.6640  0.7239
  122MOL   C17236714   3.646   2.960   4.012  0.0711  0.2213  0.1624
  122MOL   C17336715   4.105   2.955   4.144 -0.4801  0.1211 -0.2275
  122MOL   H17436716   4.043   2.769   4.241 -2.0162 -1.6111 -0.4614
  122MOL   H17536717   3.599   2.767   4.066 -1.0275  2.5565 -0.4336
  122MOL   H17636718   3.594   2.864   4.198  0.1014  0.3316  0.2769
  122MOL   H17736719   3.697   2.936   3.918 -0.4134 -2.8616  0.6433
  122MOL   H17836720   3.544   2.988   3.984  0.0832 -1.0862 -1.2987
  122MOL   H17936721   3.683   3.048   4.064 -0.9065  0.5809  0.2574
  122MOL   H18036722   4.064   3.055   4.140 -0.9912 -0.0774 -0.0169
  122MOL   H18136723   4.199   2.957   4.198 -1.2691  3.9964  1.0762
  122MOL   C18236724   4.138   2.890   4.010 -0.3595  0.0692  1.1183
  122MOL   O18336725   4.020   2.869   3.927  0.0408 -0.3752  0.2177
  122MOL   C18436726   4.007   2.755   3.846 -0.4563  0.2048 -0.5299
  122MOL   O18536727   4.095   2.670   3.826  0.3790 -0.6164 -0.0650
  122MOL   C18636728   3.875   2.756   3.768  0.2586  0.0228  0.5041
  122MOL   C18736729   3.853   2.884   3.687 -0.2649  0.0467  0.5283
  122MOL   C18836730   4.252   2.960   3.935 -0.6371 -0.3592 -0.7895
  122MOL   H18936731   4.174   2.788   4.026 -0.6606 -0.2837 -0.4135
  122MOL   H19036732   3.882   2.668   3.703 -3.2414  0.5294 -0.6637
  122MOL   H19136733   3.789   2.740   3.833  0.3762  1.4884  1.0352
  122MOL   H19236734   3.921   2.874   3.602  0.7465  0.6464  1.2640
  122MOL   H19336735   3.746   2.875   3.665 -0.1354 -0.0075 -0.0878
  122MOL   H19436736   3.864   2.981   3.735 -1.4488 -0.7839  2.5168
  122MOL   H19536737   4.215   3.038   3.870 -2.2364  1.0457  1.7196
  122MOL   H19636738   4.310   3.004   4.016  0.5908 -1.5345 -1.0024
  122MOL   C19736739   4.360   2.872   3.867  0.7620 -0.5666 -0.2235
  122MOL   O19836740   4.442   2.975   3.804  0.1460  0.0292 -0.1225
  122MOL   C19936741   4.411   3.027   3.688 -0.6035  0.0589  0.0889
  122MOL   O20036742   4.304   3.010   3.633  0.1869  0.0155  0.1212
  122MOL   C20136743   4.523   3.123   3.634 -0.1439 -0.3741 -0.5472
  122MOL   C20236744   4.506   3.186   3.491 -0.7584  0.0876  0.0527
  122MOL   C20336745   4.440   2.786   3.961  0.5717  0.4987  0.2309
  122MOL   H20436746   4.312   2.818   3.785  0.0823 -0.7840  0.3125
  122MOL   H20536747   4.527   3.201   3.710  0.4658 -3.2722  2.5462
  122MOL   H20636748   4.610   3.056   3.635 -0.5051 -0.9390  4.0316
  122MOL   H20736749   4.423   3.254   3.474 -0.5142  0.3691 -0.0057
  122MOL   H20836750   4.590   3.246   3.455 -0.4905 -0.8426 -0.9084
  122MOL   H20936751   4.491   3.117   3.407 -0.6228 -0.3955  0.4212
  122MOL   H21036752   4.493   2.856   4.025 -0.0003  0.1744  1.0651
  122MOL   H21136753   4.378   2.725   4.027  0.6691 -1.8284 -1.7615
  122MOL   C21236754   4.545   2.704   3.896  0.4868  0.4335 -0.6968
  122MOL   O21336755   4.602   2.629   4.001 -0.1103 -0.5248 -0.1824
  122MOL   C21436756   4.715   2.666   4.060  0.0924  0.2671 -0.6135
  122MOL   O21536757   4.776   2.762   4.031 -0.5054  0.0696 -0.5237
  122MOL   C21636758   4.761   2.583   4.179 -0.8297 -0.6346  0.3628
  122MOL   C21736759   4.639   2.547   4.272 -0.4908 -0.3864 -0.1897
  122MOL   C21836760   4.495   2.607   3.779  0.3439  0.0211 -0.9447
  122MOL   H21936761   4.620   2.772   3.856  0.5743  0.4124 -0.5658
  122MOL   H22036762   4.808   2.490   4.147 -0.6718 -1.3169  2.5009
  122MOL   H22136763   4.830   2.649   4.231  0.5968 -0.6157 -1.5105
  122MOL   H22236764   4.572   2.468   4.235 -1.6684 -0.4677  2.0256
  122MOL   H22336765   4.673   2.517   4.371 -0.0077  2.6541  0.5945
  122MOL   H22436766   4.570   2.631   4.275  0.1800  0.1298  3.0003
  122MOL   H22536767   4.523   2.506   3.808  3.3580  0.8025 -0.9748
  122MOL   H22636768   4.387   2.607   3.768  0.2545 -1.5777 -0.1734
  122MOL   C22736769   4.553   2.627   3.642  0.1463 -0.0124  0.0720
  122MOL   O22836770   4.697   2.627   3.651  0.0118 -0.0348 -0.1706
  122MOL   C22936771   4.776   2.716   3.571 -0.8107 -0.7614 -0.0311
  122MOL   O23036772   4.748   2.767   3.463  0.0827 -0.0263 -0.2048
  122MOL   C23136773   4.919   2.731   3.623  0.1879 -0.2553 -0.1173
  122MOL   C23236774   4.958   2.612   3.719 -0.3141  0.3260 -0.2388
  122MOL   C23336775   4.502   2.524   3.539 -0.3468  0.3901  0.5593
  122MOL   H23436776   4.525   2.727   3.608 -1.8299 -0.1750  1.1478
  122MOL   H23536777   4.985   2.733   3.536 -2.4079  4.1044 -2.1129
  122MOL   H23636778   4.933   2.826   3.675  0.0633 -0.2249 -0.1400
  122MOL   H23736779   5.056   2.635   3.759 -0.0914  0.7530 -1.0191
  122MOL   H23836780   4.895   2.596   3.807 -1.8642 -0.9409 -1.5366
  122MOL   H23936781   4.970   2.519   3.664 -1.1068  0.6895 -1.0368
  122MOL   H24036782   4.573   2.518   3.456 -0.3096 -0.8831  0.6677
  122MOL   H24136783   4.500   2.425   3.585 -0.1762  0.6040  1.0379
  122MOL   C24236784   4.364   2.560   3.485 -0.3688  0.4989  0.2846
  122MOL   O24336785   4.370   2.682   3.413 -0.0485 -0.9460  0.0198
  122MOL   C24436786   4.273   2.779   3.424 -0.2360 -0.0020  0.1407
  122MOL   O24536787   4.184   2.771   3.510  0.0508  0.1569 -0.6586
  122MOL   C24636788   4.281   2.892   3.318 -0.3030 -0.3624  0.2343
  122MOL   C24736789   4.210   2.855   3.190  0.0849  0.4541  0.9307
  122MOL   C24836790   4.296   2.443   3.399 -0.4519 -0.1184  0.0432
  122MOL   H24936791   4.311   2.577   3.579  0.4166 -0.0797  0.8449
  122MOL   H25036792   4.226   2.972   3.368 -0.1258 -1.6329  2.5258
  122MOL   H25136793   4.384   2.928   3.314  0.1361 -1.7408 -1.4357
  122MOL   H25236794   4.104   2.843   3.214 -0.3797 -2.3984 -2.2244
  122MOL   H25336795   4.211   2.935   3.117  1.6097  1.4450  2.0251
  122MOL   H25436796   4.246   2.763   3.144  0.9625  1.3571 -0.2018
  122MOL   H25536797   4.218   2.486   3.336  0.6333 -0.7831 -1.7775
  122MOL   H25636798   4.373   2.407   3.331 -0.6878  0.9009 -0.7789
  122MOL   C25736799   4.261   2.323   3.485 -0.0284  0.0498  0.0862
  122MOL   O25836800   4.139   2.356   3.551  0.1312 -0.6632  0.2220
  122MOL   C25936801   4.143   2.368   3.684 -0.0684  0.0974  0.2460
  122MOL   O26036802   4.241   2.360   3.756  0.1210  0.2824  0.0069
  122MOL   C26136803   4.004   2.373   3.744  0.2286  0.1009  0.1910
  122MOL   C26236804   3.941   2.232   3.765  0.2298  0.4230 -0.4935
  122MOL   C26336805   4.225   2.200   3.397  0.0466 -1.6856 -1.3344
  122MOL   H26436806   4.340   2.284   3.550  0.0919 -2.7156 -1.6330
  122MOL   H26536807   4.016   2.429   3.837  3.4610 -0.8553  0.4135
  122MOL   H26636808   3.941   2.440   3.686 -2.2334 -1.4938  0.9344
  122MOL   H26736809   3.938   2.169   3.676 -1.5231 -0.2808  0.0561
  122MOL   H26836810   4.004   2.180   3.837  0.5628  1.2735 -0.1608
  122MOL   H26936811   3.838   2.233   3.800 -0.3008  1.4286 -2.0193
  122MOL   H27036812   4.180   2.125   3.462 -0.7193  0.3061  0.5332
  122MOL   H27136813   4.148   2.234   3.327 -0.1192  0.4313 -0.1805
  122MOL   C27236814   4.337   2.130   3.325 -0.7391  0.0799 -0.7648
  122MOL   O27336815   4.437   2.092   3.416  0.3265 -0.3865 -0.3307
  122MOL   C27436816   4.552   2.151   3.420  0.5198  0.2627 -0.3977
  122MOL   O27536817   4.576   2.258   3.369  0.3231 -0.6678 -0.2459
  122MOL   C27636818   4.658   2.074   3.498  0.2743 -0.5626  0.0648
  122MOL   C27736819   4.687   1.929   3.447 -0.4609 -0.1211  0.1790
  122MOL   C27836820   4.288   1.998   3.254  0.6183  0.6111  0.2866
  122MOL   H27936821   4.377   2.191   3.244 -2.4394  0.5412 -1.2671
  122MOL   H28036822   4.748   2.133   3.514 -0.3049  1.1615 -2.5564
  122MOL   H28136823   4.630   2.057   3.602 -0.4337  0.1476  0.0018
  122MOL   H28236824   4.593   1.879   3.423  0.3761 -0.9160 -1.5447
  122MOL   H28336825   4.751   1.942   3.359  1.6821 -1.2139  1.5435
  122MOL   H28436826   4.732   1.859   3.517 -1.5589 -2.3795 -1.3230
  122MOL   H28536827   4.251   1.925   3.326  1.4786  0.5826  0.7157
  122MOL   H28636828   4.214   2.026   3.180  1.4692  1.1863 -0.3554
  122MOL   C28736829   4.404   1.926   3.171 -0.3676 -1.1630  0.6126
  122MOL   O28836830   4.351   1.794   3.133  0.0970 -0.2335 -0.0044
  122MOL   C28936831   4.349   1.696   3.221  0.2062  0.2108 -0.1348
  122MOL   O29036832   4.374   1.711   3.337  0.2744  0.2395 -0.1859
  122MOL   C29136833   4.312   1.553   3.164  0.9997  0.1412 -0.2391
  122MOL   C29236834   4.381   1.442   3.242  0.1034 -0.1621  0.1077
  122MOL   C29336835   4.443   2.005   3.042 -0.0845  0.0772 -0.2954
  122MOL   H29436836   4.492   1.907   3.232  1.1247  2.7142 -0.2202
  122MOL   H29536837   4.206   1.552   3.190  0.0500  2.3691 -3.6403
  122MOL   H29636838   4.315   1.556   3.055 -4.1227 -0.2284 -0.4904
  122MOL   H29736839   4.368   1.471   3.346 -0.5888  1.0429 -0.3116
  122MOL   H29836840   4.319   1.353   3.231  0.5471 -0.1541 -3.0594
  122MOL   H29936841   4.486   1.420   3.224 -0.0936 -2.4050  1.4745
  122MOL   H30036842   4.499   1.950   2.966 -0.3408 -0.4923 -0.0716
  122MOL   H30136843   4.356   2.038   2.986 -0.7433 -0.3656  0.4698
  122MOL   H30236844   4.499   2.097   3.061 -2.0481  1.0990  0.6492
  123MOL     C136845   6.854   3.351   6.234  0.3331 -0.0177  0.0001
  123MOL     O236846   6.769   3.388   6.342 -0.2340 -0.2876 -0.2485
  123MOL     C336847   6.645   3.370   6.347 -0.0873 -0.5761 -0.1290
  123MOL     O436848   6.574   3.302   6.270  0.2556 -0.1943 -0.3443
  123MOL     C536849   6.579   3.436   6.462 -0.6887  0.6909 -0.4697
  123MOL     C636850   6.626   3.375   6.592  0.9143  0.2835 -0.0612
  123MOL     C736851   6.999   3.402   6.266 -0.1260  0.1475  0.3363
  123MOL     H836852   6.821   3.397   6.141  0.5696  0.2286  0.0372
  123MOL     H936853   6.607   3.541   6.464 -1.1946  0.8638 -2.0541
  123MOL    H1036854   6.471   3.427   6.453 -0.6133 -0.9093  0.1272
  123MOL    H1136855   6.685   3.452   6.643  0.2913 -0.5250  1.9318
  123MOL    H1236856   6.545   3.343   6.657  2.1982 -2.7227  0.1061
  123MOL    H1336857   6.679   3.281   6.575  1.1813  0.5362 -0.6504
  123MOL    H1436858   6.983   3.509   6.278 -1.3750 -0.1871  1.7800
  123MOL    H1536859   7.031   3.350   6.356 -2.1278 -0.0827  0.9444
  123MOL    H1636860   6.863   3.242   6.231 -1.4937 -0.1560 -1.0388
  123MOL    C1736861   7.097   3.381   6.152 -0.2131  0.1888  0.3350
  123MOL    O1836862   7.043   3.459   6.042 -0.4237  0.3966  0.2885
  123MOL    C1936863   7.036   3.414   5.922  0.4999  0.1504 -0.0422
  123MOL    O2036864   7.047   3.302   5.879 -0.7638  0.5532  0.3492
  123MOL    C2136865   7.006   3.533   5.826  0.1610  0.1759  0.0594
  123MOL    C2236866   7.047   3.504   5.677 -0.1712 -0.2929 -0.1423
  123MOL    C2336867   7.251   3.415   6.181  0.1019 -0.8968 -0.2402
  123MOL    H2436868   7.088   3.278   6.117 -1.1372 -0.3379  2.0772
  123MOL    H2536869   6.902   3.565   5.832  1.0157  3.0239  0.5830
  123MOL    H2636870   7.069   3.620   5.848  3.1331 -2.3631  1.9687
  123MOL    H2736871   6.994   3.411   5.653 -1.8325  0.0863  1.9300
  123MOL    H2836872   7.022   3.581   5.604 -1.9073  0.9151  1.6700
  123MOL    H2936873   7.153   3.481   5.662 -0.3216 -0.6246 -0.7375
  123MOL    H3036874   7.323   3.403   6.100  0.4148 -0.1922 -0.0664
  123MOL    H3136875   7.259   3.522   6.199 -0.6375 -0.8875  0.0608
  123MOL    C3236876   7.310   3.346   6.313  0.7141 -0.4727  0.4477
  123MOL    O3336877   7.322   3.207   6.305  0.1981  0.2911 -0.2821
  123MOL    C3436878   7.291   3.122   6.411 -0.0985 -0.3565  0.5111
  123MOL    O3536879   7.238   3.164   6.515  0.8552  0.7463 -0.2142
  123MOL    C3636880   7.318   2.975   6.369  0.2090 -0.1168 -0.4939
  123MOL    C3736881   7.426   2.950   6.272 -0.4098 -0.3843  0.1153
  123MOL    C3836882   7.447   3.402   6.353 -0.3200  0.6650 -0.1504
  123MOL    H3936883   7.238   3.365   6.393  0.4158  0.1833  0.0362
  123MOL    H4036884   7.336   2.911   6.455  4.5140  1.0868 -0.4016
  123MOL    H4136885   7.230   2.920   6.337  1.8623 -2.9774 -0.2623
  123MOL    H4236886   7.395   2.859   6.219 -1.7377  0.8547 -1.2771
  123MOL    H4336887   7.442   3.023   6.193  0.4253 -1.8037 -1.0738
  123MOL    H4436888   7.522   2.933   6.321 -0.8064  1.2299  1.4881
  123MOL    H4536889   7.483   3.343   6.437 -0.2443  2.0186  0.7998
  123MOL    H4636890   7.521   3.379   6.277 -0.2723 -2.0761  0.6951
  123MOL    C4736891   7.459   3.551   6.393  0.5874  0.4249 -0.0965
  123MOL    O4836892   7.350   3.563   6.490  0.3947  0.2764 -0.2393
  123MOL    C4936893   7.249   3.660   6.472  0.3409  0.6664 -0.5553
  123MOL    O5036894   7.235   3.738   6.378 -0.2444 -0.2228  0.1583
  123MOL    C5136895   7.158   3.670   6.594 -0.4785 -1.0918 -0.0481
  123MOL    C5236896   7.047   3.572   6.585  0.0130  0.0816 -0.4159
  123MOL    C5336897   7.590   3.600   6.462  0.1621 -0.2763 -0.2321
  123MOL    H5436898   7.442   3.607   6.301  0.9029 -0.3123 -0.6077
  123MOL    H5536899   7.215   3.660   6.687  0.1091  1.7054 -0.0489
  123MOL    H5636900   7.121   3.773   6.588  2.8362  0.1827 -0.1461
  123MOL    H5736901   7.000   3.564   6.683  2.7145 -0.0419  0.9149
  123MOL    H5836902   6.975   3.609   6.512 -0.3717 -0.7965 -0.4938
  123MOL    H5936903   7.087   3.471   6.574  0.5295  0.4359 -2.0081
  123MOL    H6036904   7.568   3.693   6.515 -0.9547 -0.7882  0.2191
  123MOL    H6136905   7.615   3.525   6.536 -1.3323 -0.9708 -0.4143
  123MOL    C6236906   7.708   3.629   6.368  0.7506  0.1606 -0.6215
  123MOL    O6336907   7.681   3.748   6.294 -0.5271  0.0510 -0.2998
  123MOL    C6436908   7.703   3.748   6.157  0.0002  0.4650 -0.3407
  123MOL    O6536909   7.725   3.649   6.090  0.0979 -0.0601  0.0269
  123MOL    C6636910   7.689   3.887   6.093 -0.0438  0.0095  0.3335
  123MOL    C6736911   7.550   3.945   6.120 -0.0053  0.5332 -0.6377
  123MOL    C6836912   7.839   3.637   6.449  0.3713 -0.2664 -0.4001
  123MOL    H6936913   7.713   3.547   6.296  0.1749  0.5772 -1.1410
  123MOL    H7036914   7.771   3.951   6.123  1.2306 -0.3449 -2.1965
  123MOL    H7136915   7.694   3.868   5.985 -2.1405  2.2835 -0.1963
  123MOL    H7236916   7.552   3.989   6.220  0.7147 -0.5771 -0.1596
  123MOL    H7336917   7.521   4.029   6.057  0.0370  1.0299 -0.0041
  123MOL    H7436918   7.471   3.871   6.112 -0.0194  0.6030 -1.1153
  123MOL    H7536919   7.831   3.731   6.504  1.3093 -0.0640 -0.6148
  123MOL    H7636920   7.842   3.552   6.517 -0.3605  0.7058  0.8768
  123MOL    C7736921   0.019   3.641   6.365 -0.4095  0.3184  0.3811
  123MOL    O7836922   0.140   3.659   6.443  0.2906 -0.0185 -0.1407
  123MOL    C7936923   0.174   3.780   6.486 -0.2969  0.0005  0.1436
  123MOL    O8036924   0.111   3.884   6.473  0.1148 -0.0579 -0.0572
  123MOL    C8136925   0.307   3.772   6.559 -0.1964  0.7293 -0.3933
  123MOL    C8236926   0.402   3.894   6.562  0.4744  0.6372  0.2322
  123MOL    C8336927   0.038   3.519   6.274 -0.2035 -0.0967  0.0358
  123MOL    H8436928   0.014   3.730   6.302  0.9975 -1.6483 -2.6181
  123MOL    H8536929   0.292   3.730   6.658 -0.2494 -0.2306 -0.8013
  123MOL    H8636930   0.357   3.687   6.512  1.5955 -0.0493  2.8028
  123MOL    H8736931   0.505   3.873   6.591 -0.0133 -0.7060  1.0464
  123MOL    H8836932   0.423   3.915   6.457 -0.4222  0.7940  0.0821
  123MOL    H8936933   0.346   3.976   6.607 -0.1762 -0.1179  0.7896
  123MOL    H9036934   0.040   3.426   6.330  0.5731  1.2923  2.3467
  123MOL    H9136935   7.894   3.511   6.211  0.1552  0.8240 -0.5974
  123MOL    C9236936   0.161   3.520   6.190  0.0797  0.2383 -0.1472
  123MOL    O9336937   0.266   3.447   6.251 -0.5870  0.6233  0.4184
  123MOL    C9436938   0.386   3.494   6.273  0.9279  0.1965  0.2908
  123MOL    O9536939   0.424   3.608   6.256 -0.6508  0.5742 -0.5828
  123MOL    C9636940   0.477   3.390   6.331 -0.5013  0.0353  0.0442
  123MOL    C9736941   0.468   3.377   6.480 -0.5095  0.8551 -0.2461
  123MOL    C9836942   0.131   3.455   6.053  0.2335 -0.2188 -0.9663
  123MOL    H9936943   0.192   3.624   6.178  0.1364  0.1230 -1.0971
  123MOL   H10036944   0.462   3.295   6.279  0.1485  2.3480 -4.6332
  123MOL   H10136945   0.578   3.415   6.298 -1.4774  1.6383 -1.8331
  123MOL   H10236946   0.561   3.347   6.528 -1.2372  1.8008  1.8144
  123MOL   H10336947   0.458   3.473   6.531 -0.0976  1.5030 -1.3774
  123MOL   H10436948   0.386   3.311   6.508 -1.2837  2.2571  0.8612
  123MOL   H10536949   0.223   3.406   6.021  0.1175 -1.0157 -0.1054
  123MOL   H10636950   0.064   3.371   6.067  2.5254 -1.9709 -0.1006
  123MOL   C10736951   0.078   3.544   5.941 -0.7021  0.2223  0.2936
  123MOL   O10836952   0.179   3.642   5.922  0.0121 -0.4056 -0.2978
  123MOL   C10936953   0.160   3.767   5.934 -0.6851  0.0480 -0.6145
  123MOL   O11036954   0.057   3.824   5.964  0.2358  0.3413  0.1967
  123MOL   C11136955   0.290   3.850   5.922 -0.0762 -0.5473 -0.6348
  123MOL   C11236956   0.265   3.986   5.855 -0.2196  0.2913  0.3205
  123MOL   C11336957   0.054   3.473   5.810  0.2307  0.5073 -0.8157
  123MOL   H11436958   7.931   3.588   5.979  0.6877  3.1428  0.4621
  123MOL   H11536959   0.342   3.866   6.016 -0.6367  1.0038 -0.5782
  123MOL   H11636960   0.357   3.794   5.855  2.7774  0.8236  0.9712
  123MOL   H11736961   0.309   4.059   5.923  0.1002 -1.5682  2.1633
  123MOL   H11836962   0.321   3.999   5.762  1.3343 -0.6326  1.0934
  123MOL   H11936963   0.162   4.018   5.839  1.2331  2.7834 -5.0002
  123MOL   H12036964   0.138   3.409   5.784 -0.4874 -0.2236 -1.3480
  123MOL   H12136965   7.907   3.414   5.809 -0.8046  2.0166  0.7465
  123MOL   C12236966   0.036   3.569   5.692  0.8406 -0.4131 -0.3060
  123MOL   O12336967   0.018   3.483   5.573  0.0600 -0.0090  0.0634
  123MOL   C12436968   0.091   3.487   5.462 -0.4963 -0.6461 -0.2612
  123MOL   O12536969   0.182   3.571   5.433 -0.1699 -0.7228 -0.4696
  123MOL   C12636970   0.049   3.377   5.372  0.8885  0.2384  0.9401
  123MOL   C12736971   0.049   3.242   5.442 -0.2243  0.6003 -0.0602
  123MOL   C12836972   7.862   3.663   5.701 -0.2700 -0.4403 -0.4907
  123MOL   H12936973   0.129   3.625   5.680  1.5470 -1.1015  1.8338
  123MOL   H13036974   7.891   3.399   5.342  1.1469 -0.2389 -0.3059
  123MOL   H13136975   0.115   3.370   5.286  0.2456 -3.4083  0.6753
  123MOL   H13236976   0.145   3.199   5.472  0.7291  0.8126 -2.7000
  123MOL   H13336977   7.932   3.241   5.532  0.4214  0.9519  0.3993
  123MOL   H13436978   0.002   3.166   5.379 -0.8069  1.4455 -0.6600
  123MOL   H13536979   7.777   3.597   5.690 -0.7766  0.4558 -2.1055
  123MOL   H13636980   7.855   3.713   5.797 -1.5659  0.5058 -1.0671
  123MOL   C13736981   7.867   3.770   5.584  0.2121 -0.2473  0.4949
  123MOL   O13836982   7.737   3.828   5.575  0.0782  0.0185 -0.5611
  123MOL   C13936983   7.671   3.843   5.458  1.1720  0.5762  0.4433
  123MOL   O14036984   7.703   3.806   5.343 -0.0185 -0.0254  0.3616
  123MOL   C14136985   7.542   3.932   5.485  0.1667  0.4507  0.1123
  123MOL   C14236986   7.553   4.051   5.580 -0.6836 -0.0558  0.4558
  123MOL   C14336987   0.022   3.881   5.606  0.2106 -0.7131 -0.2824
  123MOL   H14436988   7.890   3.722   5.489  1.1092 -2.2453  1.7020
  123MOL   H14536989   7.507   3.958   5.385 -0.1360 -1.3456 -0.2785
  123MOL   H14636990   7.469   3.867   5.534  0.6126  0.5314  0.8884
  123MOL   H14736991   7.615   4.129   5.536  0.5903 -1.9634 -1.2054
  123MOL   H14836992   7.456   4.094   5.608 -0.3583  1.7593 -1.0958
  123MOL   H14936993   7.602   4.024   5.674  1.9697 -0.5813 -1.0457
  123MOL   H15036994   7.941   3.940   5.694 -1.7584  1.0968 -2.0014
  123MOL   H15136995   0.119   3.845   5.639  1.1202  0.0060 -2.0830
  123MOL   C15236996   0.043   3.976   5.486 -0.2114 -0.5924 -0.8965
  123MOL   O15336997   0.137   4.073   5.522  0.3783 -0.3104  0.3527
  123MOL   C15436998   0.087   4.190   5.574 -0.5231 -0.2396  0.0968
  123MOL   O15536999   7.919   4.205   5.621  0.2600 -0.0834  0.1157
  123MOL   C15637000   0.187   4.299   5.587 -0.1268 -0.9456 -0.3276
  123MOL   C15737001   0.127   4.443   5.588  0.3802 -0.1020 -0.1366
  123MOL   C15837002   0.105   3.892   5.365 -0.3069 -0.2124 -0.0962
  123MOL   H15937003   7.895   4.022   5.453 -0.0072 -0.1049 -0.7798
  123MOL   H16037004   0.244   4.272   5.676 -3.1710 -1.1370  1.6256
  123MOL   H16137005   0.257   4.295   5.503 -0.6833  0.2978 -0.8627
  123MOL   H16237006   0.207   4.510   5.620  0.2966  0.2960 -0.7582
  123MOL   H16337007   0.094   4.473   5.489 -0.8227  1.0577  0.5951
  123MOL   H16437008   0.048   4.440   5.663  0.8185 -0.5802  0.3125
  123MOL   H16537009   0.195   3.850   5.410 -0.2466  1.0681  1.0021
  123MOL   H16637010   0.039   3.808   5.344 -0.1513 -0.6143  1.0139
  123MOL   C16737011   0.126   3.969   5.233  0.7455  0.4548 -0.5674
  123MOL   O16837012   0.241   4.050   5.244  0.0058  0.0245 -0.1504
  123MOL   C16937013   0.237   4.188   5.220  0.2336  0.4432  0.4652
  123MOL   O17037014   0.132   4.251   5.209  0.4768 -0.0779 -0.0903
  123MOL   C17137015   0.376   4.245   5.206  0.1863  0.5919  0.1067
  123MOL   C17237016   0.463   4.191   5.096  0.8991 -0.2767 -0.9677
  123MOL   C17337017   0.133   3.871   5.114 -0.0411 -0.2127 -0.0840
  123MOL   H17437018   0.041   4.037   5.231 -0.7125 -1.2345  1.4095
  123MOL   H17537019   0.355   4.350   5.185 -0.7281  0.1855 -1.0341
  123MOL   H17637020   0.427   4.240   5.302  1.3627  0.0256 -0.5422
  123MOL   H17737021   0.553   4.253   5.097 -0.1417  1.3726  2.7189
  123MOL   H17837022   0.478   4.085   5.113 -1.1739 -0.5415 -0.5634
  123MOL   H17937023   0.409   4.204   5.002 -0.3979 -0.0942 -0.2168
  123MOL   H18037024   0.241   3.855   5.111 -0.2008 -1.4494  0.3941
  123MOL   H18137025   0.082   3.777   5.137  0.5473 -0.8030 -1.1469
  123MOL   C18237026   0.088   3.935   4.983  0.1097 -0.7092 -0.4977
  123MOL   O18337027   0.078   3.836   4.882 -0.2292  0.0902 -0.1786
  123MOL   C18437028   0.159   3.835   4.771 -0.4952  0.2544 -0.4198
  123MOL   O18537029   0.269   3.896   4.758  0.2287  1.0920 -0.3315
  123MOL   C18637030   0.108   3.736   4.671 -0.4348 -0.5697  0.6932
  123MOL   C18737031   7.904   3.734   4.628 -0.5235  0.3124  0.3047
  123MOL   C18837032   7.897   4.006   4.975  0.0713 -0.1708  0.1127
  123MOL   H18937033   0.168   4.005   4.958 -0.5841 -0.5055 -2.1763
  123MOL   H19037034   0.165   3.748   4.579 -0.5816 -1.9334  0.4069
  123MOL   H19137035   0.137   3.634   4.699 -1.8560 -0.8370  1.2505
  123MOL   H19237036   7.874   3.657   4.557 -0.9277  1.4262 -0.7438
  123MOL   H19337037   7.835   3.721   4.711  0.0780  0.6246  0.8641
  123MOL   H19437038   7.879   3.831   4.586 -2.7017  0.9238  2.8834
  123MOL   H19537039   7.830   3.937   4.924  1.9597 -0.7844 -1.5926
  123MOL   H19637040   7.863   4.019   5.077  0.4980 -0.7997  0.3440
  123MOL   C19737041   7.901   4.148   4.907  0.3867  0.1169 -0.3349
  123MOL   O19837042   0.012   4.144   4.778 -0.3061  0.5176 -0.1284
  123MOL   C19937043   0.133   4.191   4.750 -0.5144  0.2122 -0.1015
  123MOL   O20037044   0.221   4.223   4.830  0.0884  0.2813 -0.1575
  123MOL   C20137045   0.152   4.223   4.600 -0.3240  0.4486 -1.1120
  123MOL   C20237046   0.122   4.110   4.500 -0.1284  0.1441  0.3742
  123MOL   C20337047   7.760   4.203   4.878  0.3707  0.2054 -0.5680
  123MOL   H20437048   0.006   4.215   4.977 -1.3870  0.7321  0.3633
  123MOL   H20537049   0.095   4.314   4.581 -3.6077 -1.4306 -0.6458
  123MOL   H20637050   0.257   4.250   4.586  0.8452 -4.3628 -2.6650
  123MOL   H20737051   0.166   4.137   4.404 -1.0094 -0.8314 -0.3121
  123MOL   H20837052   0.169   4.016   4.530  1.1571 -0.0917 -2.2327
  123MOL   H20937053   0.014   4.101   4.485  0.0952  1.2996 -2.2579
  123MOL   H21037054   7.773   4.307   4.851 -3.9394  1.1430  0.5448
  123MOL   H21137055   7.717   4.151   4.792 -1.1489 -0.8679  0.8094
  123MOL   C21237056   7.659   4.183   4.999  0.1689  0.1880 -0.0987
  123MOL   O21337057   7.683   4.289   5.086 -0.4124 -0.3891  0.2304
  123MOL   C21437058   7.678   4.272   5.225 -0.1692  0.2511  0.2386
  123MOL   O21537059   7.640   4.174   5.292  0.1030 -0.5956 -0.2173
  123MOL   C21637060   7.726   4.397   5.300 -0.4918 -0.0660 -0.5233
  123MOL   C21737061   7.643   4.427   5.426  0.5605  0.1901 -0.1758
  123MOL   C21837062   7.512   4.188   4.960 -0.1431  0.1320 -0.5140
  123MOL   H21937063   7.675   4.085   5.045 -1.3619  0.0307  0.1196
  123MOL   H22037064   7.833   4.398   5.320 -0.2671 -4.2037 -1.0910
  123MOL   H22137065   7.701   4.483   5.239 -1.6004  0.8310  1.1495
  123MOL   H22237066   7.677   4.361   5.506  0.3861  1.2862  0.8185
  123MOL   H22337067   7.659   4.515   5.489 -0.0576 -0.8219  1.4362
  123MOL   H22437068   7.539   4.398   5.415  0.8972 -0.8574 -0.6065
  123MOL   H22537069   7.448   4.178   5.047 -0.5589  2.0796 -0.5779
  123MOL   H22637070   7.490   4.291   4.934  3.5245  1.1553  0.1647
  123MOL   C22737071   7.462   4.092   4.859  0.0960  0.7639  0.6531
  123MOL   O22837072   7.469   3.967   4.917 -0.0584  0.7550 -0.3084
  123MOL   C22937073   7.538   3.866   4.857 -0.2404 -0.2783 -0.5738
  123MOL   O23037074   7.605   3.872   4.753 -0.3366  0.2893 -0.0418
  123MOL   C23137075   7.523   3.738   4.936 -0.2495  0.2299 -0.7252
  123MOL   C23237076   7.659   3.685   4.986  0.1467 -0.1866  0.1900
  123MOL   C23337077   7.323   4.126   4.808  0.0076 -0.2466  0.1607
  123MOL   H23437078   7.527   4.097   4.771 -0.3667 -0.9605  0.1910
  123MOL   H23537079   7.469   3.758   5.028  2.4160 -0.5456  1.0634
  123MOL   H23637080   7.476   3.658   4.880 -0.8495 -0.9744  1.4371
  123MOL   H23737081   7.684   3.590   4.938  1.4618 -0.2213  0.9163
  123MOL   H23837082   7.740   3.748   4.948  1.8244 -3.3179 -1.6612
  123MOL   H23937083   7.654   3.687   5.095 -0.5333 -0.0503  0.1565
  123MOL   H24037084   7.289   4.039   4.752 -0.4706  1.6319 -2.5717
  123MOL   H24137085   7.248   4.128   4.887  1.3018 -1.8606  1.4588
  123MOL   C24237086   7.317   4.255   4.714  0.0121  0.2062  0.4664
  123MOL   O24337087   7.313   4.220   4.575  0.3964  0.3429  0.8052
  123MOL   C24437088   7.423   4.209   4.501 -0.5249  0.1693 -0.5055
  123MOL   O24537089   7.536   4.214   4.540 -0.2000 -0.6882  0.1855
  123MOL   C24637090   7.385   4.188   4.354  0.1518 -0.1877  0.0096
  123MOL   C24737091   7.302   4.057   4.328  0.3361  0.0457  0.7950
  123MOL   C24837092   7.181   4.323   4.750 -0.0957 -0.2788  1.0756
  123MOL   H24937093   7.400   4.322   4.734  0.5532 -0.8519  1.8929
  123MOL   H25037094   7.323   4.267   4.312  0.6063  0.6839  0.9611
  123MOL   H25137095   7.473   4.187   4.289  1.1156 -0.7667  1.3058
  123MOL   H25237096   7.301   4.023   4.224  1.4928  1.7373  0.2202
  123MOL   H25337097   7.348   3.971   4.376  0.9528 -0.4970 -0.7394
  123MOL   H25437098   7.203   4.076   4.370  0.0154  1.0446 -0.3866
  123MOL   H25537099   7.152   4.380   4.662  1.2691  0.0170  0.8056
  123MOL   H25637100   7.100   4.249   4.754 -0.8646  0.5250  0.5093
  123MOL   C25737101   7.190   4.410   4.869  0.0352 -0.1539  0.7123
  123MOL   O25837102   7.283   4.508   4.842  1.1042 -0.2273 -0.2871
  123MOL   C25937103   7.378   4.542   4.930 -0.4215 -0.3408 -0.2335
  123MOL   O26037104   7.389   4.493   5.039  0.0164  0.0797 -0.0936
  123MOL   C26137105   7.486   4.642   4.871  0.0477  0.6678 -0.5298
  123MOL   C26237106   7.435   4.748   4.773 -0.0045  0.6778  0.3793
  123MOL   C26337107   7.051   4.472   4.914  0.1693  0.2503 -0.6279
  123MOL   H26437108   7.216   4.344   4.952  1.9275 -1.2005 -0.6811
  123MOL   H26537109   7.525   4.687   4.962 -2.5048  0.4087  0.7180
  123MOL   H26637110   7.566   4.583   4.827  0.0814  0.2865  0.0382
  123MOL   H26737111   7.434   4.840   4.832  1.2711  0.6996  0.3831
  123MOL   H26837112   7.507   4.761   4.692 -0.1442  1.1997  0.3343
  123MOL   H26937113   7.346   4.724   4.715 -0.2894  0.5684  0.8646
  123MOL   H27037114   7.064   4.551   4.987  3.1144  1.0949 -2.0062
  123MOL   H27137115   7.012   4.533   4.832 -3.2218 -0.2336  0.5539
  123MOL   C27237116   6.940   4.378   4.959 -0.1348 -0.2187  0.0660
  123MOL   O27337117   6.929   4.404   5.099  0.4803  0.3345  0.2751
  123MOL   C27437118   6.900   4.296   5.177 -0.1316  0.1067  0.3186
  123MOL   O27537119   6.914   4.177   5.148 -0.4172 -0.2305  0.0423
  123MOL   C27637120   6.857   4.330   5.323 -0.3205 -0.0186  0.5307
  123MOL   C27737121   6.773   4.459   5.329  0.7972 -0.2171 -0.3707
  123MOL   C27837122   6.805   4.403   4.878  0.2531  0.9671  0.1529
  123MOL   H27937123   6.967   4.273   4.945  1.1329 -0.1712  1.9584
  123MOL   H28037124   6.797   4.251   5.367  0.1378  0.8613  2.7936
  123MOL   H28137125   6.950   4.328   5.381  0.0874 -0.0156 -0.1154
  123MOL   H28237126   6.744   4.478   5.433 -0.2847 -0.0353 -0.7046
  123MOL   H28337127   6.828   4.546   5.291  0.4698  0.1920  0.0809
  123MOL   H28437128   6.686   4.442   5.266 -0.4113 -2.4998  1.8191
  123MOL   H28537129   6.718   4.359   4.927  1.8449 -1.8440  0.5965
  123MOL   H28637130   6.774   4.507   4.881  0.5228  1.0314  0.9309
  123MOL   C28737131   6.814   4.354   4.735  0.1079 -0.1322  0.1148
  123MOL   O28837132   6.805   4.213   4.746 -0.0709 -0.0726 -0.3484
  123MOL   C28937133   6.855   4.133   4.655 -0.2055  0.0033  0.2163
  123MOL   O29037134   6.920   4.160   4.552 -0.6572  0.1618  0.1081
  123MOL   C29137135   6.819   3.982   4.687 -0.4030  0.5078 -0.4771
  123MOL   C29237136   6.713   3.966   4.791  0.3348 -0.2717 -0.3078
  123MOL   C29337137   6.717   4.415   4.642 -0.0147  0.3002  0.3534
  123MOL   H29437138   6.906   4.381   4.682  0.3769  1.4021  1.3281
  123MOL   H29537139   6.787   3.934   4.595 -0.1004 -2.2583  0.8306
  123MOL   H29637140   6.911   3.940   4.728  0.9012  1.3995 -2.4113
  123MOL   H29737141   6.681   3.863   4.804 -0.5612  0.1969  1.4465
  123MOL   H29837142   6.736   4.000   4.892 -0.8222  1.1234 -0.4970
  123MOL   H29937143   6.628   4.030   4.766 -1.0864 -2.9891 -2.7462
  123MOL   H30037144   6.614   4.423   4.679 -0.6324 -2.0472 -0.7971
  123MOL   H30137145   6.752   4.518   4.643 -0.3416  0.4264 -0.8723
  123MOL   H30237146   6.713   4.368   4.544 -1.0029  1.3148 -0.1100
  124MOL     C137147   2.808   5.970   7.663 -0.1120 -0.7904  0.4776
  124MOL     O237148   2.707   6.007   7.753  0.0632 -0.0706 -0.1599
  124MOL     C337149   2.708   6.126   7.813 -0.1766  0.5401  0.1131
  124MOL     O437150   2.798   6.211   7.807 -0.3129  0.8267 -0.5749
  124MOL     C537151   2.584   6.158   7.904 -0.2169  0.6318 -0.3681
  124MOL     C637152   2.555   6.308   7.899  0.0158 -0.1959 -1.0997
  124MOL     C737153   2.776   5.835   7.587  0.3590  0.2755  0.1331
  124MOL     H837154   2.903   5.947   7.711  1.8761 -0.4099 -3.0449
  124MOL     H937155   2.501   6.100   7.864  0.3705  0.4085 -1.2860
  124MOL    H1037156   2.607   6.126   0.061  0.5745  0.0218 -0.7391
  124MOL    H1137157   2.486   6.328   7.817 -0.3852 -1.1092 -0.9927
  124MOL    H1237158   2.497   6.337   0.041  1.7887  1.4948 -0.4519
  124MOL    H1337159   2.639   6.376   7.885 -0.8985  1.6078  1.8534
  124MOL    H1437160   2.854   5.806   7.517 -1.7850  1.2968 -2.7624
  124MOL    H1537161   2.764   5.757   7.662 -0.0078  1.3657  1.2245
  124MOL    H1637162   2.823   6.055   7.596 -2.1651 -1.3611 -0.7290
  124MOL    C1737163   2.642   5.851   7.500  0.0243  0.2019 -0.1021
  124MOL    O1837164   2.662   5.960   7.407  1.2818 -0.0043  0.7718
  124MOL    C1937165   2.574   6.064   7.396  0.1101 -0.2356 -0.3090
  124MOL    O2037166   2.474   6.077   7.468 -0.6705 -0.0792 -0.4451
  124MOL    C2137167   2.611   6.158   7.278  0.0586  0.3089 -0.1196
  124MOL    C2237168   2.483   6.230   7.233  0.6829  0.1754  0.2146
  124MOL    C2337169   2.591   5.719   7.428 -0.1981 -0.1678  0.7646
  124MOL    H2437170   2.557   5.887   7.558 -0.4091  2.5742 -2.1026
  124MOL    H2537171   2.684   6.234   7.305  1.3860  0.8695 -4.8112
  124MOL    H2637172   2.653   6.095   7.199  0.1440 -0.1068  0.2584
  124MOL    H2737173   2.440   6.287   7.316 -1.3279 -1.1903  0.1441
  124MOL    H2837174   2.498   6.313   7.163 -1.3525 -0.3266 -0.8539
  124MOL    H2937175   2.400   6.174   7.192 -0.5882 -0.2440  3.2244
  124MOL    H3037176   2.504   5.732   7.364 -0.5039 -0.1350  1.1875
  124MOL    H3137177   2.658   5.692   7.346 -1.6873 -0.7901 -0.2862
  124MOL    C3237178   2.568   5.600   7.534 -0.7317  0.3560 -0.3096
  124MOL    O3337179   2.448   5.604   7.610 -0.0215 -0.0636 -0.4266
  124MOL    C3437180   2.427   5.677   7.720 -0.7643 -0.1738  0.1737
  124MOL    O3537181   2.507   5.754   7.774 -0.1338  0.0283 -0.0276
  124MOL    C3637182   2.291   5.664   7.777  0.1560 -0.8176 -0.1182
  124MOL    C3737183   2.270   5.773   7.881  0.3971 -0.2087  0.4881
  124MOL    C3837184   2.588   5.455   7.477 -0.4754  0.3412 -0.4058
  124MOL    H3937185   2.640   5.607   7.615 -0.7833  0.3382 -0.2619
  124MOL    H4037186   2.218   5.679   7.698  0.2780  1.1358  0.0948
  124MOL    H4137187   2.277   5.578   7.843 -0.9330  0.6793  1.6787
  124MOL    H4237188   2.167   5.785   7.913 -0.4783 -1.2064 -1.8333
  124MOL    H4337189   2.327   5.749   0.027  1.8887 -0.8029 -0.5732
  124MOL    H4437190   2.290   5.874   7.847 -0.4579 -0.0491  0.4506
  124MOL    H4537191   2.677   5.449   7.415  0.6081  0.8157  1.0983
  124MOL    H4637192   2.610   5.378   7.550 -1.4873 -0.3586 -0.8338
  124MOL    C4737193   2.468   5.397   7.399  0.0630  0.2794 -0.0010
  124MOL    O4837194   2.514   5.325   7.285 -0.2447 -0.3228  0.0274
  124MOL    C4937195   2.524   5.386   7.162 -0.3564 -0.2930  0.0515
  124MOL    O5037196   2.506   5.501   7.140  0.0306 -0.0875  0.4129
  124MOL    C5137197   2.552   5.291   7.051  0.1928 -0.9483 -0.1106
  124MOL    C5237198   2.688   5.210   7.069 -0.5003  0.1726  0.1246
  124MOL    C5337199   2.384   5.299   7.485  0.1623  0.3307 -0.3575
  124MOL    H5437200   2.405   5.478   7.363 -1.3574 -1.1730 -0.8434
  124MOL    H5537201   2.472   5.217   7.047 -0.5840 -0.0711 -1.1395
  124MOL    H5637202   2.531   5.351   6.962 -0.9426  1.2964  1.6130
  124MOL    H5737203   2.773   5.276   7.050  1.7172 -2.9578 -1.3870
  124MOL    H5837204   2.694   5.156   7.164  2.7297 -0.7643 -0.5308
  124MOL    H5937205   2.701   5.135   6.990  0.1441 -0.8850  1.2189
  124MOL    H6037206   2.451   5.215   7.505 -0.4713  0.0178  0.5021
  124MOL    H6137207   2.363   5.338   7.585  0.2667 -2.1412  0.6513
  124MOL    C6237208   2.247   5.260   7.424 -0.0029  0.2158  0.1768
  124MOL    O6337209   2.196   5.135   7.483  0.7168  0.1602  0.2311
  124MOL    C6437210   2.235   5.011   7.437 -0.9879  0.1694 -0.1550
  124MOL    O6537211   2.298   4.987   7.340 -0.1217 -0.5074 -0.2850
  124MOL    C6637212   2.191   4.898   7.529 -0.3012 -0.6889 -0.3694
  124MOL    C6737213   2.039   4.875   7.523 -0.1353 -0.2731  0.3147
  124MOL    C6837214   2.134   5.365   7.429  0.5028 -0.6045 -0.1708
  124MOL    H6937215   2.274   5.230   7.323 -0.5336  1.5542 -0.3670
  124MOL    H7037216   2.240   4.803   7.509  1.8661 -0.3195  2.7770
  124MOL    H7137217   2.214   4.932   7.630  1.0312 -1.2020 -0.4921
  124MOL    H7237218   2.007   4.790   7.582  1.5090 -1.4910 -0.5117
  124MOL    H7337219   1.985   4.965   7.552  1.0445  0.4234  0.4297
  124MOL    H7437220   2.008   4.853   7.422 -1.1228  0.4803  0.4417
  124MOL    H7537221   2.045   5.307   7.452  0.7283 -0.7820  0.2557
  124MOL    H7637222   2.154   5.436   7.509 -1.2387  1.9431 -1.8952
  124MOL    C7737223   2.105   5.437   7.295 -0.4272 -0.7201  0.6097
  124MOL    O7837224   2.072   5.340   7.201 -0.1583  0.0643  0.5026
  124MOL    C7937225   2.119   5.353   7.071 -0.3250 -0.2674  0.4848
  124MOL    O8037226   2.177   5.450   7.029 -0.3814  0.1661  0.3487
  124MOL    C8137227   2.094   5.231   6.984  0.2406  0.5656 -0.3886
  124MOL    C8237228   2.150   5.094   7.047  0.1928 -0.1012  1.0474
  124MOL    C8337229   1.978   5.529   7.303  0.1490  0.2677 -0.1143
  124MOL    H8437230   2.179   5.505   7.253  1.6276 -3.5755 -0.6002
  124MOL    H8537231   1.988   5.230   6.959 -0.1090 -0.4832  1.0781
  124MOL    H8637232   2.157   5.248   6.896  2.1980  0.8103  1.0202
  124MOL    H8737233   2.252   5.099   7.083  0.0347  2.4278  1.2332
  124MOL    H8837234   2.092   5.057   7.131 -2.5165  0.5476 -0.4550
  124MOL    H8937235   2.154   5.011   6.976  2.7100 -0.0238  1.0655
  124MOL    H9037236   1.936   5.551   7.205  1.2095  1.7433 -0.2496
  124MOL    H9137237   1.902   5.468   7.353  1.6361 -1.7859 -0.2909
  124MOL    C9237238   2.007   5.655   7.383  0.0042  0.4556  0.3560
  124MOL    O9337239   2.075   5.743   7.296 -0.1947 -0.2171 -0.2771
  124MOL    C9437240   2.190   5.797   7.335 -0.4898 -0.6930 -0.3340
  124MOL    O9537241   2.246   5.772   7.435 -0.1893 -0.4176 -0.6153
  124MOL    C9637242   2.248   5.898   7.230 -0.1598  0.6767  0.5246
  124MOL    C9737243   2.149   6.011   7.215 -0.7011 -0.5099 -0.1965
  124MOL    C9837244   1.876   5.718   7.440 -0.0565 -0.2185  0.3156
  124MOL    H9937245   2.072   5.622   7.463 -0.5580 -2.5097 -0.3393
  124MOL   H10037246   2.343   5.922   7.276 -0.8737  0.4581  2.1310
  124MOL   H10137247   2.276   5.864   7.130  0.9443  1.8941  0.4172
  124MOL   H10237248   2.171   6.094   7.283 -1.2241 -0.8241  0.3628
  124MOL   H10337249   2.187   6.054   7.122  0.8496  1.8022  1.4430
  124MOL   H10437250   2.043   5.990   7.209 -0.3392 -2.7832  0.8775
  124MOL   H10537251   1.801   5.728   7.362  0.3561 -1.0862 -0.1987
  124MOL   H10637252   1.828   5.645   7.505  0.6915 -0.4041  0.6702
  124MOL   C10737253   1.897   5.854   7.505  0.4063  0.5435  0.2428
  124MOL   O10837254   1.772   5.917   7.516  0.4605 -0.1066  0.1169
  124MOL   C10937255   1.731   6.011   7.427  0.1186 -0.5605 -0.1558
  124MOL   O11037256   1.808   6.064   7.348  0.1687 -0.2131 -0.0360
  124MOL   C11137257   1.592   6.071   7.445  0.0319 -0.2016  0.3078
  124MOL   C11237258   1.553   6.149   7.324 -0.1068 -0.1666  0.0126
  124MOL   C11337259   1.949   5.855   7.650  0.6051 -0.2296  0.1345
  124MOL   H11437260   1.965   5.914   7.443 -0.4611  1.0389 -0.2497
  124MOL   H11537261   1.516   5.996   7.467 -0.4105  0.2334  0.2641
  124MOL   H11637262   1.602   6.137   7.531 -0.3031  0.0445  0.1553
  124MOL   H11737263   1.601   6.245   7.305 -2.2703  0.7284 -1.1181
  124MOL   H11837264   1.561   6.091   7.232 -0.0074  0.4399 -0.3653
  124MOL   H11937265   1.448   6.179   7.328  0.6626  2.8954 -1.1662
  124MOL   H12037266   1.892   5.783   7.708  0.8503  0.5314  1.3433
  124MOL   H12137267   2.049   5.813   7.657 -0.0003 -1.7374 -0.1703
  124MOL   C12237268   1.976   5.987   7.730  0.1165  0.4788  0.2160
  124MOL   O12337269   2.041   6.060   7.635 -0.2504  0.4288  0.5989
  124MOL   C12437270   2.143   6.151   7.662  0.5081  0.4237 -0.1011
  124MOL   O12537271   2.198   6.161   7.773  0.3004  0.1132 -1.1061
  124MOL   C12637272   2.177   6.239   7.539 -0.2851  0.1083  0.2324
  124MOL   C12737273   2.202   6.383   7.563  0.3972  0.0399  0.2685
  124MOL   C12837274   1.868   6.060   7.801  0.1144  0.0223  0.4024
  124MOL   H12937275   2.054   5.981   7.805 -0.0890  1.0090  0.4710
  124MOL   H13037276   2.263   6.189   7.494 -1.5897 -1.3772 -0.6927
  124MOL   H13137277   2.104   6.235   7.458  1.6262 -0.5823 -1.4992
  124MOL   H13237278   2.268   6.437   7.495  0.8344  0.6577  1.1695
  124MOL   H13337279   2.110   6.436   7.590  0.6465  1.1850 -1.1070
  124MOL   H13437280   2.267   6.385   7.650 -1.5434 -0.1446  1.7735
  124MOL   H13537281   1.906   6.149   7.851 -1.6771  0.7902  0.4239
  124MOL   H13637282   1.802   6.107   7.729 -0.1447 -1.4752 -0.3610
  124MOL   C13737283   1.787   5.983   7.905  0.0189  0.7231  0.2290
  124MOL   O13837284   1.882   5.897   0.026  0.1805  0.2610 -0.1467
  124MOL   C13937285   1.829   5.797   0.098 -0.5479  0.7861  0.4950
  124MOL   O14037286   1.711   5.759   0.090  0.2189 -0.2289  0.0394
  124MOL   C14137287   1.937   5.723   0.180  0.1675  0.2899 -0.3936
  124MOL   C14237288   1.897   5.722   0.329 -0.1331  0.3523 -0.2423
  124MOL   C14337289   1.723   6.071   0.066  0.0045 -0.9487  0.3430
  124MOL   H14437290   1.705   5.928   7.860 -0.0551 -0.1901  1.4359
  124MOL   H14537291   1.950   5.623   0.140  0.1138  0.9811 -2.1961
  124MOL   H14637292   2.034   5.771   0.163  0.0331  0.9720  0.7026
  124MOL   H14737293   1.960   5.641   0.367  0.6029  0.8766 -0.3441
  124MOL   H14837294   1.925   5.811   0.386  0.3228 -1.1417  1.9363
  124MOL   H14937295   1.796   5.690   0.352 -0.2321 -0.7886 -2.1504
  124MOL   H15037296   1.663   6.013   0.137  0.3119 -3.1820 -1.2034
  124MOL   H15137297   1.802   6.118   0.125  2.1340 -0.9964 -2.3849
  124MOL   C15237298   1.628   6.179   0.009  0.3355  0.4317  0.0066
  124MOL   O15337299   1.534   6.117   7.869 -0.8774 -0.3149  0.2508
  124MOL   C15437300   1.463   6.190   7.786 -0.3215  0.0264  0.0145
  124MOL   O15537301   1.479   6.311   7.761  0.1290  0.4333  0.3729
  124MOL   C15637302   1.348   6.117   7.719  0.7010  0.0836  0.4541
  124MOL   C15737303   1.260   6.197   7.620  0.1701  0.1070  0.0092
  124MOL   C15837304   1.541   6.246   0.124 -0.0145 -0.3259 -0.2509
  124MOL   H15937305   1.685   6.257   7.903 -0.3908  0.9360 -0.0382
  124MOL   H16037306   1.374   6.017   7.683 -0.9769 -0.8020  1.6367
  124MOL   H16137307   1.282   6.091   7.802 -0.2310 -4.2971 -1.5163
  124MOL   H16237308   1.219   6.292   7.654 -2.2377 -0.7771 -0.3206
  124MOL   H16337309   1.304   6.213   7.522  2.6066  0.4875  1.1111
  124MOL   H16437310   1.170   6.136   7.616  2.1743 -3.2997  3.0605
  124MOL   H16537311   1.447   6.290   0.091  0.9309  2.4896  0.6924
  124MOL   H16637312   1.495   6.161   0.175 -1.1432 -0.5727 -1.6511
  124MOL   C16737313   1.611   6.342   0.222  0.3510  0.2797  0.0149
  124MOL   O16837314   1.634   6.470   0.157  0.3588  0.0873  0.7753
  124MOL   C16937315   1.751   6.498   0.098  0.2778  0.3268 -0.2020
  124MOL   O17037316   1.857   6.433   0.104  0.5181 -0.4719 -0.2999
  124MOL   C17137317   1.754   6.639   0.031 -0.2323  0.3049 -0.1061
  124MOL   C17237318   1.621   6.677   7.913  0.3680 -0.0809  0.6273
  124MOL   C17337319   1.551   6.359   0.360 -0.4687  0.4850 -0.0572
  124MOL   H17437320   1.707   6.294   0.239  1.1302  1.3886 -1.1524
  124MOL   H17537321   1.777   6.720   0.100  0.0451 -1.1018  1.5023
  124MOL   H17637322   1.838   6.645   7.907 -0.6899  0.7873 -0.6297
  124MOL   H17737323   1.581   6.604   7.842 -0.4719 -1.0526  2.0726
  124MOL   H17837324   1.541   6.680   0.042 -0.7862  1.1088 -0.6435
  124MOL   H17937325   1.617   6.779   7.874  0.0748 -0.6666 -0.9057
  124MOL   H18037326   1.485   6.445   0.366 -0.6332  0.4779 -1.4772
  124MOL   H18137327   1.494   6.270   0.389  1.3306 -1.2637 -1.7072
  124MOL   C18237328   1.657   6.375   0.475  0.4139 -0.0550  0.6071
  124MOL   O18337329   1.755   6.471   0.442  0.1528 -0.0885  0.5053
  124MOL   C18437330   1.877   6.447   0.478 -0.1816 -0.6275  0.5973
  124MOL   O18537331   1.917   6.336   0.519  0.2606 -0.1647  0.3061
  124MOL   C18637332   1.976   6.559   0.461  0.3416 -0.0936 -0.2291
  124MOL   C18737333   2.105   6.505   0.383 -0.6515  0.3105 -0.2560
  124MOL   C18837334   1.584   6.425   0.605  0.8465  0.2291  0.2406
  124MOL   H18937335   1.698   6.277   0.498  0.1558 -0.1161  0.8034
  124MOL   H19037336   1.929   6.647   0.417 -0.6537 -0.5441 -0.0821
  124MOL   H19137337   2.011   6.596   0.557  0.7398 -1.2994  0.0947
  124MOL   H19237338   2.196   6.565   0.376 -0.5303  0.1682  0.0868
  124MOL   H19337339   2.145   6.417   0.434 -0.6188 -0.5659 -1.7509
  124MOL   H19437340   2.077   6.477   0.281  0.7572  1.5256 -0.9918
  124MOL   H19537341   1.659   6.475   0.666 -1.1451  2.3529  1.0046
  124MOL   H19637342   1.507   6.499   0.586  0.9557  0.5944  1.1988
  124MOL   C19737343   1.524   6.320   0.695  0.0478  0.4360  0.7598
  124MOL   O19837344   1.625   6.229   0.736 -0.0331 -0.8434 -0.0317
  124MOL   C19937345   1.642   6.106   0.689  0.5078 -0.1222  0.2351
  124MOL   O20037346   1.572   6.063   0.604  0.0657 -0.5568  0.2415
  124MOL   C20137347   1.739   6.009   0.763  0.7967  0.1030 -0.4423
  124MOL   C20237348   1.771   5.878   0.693 -0.0259  0.8496 -0.0607
  124MOL   C20337349   1.446   6.367   0.825 -0.0414  0.3993  0.0946
  124MOL   H20437350   1.447   6.271   0.634  0.9422 -0.9162  0.6773
  124MOL   H20537351   1.831   6.065   0.777  0.6391 -0.0192  1.1305
  124MOL   H20637352   1.701   5.990   0.863  2.8495 -0.7969  0.1886
  124MOL   H20737353   1.697   5.845   0.621 -0.1171 -1.5971  1.1028
  124MOL   H20837354   1.858   5.889   0.629  0.2540  2.7693  0.6335
  124MOL   H20937355   1.803   5.801   0.764 -0.2937  1.3635  0.6234
  124MOL   H21037356   1.505   6.420   0.899  0.4771 -1.4275  1.0262
  124MOL   H21137357   1.372   6.441   0.794  0.8112  1.2907  0.1935
  124MOL   C21237358   1.382   6.260   0.903  0.2289 -0.2389  0.0980
  124MOL   O21337359   1.336   6.318   1.026  0.1705 -0.1022 -0.0674
  124MOL   C21437360   1.375   6.266   1.148  0.2452  0.0375 -0.3069
  124MOL   O21537361   1.410   6.154   1.172 -0.1504  0.2375 -0.5490
  124MOL   C21637362   1.366   6.371   1.258 -0.3865 -0.9495  0.5540
  124MOL   C21737363   1.219   6.391   1.303 -0.3354  1.6197  0.2629
  124MOL   C21837364   1.250   6.192   0.838  0.4446 -0.7603  0.6801
  124MOL   H21937365   1.458   6.185   0.922 -0.2121 -0.3758  1.3764
  124MOL   H22037366   1.438   6.346   1.336 -0.2098 -1.0863  0.3477
  124MOL   H22137367   1.395   6.463   1.207 -0.1805 -0.8557  0.8413
  124MOL   H22237368   1.187   6.330   1.387  0.1378  1.5674  0.4059
  124MOL   H22337369   1.199   6.490   1.343 -2.0300  0.2542  2.9530
  124MOL   H22437370   1.153   6.374   1.217  1.4010  0.6900 -0.9012
  124MOL   H22537371   1.169   6.266   0.834  0.4105 -0.8045  0.5554
  124MOL   H22637372   1.269   6.162   0.735 -0.6195 -2.3533  0.9341
  124MOL   C22737373   1.198   6.068   0.917 -0.6920 -0.5692 -0.0019
  124MOL   O22837374   1.079   6.031   0.850 -0.2008 -0.0510 -0.0815
  124MOL   C22937375   0.964   6.097   0.879  0.0866 -0.4541 -0.1908
  124MOL   O23037376   0.949   6.186   0.960  0.1669 -0.1071 -0.3658
  124MOL   C23137377   0.845   6.053   0.792 -0.7380 -0.1878 -0.2490
  124MOL   C23237378   0.744   5.963   0.857  0.1255 -0.2826  0.3924
  124MOL   C23337379   1.303   5.956   0.908  0.1567  1.1319 -0.1236
  124MOL   H23437380   1.186   6.097   1.021  1.5344  0.1298  0.0821
  124MOL   H23537381   0.792   6.148   0.779  1.0297  0.6329 -1.8330
  124MOL   H23637382   0.886   6.012   0.700  1.7390 -0.7875  1.0914
  124MOL   H23737383   0.743   5.858   0.829 -1.5613  0.1411 -1.2847
  124MOL   H23837384   0.758   5.954   0.964 -2.6038 -0.0658  0.7893
  124MOL   H23937385   0.644   6.001   0.835 -0.7761 -1.7915  1.8302
  124MOL   H24037386   1.310   5.917   0.806 -0.4832  1.9304 -0.4772
  124MOL   H24137387   1.402   5.992   0.935  0.8693 -0.2031 -0.9026
  124MOL   C24237388   1.275   5.835   1.006 -0.3845  0.2873 -0.7050
  124MOL   O24337389   1.167   5.754   0.963  0.2523  0.2855 -0.5002
  124MOL   C24437390   1.044   5.745   1.027  0.3328 -0.6013 -0.2175
  124MOL   O24537391   1.020   5.800   1.129  0.1628 -0.0751 -0.6216
  124MOL   C24637392   0.935   5.665   0.957 -0.4716  0.5607 -0.5624
  124MOL   C24737393   0.971   5.611   0.818  0.3910  0.5308 -0.2493
  124MOL   C24837394   1.400   5.746   1.013  0.0232  0.2017  0.3568
  124MOL   H24937395   1.256   5.878   1.104 -0.9545  1.3841 -1.2822
  124MOL   H25037396   0.902   5.591   1.029 -0.8971  3.2433  2.0849
  124MOL   H25137397   0.854   5.737   0.945 -0.9361  0.5869  2.4364
  124MOL   H25237398   0.931   5.679   0.743 -0.7531  1.5115  1.2420
  124MOL   H25337399   1.077   5.599   0.797  0.1161  0.6392 -1.7687
  124MOL   H25437400   0.936   5.508   0.804  0.9479 -0.4884  4.8188
  124MOL   H25537401   1.448   5.743   0.916 -0.1452  2.0550  0.2016
  124MOL   H25637402   1.477   5.807   1.061  2.3473 -0.2205 -2.7077
  124MOL   C25737403   1.396   5.608   1.090  0.3159 -1.1408 -0.0480
  124MOL   O25837404   1.522   5.544   1.051  0.3339 -0.4051  0.1999
  124MOL   C25937405   1.521   5.412   1.009  0.0711  0.1426  0.0241
  124MOL   O26037406   1.427   5.334   0.998 -0.6362 -0.0218 -0.4643
  124MOL   C26137407   1.660   5.369   0.961  1.0160 -0.3032  0.0967
  124MOL   C26237408   1.666   5.362   0.806 -0.1668 -0.5527 -0.3772
  124MOL   C26337409   1.379   5.631   1.240  0.4441  0.3777  0.1778
  124MOL   H26437410   1.311   5.554   1.048  0.5525 -0.9294 -0.8163
  124MOL   H26537411   1.731   5.442   1.001  0.5717  0.0573  0.2281
  124MOL   H26637412   1.688   5.275   1.008 -0.6007 -1.1045 -0.5277
  124MOL   H26737413   1.639   5.269   0.757 -2.1366  0.1992 -0.7771
  124MOL   H26837414   1.599   5.437   0.765 -0.2735 -0.7010 -0.4724
  124MOL   H26937415   1.766   5.370   0.763 -0.6673 -1.7129 -1.7999
  124MOL   H27037416   1.476   5.616   1.288  0.5678  0.6541  0.0182
  124MOL   H27137417   1.364   5.735   1.266 -1.1702 -0.1259  1.2983
  124MOL   C27237418   1.273   5.540   1.306  0.2281 -1.2085  0.0422
  124MOL   O27337419   1.338   5.412   1.303  0.4940 -0.4045  0.5894
  124MOL   C27437420   1.259   5.303   1.283 -0.1404 -0.2397  0.3396
  124MOL   O27537421   1.137   5.315   1.262 -0.5064  0.4580  0.4322
  124MOL   C27637422   1.337   5.167   1.265 -0.2587  0.0805 -0.4262
  124MOL   C27737423   1.375   5.115   1.405  0.0976 -0.2388  0.2176
  124MOL   C27837424   1.253   5.583   1.450  0.3189  0.0034 -0.0717
  124MOL   H27937425   1.174   5.540   1.260  0.2186 -0.9349  0.0614
  124MOL   H28037426   1.267   5.110   1.204  1.8320  0.1651 -2.9592
  124MOL   H28137427   1.434   5.170   1.216 -0.0826 -1.0215 -0.1593
  124MOL   H28237428   1.442   5.181   1.458  3.9014 -1.2280 -3.0930
  124MOL   H28337429   1.295   5.082   1.472  1.6040 -0.6980  1.7985
  124MOL   H28437430   1.424   5.018   1.394 -1.2514 -0.8785 -0.3073
  124MOL   H28537431   1.340   5.559   1.510 -0.2647 -0.3108  0.6575
  124MOL   H28637432   1.248   5.692   1.454  1.3947  0.0368  0.5613
  124MOL   C28737433   1.134   5.521   1.529  0.0429 -0.9851  0.5293
  124MOL   O28837434   1.118   5.600   1.650 -0.0508  0.5777  0.6717
  124MOL   C28937435   1.162   5.563   1.770  0.2398  0.1839 -0.4567
  124MOL   O29037436   1.205   5.455   1.801 -0.4755 -0.6730  0.1521
  124MOL   C29137437   1.169   5.681   1.864  0.4654 -0.3450  0.5563
  124MOL   C29237438   1.035   5.746   1.893  0.2128 -0.4372 -0.0406
  124MOL   C29337439   0.994   5.531   1.464  0.7064  0.7068 -0.4749
  124MOL   H29437440   1.152   5.418   1.560 -1.9100 -1.5976 -0.2951
  124MOL   H29537441   1.214   5.648   1.958 -0.5156  1.3602  1.6287
  124MOL   H29637442   1.230   5.754   1.811  1.4090 -2.7734 -1.8701
  124MOL   H29737443   0.966   5.665   1.918  2.3176 -2.2712 -0.0029
  124MOL   H29837444   1.038   5.820   1.973 -0.1554 -2.0278  1.4995
  124MOL   H29937445   0.996   5.802   1.808  1.6488  2.2228  1.0053
  124MOL   H30037446   0.997   5.448   1.394 -1.7639  0.1079  0.1082
  124MOL   H30137447   0.907   5.514   1.527 -0.0363 -0.8976 -1.8867
  124MOL   H30237448   0.967   5.616   1.402 -0.9511  1.2173  0.9116
  125MOL     C137449   7.686   5.485   0.463  0.5617  0.3912  0.7202
  125MOL     O237450   7.566   5.431   0.409 -0.1389 -0.1326  1.0897
  125MOL     C337451   7.486   5.350   0.485 -0.0757 -0.0958  0.2781
  125MOL     O437452   7.509   5.311   0.598 -1.0417  0.6622  0.1303
  125MOL     C537453   7.354   5.308   0.423  0.1067  0.0780 -0.7541
  125MOL     C637454   7.273   5.426   0.371  0.3301 -0.8008 -1.0764
  125MOL     C737455   7.657   5.607   0.553 -0.1203  0.6654  0.2141
  125MOL     H837456   7.765   5.512   0.393 -0.6039  0.8138 -0.4596
  125MOL     H937457   7.388   5.263   0.329  2.0986 -1.2685  0.5762
  125MOL    H1037458   7.303   5.243   0.494 -0.0084  0.6936 -0.2647
  125MOL    H1137459   7.331   5.491   0.306 -0.3209  0.5994 -0.2786
  125MOL    H1237460   7.187   5.398   0.309  0.1572 -1.4511 -0.5498
  125MOL    H1337461   7.241   5.486   0.456 -0.1903 -1.2976 -0.9151
  125MOL    H1437462   7.612   5.688   0.496  1.4890  1.1514 -0.4199
  125MOL    H1537463   7.573   5.585   0.618 -1.3137  2.1948 -0.7928
  125MOL    H1637464   7.729   5.398   0.511 -2.4703 -1.6809 -0.1439
  125MOL    C1737465   7.780   5.661   0.633 -0.6410 -0.0644  0.1952
  125MOL    O1837466   7.887   5.696   0.546 -0.6851 -1.1135  0.3003
  125MOL    C1937467   0.066   5.690   0.591  0.0237  0.5959 -0.3462
  125MOL    O2037468   0.104   5.680   0.707  0.3162  0.2652  0.6645
  125MOL    C2137469   0.171   5.696   0.480  0.5716 -0.0581 -0.1850
  125MOL    C2237470   0.145   5.818   0.377  0.3229 -0.3037 -0.3331
  125MOL    C2337471   7.746   5.787   0.722 -0.5096 -0.1827  0.4112
  125MOL    H2437472   7.803   5.582   0.703 -0.2255 -1.2973 -1.3090
  125MOL    H2537473   0.266   5.717   0.529 -1.2003  1.6704  2.7024
  125MOL    H2637474   0.171   5.604   0.422  2.0978 -1.1530  1.5053
  125MOL    H2737475   0.228   5.829   0.306 -0.1189  1.6060 -0.5768
  125MOL    H2837476   0.059   5.786   0.318 -0.5941  2.0361 -0.3033
  125MOL    H2937477   0.136   5.915   0.425 -2.7903 -0.1001 -1.2258
  125MOL    H3037478   7.835   5.813   0.778  1.1167 -1.9266 -1.2587
  125MOL    H3137479   7.716   5.874   0.665  2.3264 -0.9308 -2.3891
  125MOL    C3237480   7.636   5.766   0.816  0.0484 -0.7397 -0.1646
  125MOL    O3337481   7.671   5.661   0.907  0.5249  0.5108 -0.2763
  125MOL    C3437482   7.584   5.560   0.920  0.1724  0.6067 -0.5528
  125MOL    O3537483   7.468   5.556   0.876 -0.0196 -0.3538  0.2096
  125MOL    C3637484   7.642   5.446   1.003  0.2257 -1.1579  0.0342
  125MOL    C3737485   7.723   5.347   0.917 -0.3605  0.1889 -0.4742
  125MOL    C3837486   7.612   5.886   0.906  0.3294 -0.5517 -0.5886
  125MOL    H3937487   7.544   5.752   0.759 -1.2433 -1.0990  1.9253
  125MOL    H4037488   7.700   5.486   1.086  0.9779 -2.2142  0.0209
  125MOL    H4137489   7.553   5.396   1.043 -0.2906 -0.5245 -0.3203
  125MOL    H4237490   7.708   5.242   0.939  0.0993  0.3502  0.6389
  125MOL    H4337491   7.707   5.358   0.809 -1.5689  1.7438 -0.1593
  125MOL    H4437492   7.828   5.373   0.929 -0.4820  0.4316  0.0773
  125MOL    H4537493   7.535   5.858   0.978  1.6498  1.4021  1.6543
  125MOL    H4637494   7.704   5.893   0.963  0.0544  0.6306 -0.2753
  125MOL    C4737495   7.567   6.013   0.842  0.5151 -0.5598  0.3940
  125MOL    O4837496   7.428   5.998   0.796 -0.2992 -0.1117  0.2258
  125MOL    C4937497   7.397   5.989   0.663  0.0722  0.5474  0.0192
  125MOL    O5037498   7.481   6.008   0.571 -0.2298 -0.0466 -0.1502
  125MOL    C5137499   7.243   5.973   0.642 -0.1541  0.2985  0.4108
  125MOL    C5237500   7.199   5.831   0.678 -0.0813  0.0897  0.5356
  125MOL    C5337501   7.581   6.134   0.944 -0.1761  0.2964 -0.3552
  125MOL    H5437502   7.636   6.042   0.763 -0.0061  1.4814  0.6623
  125MOL    H5537503   7.193   6.044   0.707 -0.6501  0.2705  0.0605
  125MOL    H5637504   7.223   5.991   0.537  3.2617  1.2362 -0.1550
  125MOL    H5737505   7.239   5.808   0.776  1.7440  1.5525  0.1704
  125MOL    H5837506   7.091   5.823   0.683 -0.5206  1.3644 -3.9816
  125MOL    H5937507   7.209   5.756   0.600  0.2174  0.5101  0.1636
  125MOL    H6037508   7.534   6.119   1.041  0.4948  1.5039  0.1612
  125MOL    H6137509   7.682   6.163   0.974 -0.5898 -0.2922  1.6563
  125MOL    C6237510   7.522   6.268   0.886  0.2253 -0.0830  0.2397
  125MOL    O6337511   7.525   6.375   0.980  0.1218  0.2506  0.0491
  125MOL    C6437512   7.419   6.404   1.060 -0.1717  0.6330 -0.0714
  125MOL    O6537513   7.307   6.351   1.057 -0.0058 -0.1181 -0.2118
  125MOL    C6637514   7.444   6.509   1.168 -0.0833 -0.5018 -0.0842
  125MOL    C6737515   7.444   6.438   1.300 -0.6273  0.1717 -0.1085
  125MOL    C6837516   7.599   6.322   0.759  0.3804 -0.5444 -0.2756
  125MOL    H6937517   7.418   6.250   0.858 -0.8366  1.4987  2.9584
  125MOL    H7037518   7.541   6.558   1.165 -0.6792  0.7601  0.6395
  125MOL    H7137519   7.371   6.590   1.172 -0.5940 -1.0144  1.6523
  125MOL    H7237520   7.480   6.506   1.377 -1.4604  0.8626 -0.3228
  125MOL    H7337521   7.348   6.395   1.328  0.3642 -0.8059  1.9497
  125MOL    H7437522   7.503   6.346   1.304 -0.1725  0.4202 -1.0245
  125MOL    H7537523   7.701   6.348   0.787  0.9550 -2.2086 -0.7419
  125MOL    H7637524   7.605   6.248   0.679  1.8015 -0.7906  0.0489
  125MOL    C7737525   7.541   6.443   0.692  0.0470 -0.7913  0.2168
  125MOL    O7837526   7.629   6.498   0.597  0.3601 -0.0092 -0.5869
  125MOL    C7937527   7.723   6.586   0.639 -0.0945 -0.7404  0.1704
  125MOL    O8037528   7.741   6.626   0.753 -0.2427 -0.2193  0.0782
  125MOL    C8137529   7.804   6.637   0.523 -0.0096 -0.1371  0.6342
  125MOL    C8237530   7.925   6.730   0.545  0.3496  0.2873  0.7534
  125MOL    C8337531   7.403   6.421   0.622 -0.0918 -0.7941 -0.6754
  125MOL    H8437532   7.543   6.511   0.778 -1.8751  1.8925 -1.7780
  125MOL    H8537533   7.831   6.555   0.456 -1.7341 -2.0570  2.2346
  125MOL    H8637534   7.725   6.700   0.480  0.8198  0.3308 -0.2379
  125MOL    H8737535   0.072   6.674   0.562  1.5652  2.5774  2.0115
  125MOL    H8837536   7.934   6.797   0.459  0.9462 -0.6732  0.0527
  125MOL    H8937537   7.908   6.798   0.629 -1.5479  0.8517 -0.0642
  125MOL    H9037538   7.418   6.367   0.529  0.9159 -0.4297 -0.7340
  125MOL    H9137539   7.345   6.354   0.686 -1.7540  0.9100 -0.3538
  125MOL    C9237540   7.310   6.547   0.602 -0.7192  0.4307 -0.3584
  125MOL    O9337541   7.182   6.508   0.545  0.0381  0.4621 -0.0634
  125MOL    C9437542   7.119   6.577   0.453  0.4229 -0.2348 -0.0199
  125MOL    O9537543   7.153   6.688   0.420  0.0524 -0.0873 -0.0997
  125MOL    C9637544   7.008   6.506   0.381  0.1224  0.6578 -0.7358
  125MOL    C9737545   6.867   6.560   0.402  0.4876 -0.4006  0.0025
  125MOL    C9837546   7.284   6.620   0.738  0.2737 -0.2763 -0.7837
  125MOL    H9937547   7.357   6.611   0.527 -1.0511  1.4237  0.2714
  125MOL   H10037548   7.028   6.498   0.274 -1.4583  0.6365 -1.0359
  125MOL   H10137549   7.020   6.403   0.412  1.6141  1.0609  0.0590
  125MOL   H10237550   6.792   6.481   0.406  1.2323 -1.1474 -0.6008
  125MOL   H10337551   6.849   6.629   0.485  0.9729 -0.9920  0.6047
  125MOL   H10437552   6.847   6.617   0.311  0.2647  1.7581  1.3582
  125MOL   H10537553   7.181   6.654   0.738 -0.1547 -1.5229  0.0524
  125MOL   H10637554   7.298   6.544   0.815 -1.5138 -0.4584 -0.6136
  125MOL   C10737555   7.379   6.742   0.776  0.5664 -0.0867 -0.8061
  125MOL   O10837556   7.361   6.838   0.673 -0.2339 -0.4903  0.0890
  125MOL   C10937557   7.467   6.903   0.623  0.4855  0.0057 -0.3384
  125MOL   O11037558   7.585   6.881   0.647 -0.0660 -0.3832  0.0849
  125MOL   C11137559   7.416   7.014   0.541  0.1958 -0.0353 -0.1587
  125MOL   C11237560   7.445   7.156   0.600 -0.2629  0.3849 -0.4934
  125MOL   C11337561   7.334   6.792   0.910 -0.3341  0.2541  0.2034
  125MOL   H11437562   7.485   6.716   0.783  0.3627 -0.2309  2.3271
  125MOL   H11537563   7.455   7.009   0.440  1.7348  0.8493  0.3648
  125MOL   H11637564   7.310   6.991   0.543  0.3676 -0.8914 -0.7975
  125MOL   H11737565   7.550   7.178   0.581 -0.2524 -0.5153 -1.5965
  125MOL   H11837566   7.375   7.226   0.555 -0.4590  0.9194  0.6542
  125MOL   H11937567   7.434   7.165   0.708  0.3237  2.5642 -0.5920
  125MOL   H12037568   7.230   6.825   0.911 -0.1105  0.9729  0.3243
  125MOL   H12137569   7.342   6.707   0.978 -0.6905  0.4294  0.4658
  125MOL   C12237570   7.406   6.911   0.972 -0.0314 -0.3019  0.7545
  125MOL   O12337571   7.339   6.954   1.089  0.5051 -0.2453  0.0377
  125MOL   C12437572   7.285   7.073   1.101 -0.3734  0.1079 -0.3315
  125MOL   O12537573   7.283   7.156   1.009 -0.3656  0.0645  0.1069
  125MOL   C12637574   7.228   7.104   1.236  0.4942 -0.0091 -0.3567
  125MOL   C12737575   7.093   7.034   1.254 -0.2213 -0.2849 -0.1954
  125MOL   C12837576   7.560   6.879   1.005  0.2013  0.2435  0.2197
  125MOL   H12937577   7.405   6.995   0.902 -0.0531 -1.2823 -0.4304
  125MOL   H13037578   7.304   7.061   1.300  0.4041  0.1800 -0.1218
  125MOL   H13137579   7.207   7.210   1.255 -1.1901 -0.5100  0.7222
  125MOL   H13237580   7.057   7.032   1.357 -0.6968 -1.9429 -0.3788
  125MOL   H13337581   7.015   7.063   1.184 -0.1460  0.6293  0.0949
  125MOL   H13437582   7.105   6.929   1.227  1.3365  0.2409 -1.5887
  125MOL   H13537583   7.560   6.851   1.110 -0.3335 -2.3467 -0.4290
  125MOL   H13637584   7.595   6.804   0.934 -1.5074  0.2185 -0.6204
  125MOL   C13737585   7.651   7.000   0.986 -0.2759 -0.2106  0.0200
  125MOL   O13837586   7.642   7.076   1.102  0.3573  0.8582  0.1064
  125MOL   C13937587   7.615   7.209   1.086 -0.4137 -0.0383 -0.3195
  125MOL   O14037588   7.581   7.268   0.986 -0.2856  0.4849 -0.1904
  125MOL   C14137589   7.625   7.281   1.218  1.1713 -0.7885 -0.3817
  125MOL   C14237590   7.528   7.249   1.332  0.0669  0.4724  0.5881
  125MOL   C14337591   7.804   6.965   0.973  0.1093  0.8618  0.5242
  125MOL   H14437592   7.623   7.055   0.896  3.4578 -0.1643 -1.2196
  125MOL   H14537593   7.730   7.270   1.245  0.8103 -1.9817  0.5637
  125MOL   H14637594   7.623   7.390   1.213  2.2101 -0.7587 -0.3023
  125MOL   H14737595   7.537   7.143   1.352  0.4613  0.7813  2.1693
  125MOL   H14837596   7.541   7.301   1.427 -0.7507  1.0629  0.3833
  125MOL   H14937597   7.424   7.260   1.302  0.6070 -0.4177 -1.6796
  125MOL   H15037598   7.827   6.907   1.062 -1.1528 -0.1946  0.1854
  125MOL   H15137599   7.807   6.884   0.899 -1.7802  1.9838 -0.8312
  125MOL   C15237600   7.901   7.075   0.919  0.1289  0.0583 -0.1138
  125MOL   O15337601   0.091   7.034   0.924  0.1559  0.0187 -0.1342
  125MOL   C15437602   0.168   7.062   1.032 -0.4432 -0.4511 -0.1157
  125MOL   O15537603   0.150   7.149   1.118 -0.0269  0.2775  0.2057
  125MOL   C15637604   0.293   6.973   1.045  0.6555 -0.1328  0.2591
  125MOL   C15737605   0.262   6.820   1.027  1.4596  0.1229  0.2994
  125MOL   C15837606   7.875   7.131   0.777 -0.2724  0.1750  0.1478
  125MOL   H15937607   7.880   7.164   0.979 -1.7967  1.3020 -2.5155
  125MOL   H16037608   0.374   7.003   0.978 -0.7822 -0.1334 -1.5114
  125MOL   H16137609   0.338   7.000   1.141  0.2216 -0.8901  0.6835
  125MOL   H16237610   0.222   6.773   1.116  1.3653  0.3039  0.3524
  125MOL   H16337611   0.202   6.811   0.937 -0.0114  3.0768  0.9327
  125MOL   H16437612   0.355   6.773   0.996  0.5869 -1.2904 -0.2155
  125MOL   H16537613   7.879   7.050   0.704  0.5836  0.3687 -0.0168
  125MOL   H16637614   7.778   7.181   0.787  0.8865  2.6561 -0.7176
  125MOL   C16737615   0.019   7.249   0.738 -0.4757  0.1467  0.0613
  125MOL   O16837616   0.106   7.209   0.631  0.2189 -0.5524  0.2810
  125MOL   C16937617   0.227   7.261   0.624 -0.0025  0.4416  1.0148
  125MOL   O17037618   0.282   7.333   0.707  0.4290  0.1706 -0.4988
  125MOL   C17137619   0.294   7.226   0.490 -0.3273  0.0523  0.5500
  125MOL   C17237620   0.231   7.310   0.373 -0.3754  0.3163  0.2382
  125MOL   C17337621   7.882   7.370   0.690  0.1758 -0.5274 -0.2555
  125MOL   H17437622   0.077   7.274   0.827  0.4319 -0.3933 -0.3654
  125MOL   H17537623   0.402   7.234   0.491 -0.2976 -0.1634 -0.6015
  125MOL   H17637624   0.274   7.120   0.476  1.1910 -0.1253 -0.3577
  125MOL   H17737625   0.153   7.377   0.408  0.9280  2.4091 -0.7782
  125MOL   H17837626   0.302   7.386   0.338 -0.8499  0.3935 -0.5764
  125MOL   H17937627   0.194   7.250   0.290 -1.1368 -0.2546  0.9840
  125MOL   H18037628   0.003   7.435   0.633 -0.5879 -0.0225 -0.5847
  125MOL   H18137629   7.797   7.357   0.622 -1.5895  0.4376  1.6945
  125MOL   C18237630   7.826   7.456   0.809 -0.4179 -0.1761  0.3267
  125MOL   O18337631   7.941   7.485   0.889 -0.2360 -0.0752 -0.3269
  125MOL   C18437632   7.916   7.500   1.024  0.2663  0.0170  0.0731
  125MOL   O18537633   7.810   7.527   1.080 -0.4613  0.4109 -0.3044
  125MOL   C18637634   0.104   7.500   1.097  0.2044  0.1750 -0.0366
  125MOL   C18737635   0.093   7.484   1.255 -0.1782 -0.4350  0.0575
  125MOL   C18837636   7.753   7.585   0.766  0.1847 -0.2833 -0.3291
  125MOL   H18937637   7.756   7.388   0.858  0.2296 -0.6866  0.5450
  125MOL   H19037638   0.167   7.431   1.040  0.1331 -0.7551  1.0053
  125MOL   H19137639   0.149   7.598   1.080  0.8728  0.1816  1.6684
  125MOL   H19237640   0.057   7.386   1.286 -2.0294  0.7691  1.8609
  125MOL   H19337641   0.191   7.487   1.302  0.2918  1.3683 -1.0145
  125MOL   H19437642   0.033   7.557   1.310  3.3256  2.1813  0.5298
  125MOL   H19537643   7.799   7.674   0.809  2.1878 -1.5953  0.3026
  125MOL   H19637644   7.769   7.608   0.660 -1.9776  0.8740 -0.4356
  125MOL   C19737645   7.601   7.587   0.795  0.6572  0.1234  0.5850
  125MOL   O19837646   7.554   7.722   0.785 -0.9445  0.0349  0.5223
  125MOL   C19937647   7.525   7.798   0.889  0.0264 -1.0840  0.3647
  125MOL   O20037648   7.522   7.763   1.008 -0.4643 -0.1087  0.3384
  125MOL   C20137649   7.499   7.942   0.844  0.0187 -0.3880  0.4515
  125MOL   C20237650   7.446   0.089   0.958 -0.7336 -0.3813  0.1896
  125MOL   C20337651   7.515   7.496   0.704 -0.5450  0.2030 -0.5008
  125MOL   H20437652   7.582   7.554   0.897  0.1828 -0.5921  0.2666
  125MOL   H20537653   7.592   0.053   0.833  0.4939 -0.9861  1.4402
  125MOL   H20637654   7.437   7.944   0.754 -2.6615 -0.6168  2.2358
  125MOL   H20737655   7.523   0.088   1.036 -1.1667  0.7491  0.6458
  125MOL   H20837656   7.425   0.190   0.923 -0.6279 -0.0035  1.1971
  125MOL   H20937657   7.358   0.048   1.007  1.3463 -0.4617  4.0554
  125MOL   H21037658   7.562   7.509   0.606  2.5016 -1.5510  0.6625
  125MOL   H21137659   7.533   7.392   0.729 -1.6582  0.6168  2.1803
  125MOL   C21237660   7.367   7.521   0.713  0.3107  0.2610  0.2042
  125MOL   O21337661   7.312   7.450   0.604 -0.5604  0.2764 -0.0492
  125MOL   C21437662   7.271   7.518   0.495  0.1738  0.2568  0.3747
  125MOL   O21537663   7.272   7.640   0.479  0.3852 -0.2455 -0.4900
  125MOL   C21637664   7.201   7.422   0.390  0.4848  0.0225 -0.0752
  125MOL   C21737665   7.075   7.360   0.441  0.1956  0.3377  0.6401
  125MOL   C21837666   7.293   7.474   0.843  0.1248  0.0773  0.0556
  125MOL   H21937667   7.362   7.629   0.695 -0.3047  0.3266  0.7476
  125MOL   H22037668   7.187   7.481   0.300 -0.1342 -1.9882 -1.3360
  125MOL   H22137669   7.278   7.347   0.373 -0.7823 -1.6001  1.1734
  125MOL   H22237670   6.988   7.414   0.404 -0.1034 -0.3206  0.3668
  125MOL   H22337671   7.067   7.259   0.400  0.6298  0.5478  0.0215
  125MOL   H22437672   7.063   7.346   0.548 -1.7357 -1.7047  0.2115
  125MOL   H22537673   7.289   7.365   0.845 -1.3086  0.0812 -1.2032
  125MOL   H22637674   7.352   7.496   0.932  1.7562 -1.0499 -0.7288
  125MOL   C22737675   7.141   7.531   0.856 -0.1707 -0.2331 -0.9599
  125MOL   O22837676   7.065   7.459   0.952 -0.2234 -0.1122  0.4472
  125MOL   C22937677   6.970   7.375   0.914 -0.2508  0.6628 -0.9724
  125MOL   O23037678   6.942   7.349   0.798  0.2983 -0.1409  0.0045
  125MOL   C23137679   6.906   7.301   1.034 -0.1133 -0.0975 -0.2020
  125MOL   C23237680   6.803   7.194   1.002 -0.7551  0.1938 -0.0672
  125MOL   C23337681   7.127   7.677   0.886  0.6662 -0.1164 -0.1059
  125MOL   H23437682   7.086   7.525   0.762 -0.6208  1.4118 -0.8129
  125MOL   H23537683   6.990   7.257   1.088 -1.7195 -0.1737  2.3294
  125MOL   H23637684   6.868   7.383   1.096  0.8031  0.5953 -0.5428
  125MOL   H23737685   6.723   7.191   1.076 -0.6239 -2.7875 -0.0007
  125MOL   H23837686   6.763   7.208   0.902 -0.3202  3.0062  0.1004
  125MOL   H23937687   6.848   7.095   1.002 -0.2391  0.4249 -0.6672
  125MOL   H24037688   7.059   7.697   0.969 -1.2853 -2.8722 -0.9960
  125MOL   H24137689   7.222   7.711   0.927  0.2218 -0.0609  0.8981
  125MOL   C24237690   7.084   7.766   0.768  0.6381  0.3817 -0.4027
  125MOL   O24337691   6.943   7.740   0.740  0.4261 -0.2402 -0.7825
  125MOL   C24437692   6.899   7.704   0.621 -0.2860 -0.6257 -0.5387
  125MOL   O24537693   6.973   7.678   0.528  0.4189  0.3193  0.2244
  125MOL   C24637694   6.743   7.700   0.606  0.1733 -0.3550  0.0234
  125MOL   C24737695   6.685   7.815   0.522  0.2325 -0.1388 -0.5534
  125MOL   C24837696   7.098   7.916   0.807  0.1183  0.2740 -0.2081
  125MOL   H24937697   7.146   7.746   0.681 -1.6215  0.8672 -2.1650
  125MOL   H25037698   6.732   7.608   0.549 -1.1471 -0.9853  1.2423
  125MOL   H25137699   6.692   7.681   0.700 -2.1268 -0.8472 -1.2900
  125MOL   H25237700   6.641   7.887   0.591  0.2211 -0.5072 -0.1759
  125MOL   H25337701   6.765   7.860   0.464  2.2624 -1.1196  1.4366
  125MOL   H25437702   6.603   7.780   0.458 -0.8925  1.3782  0.0109
  125MOL   H25537703   7.026   7.940   0.885  0.6590  2.0775 -0.2225
  125MOL   H25637704   7.198   7.931   0.849  0.1859  1.2519 -0.7005
  125MOL   C25737705   7.075   0.062   0.686  0.1433 -0.4223 -0.3013
  125MOL   O25837706   7.063   0.184   0.741 -0.0858  0.0625  1.0302
  125MOL   C25937707   6.976   0.274   0.697  0.6417 -0.4109  0.0460
  125MOL   O26037708   6.879   0.255   0.620 -0.0842 -0.0389 -0.3784
  125MOL   C26137709   7.003   0.418   0.742 -0.1472 -0.2655  0.8729
  125MOL   C26237710   7.150   0.449   0.710  0.0907  0.2604 -0.4455
  125MOL   C26337711   7.177   0.063   0.572  0.4492  0.4837  0.2396
  125MOL   H26437712   6.984   0.025   0.639 -0.5295  0.7487  0.0371
  125MOL   H26537713   6.945   0.490   0.684  1.6003 -0.4736 -1.2076
  125MOL   H26637714   6.984   0.446   0.846  2.7629 -1.3520  1.7338
  125MOL   H26737715   7.176   0.551   0.737 -1.1482  0.4979 -0.1292
  125MOL   H26837716   7.222   0.385   0.761 -0.7637  0.9007  1.6297
  125MOL   H26937717   7.174   0.455   0.604  0.7490  1.1528 -0.2522
  125MOL   H27037718   7.254   0.127   0.615 -0.0502  1.4949 -0.3241
  125MOL   H27137719   7.221   7.909   0.566  2.3160  1.3100 -0.0517
  125MOL   C27237720   7.134   0.100   0.431  0.2005 -0.4829 -0.4175
  125MOL   O27337721   7.246   0.132   0.355  0.3161  0.5222  0.4024
  125MOL   C27437722   7.283   0.264   0.329  0.1434  0.3150  0.5361
  125MOL   O27537723   7.219   0.361   0.361 -0.5157  0.0830 -0.3722
  125MOL   C27637724   7.417   0.281   0.266  0.2973 -0.2598  0.4136
  125MOL   C27737725   7.528   0.180   0.317  0.5033 -1.2090 -0.4464
  125MOL   C27837726   7.047   7.938   0.355 -0.8328 -0.2943 -0.9607
  125MOL   H27937727   7.076   0.191   0.449 -0.6020 -0.9595 -0.5628
  125MOL   H28037728   7.399   0.257   0.161 -2.1682  0.8292  0.5479
  125MOL   H28137729   7.449   0.383   0.289  0.9554 -0.2592 -0.4709
  125MOL   H28237730   7.633   0.207   0.307  1.1716 -3.1700  0.9097
  125MOL   H28337731   7.503   0.157   0.420 -0.3260  5.6243  1.1176
  125MOL   H28437732   7.519   0.089   0.257 -1.6121 -0.4352 -1.3271
  125MOL   H28537733   7.109   7.852   0.328 -2.3027 -1.6314 -0.1485
  125MOL   H28637734   6.975   7.893   0.423  2.1675 -5.0764 -0.7318
  125MOL   C28737735   6.971   0.053   0.233  0.2572 -0.1576 -0.8072
  125MOL   O28837736   6.883   7.890   0.203 -0.0260  0.2828 -0.1263
  125MOL   C28937737   6.897   7.824   0.095  0.0076 -0.6583  0.1671
  125MOL   O29037738   6.966   7.858   7.938 -0.1210  0.0735 -0.3521
  125MOL   C29137739   6.806   7.699   0.086 -0.4157 -0.4356  0.0483
  125MOL   C29237740   6.855   7.589   0.189 -0.2468  0.2730  0.4075
  125MOL   C29337741   6.886   0.171   0.263 -0.1407  0.5935  0.2170
  125MOL   H29437742   7.036   0.080   0.150  0.6202 -1.0708 -0.8302
  125MOL   H29537743   6.706   7.729   0.118 -0.7191 -1.2914 -0.0849
  125MOL   H29637744   6.805   7.654   7.932 -1.7096 -0.8694  0.2463
  125MOL   H29737745   6.815   7.601   0.290 -2.4865  0.1813 -0.4370
  125MOL   H29837746   6.826   7.492   0.150  0.5546  0.5351 -0.8600
  125MOL   H29937747   6.963   7.580   0.201 -0.1110  0.6778 -0.5321
  125MOL   H30037748   6.800   0.143   0.325  0.3236 -0.3132  0.4519
  125MOL   H30137749   6.928   0.261   0.309  1.5161 -0.1471  0.1808
  125MOL   H30237750   6.858   0.208   0.164  2.1958  1.2922 -0.2200
  126MOL     C137751   6.283   4.133   7.141 -0.0246 -0.3512 -0.6027
  126MOL     O237752   6.386   4.122   7.047 -0.0126  0.3914  0.2733
  126MOL     C337753   6.477   4.224   7.053 -0.0999 -0.1099  0.9119
  126MOL     O437754   6.481   4.313   7.134 -0.3264  0.1321  0.0612
  126MOL     C537755   6.557   4.221   6.924  0.0791 -0.4316  0.0301
  126MOL     C637756   6.670   4.329   6.926 -0.0031  0.0012  0.2224
  126MOL     C737757   6.154   4.193   7.074  0.9309 -0.8727 -0.5414
  126MOL     H837758   6.310   4.205   7.218 -0.2809 -1.4267  0.5035
  126MOL     H937759   6.588   4.117   6.919 -1.0182 -0.7863  0.5142
  126MOL    H1037760   6.494   4.234   6.835 -0.6194 -0.3956  0.5279
  126MOL    H1137761   6.727   4.314   6.834  2.8266  0.2824  1.8844
  126MOL    H1237762   6.634   4.431   6.914 -0.6321 -0.2830 -0.3246
  126MOL    H1337763   6.727   4.320   7.018 -2.7089  1.6500  2.1312
  126MOL    H1437764   6.173   4.281   7.013  0.8014 -0.0905  0.5307
  126MOL    H1537765   6.111   4.117   7.008  0.4596 -1.3548  0.3111
  126MOL    H1637766   6.258   4.047   7.202  0.4930  0.5058  0.8373
  126MOL    C1737767   6.033   4.218   7.183 -0.4111  0.3898 -0.3246
  126MOL    O1837768   6.067   4.328   7.262 -0.4672 -0.1327  0.0153
  126MOL    C1937769   6.100   4.309   7.398  0.2391 -0.5101  0.5008
  126MOL    O2037770   6.106   4.198   7.444 -0.1620 -0.7257 -0.1159
  126MOL    C2137771   6.126   4.433   7.473  0.4576 -0.3914 -0.2065
  126MOL    C2237772   6.029   4.550   7.449 -0.6193 -0.1247 -0.5137
  126MOL    C2337773   5.893   4.232   7.121 -0.3670  0.3489 -0.7508
  126MOL    H2437774   6.036   4.122   7.235  1.8236  0.6255  0.0428
  126MOL    H2537775   6.123   4.397   7.576 -1.0722  0.8400  0.2057
  126MOL    H2637776   6.229   4.458   7.447  0.2979 -0.1271 -0.5876
  126MOL    H2737777   6.035   4.614   7.537 -1.9304 -2.1173  1.0845
  126MOL    H2837778   6.053   4.601   7.356  0.1726  1.7096  0.6722
  126MOL    H2937779   5.924   4.521   7.447 -0.4541 -0.6798 -1.6333
  126MOL    H3037780   5.896   4.329   7.072  0.7828  1.0235  0.6243
  126MOL    H3137781   5.878   4.157   7.044 -1.6101 -0.0916 -0.0985
  126MOL    C3237782   5.778   4.224   7.226  0.3004 -0.1755  0.1223
  126MOL    O3337783   5.652   4.251   7.162 -0.7467 -0.1202 -0.2475
  126MOL    C3437784   5.560   4.317   7.232 -0.3006  0.0061  0.2153
  126MOL    O3537785   5.562   4.345   7.351  0.3831 -0.3837  0.2454
  126MOL    C3637786   5.447   4.354   7.136  0.5662 -0.9262 -0.1573
  126MOL    C3737787   5.483   4.470   7.052 -0.2504  0.3106  0.7067
  126MOL    C3837788   5.769   4.103   7.321 -0.1785  0.1896 -0.3118
  126MOL    H3937789   5.806   4.309   7.288 -0.7624 -1.5526  2.5642
  126MOL    H4037790   5.439   4.269   7.067 -2.1760 -0.9243  0.0757
  126MOL    H4137791   5.351   4.357   7.189 -1.2477 -0.2291 -3.3584
  126MOL    H4237792   5.471   4.555   7.119 -0.9901  1.0438 -0.3504
  126MOL    H4337793   5.588   4.469   7.024 -0.1666 -1.2374  1.0273
  126MOL    H4437794   5.426   4.489   6.961  0.9636  0.4335 -0.0449
  126MOL    H4537795   5.867   4.084   7.365  0.1556 -0.3756 -1.2751
  126MOL    H4637796   5.700   4.128   7.402 -2.5669  0.3985 -2.3609
  126MOL    C4737797   5.731   3.961   7.263 -0.8508  0.0898 -0.5715
  126MOL    O4837798   5.847   3.897   7.219 -0.6821 -0.1895  0.1071
  126MOL    C4937799   5.848   3.838   7.092  0.4449 -0.1617 -0.2429
  126MOL    O5037800   5.762   3.845   7.006 -0.1232  0.0920  0.2359
  126MOL    C5137801   5.988   3.780   7.069 -0.6490  0.8015  0.7511
  126MOL    C5237802   6.035   3.703   7.188 -0.4537  0.3048 -0.1744
  126MOL    C5337803   5.659   3.874   7.366  0.3755  0.0075 -0.4682
  126MOL    H5437804   5.658   3.981   7.184 -3.0790 -1.3585  1.0800
  126MOL    H5537805   5.964   3.709   6.990  2.1076  0.4720  0.1665
  126MOL    H5637806   6.054   3.859   7.033 -1.4350  1.4012  0.6101
  126MOL    H5737807   6.127   3.646   7.178 -0.8617 -0.3919 -0.0732
  126MOL    H5837808   6.050   3.772   7.271  2.7569 -0.7124  0.1335
  126MOL    H5937809   5.962   3.624   7.210 -0.8091  1.0636  1.4838
  126MOL    H6037810   5.657   3.777   7.316 -1.1287 -0.8402  1.1796
  126MOL    H6137811   5.730   3.865   7.448  1.7466 -2.2751 -1.8717
  126MOL    C6237812   5.521   3.928   7.404  0.0764 -0.0094 -0.0204
  126MOL    O6337813   5.435   3.943   7.293 -0.0508  0.6457 -0.4280
  126MOL    C6437814   5.388   3.837   7.224 -0.0035  0.2157  0.3674
  126MOL    O6537815   5.404   3.721   7.249  0.5848  0.4373 -0.1008
  126MOL    C6637816   5.273   3.870   7.129  0.5455 -0.3373 -0.0533
  126MOL    C6737817   5.136   3.867   7.191 -0.2139  0.3646 -0.7675
  126MOL    C6837818   5.451   3.863   7.532  0.6304 -0.1371 -0.1641
  126MOL    H6937819   5.538   4.032   7.431 -1.9047  0.4307 -0.4567
  126MOL    H7037820   5.298   3.966   7.083 -0.9221  1.0648  1.9681
  126MOL    H7137821   5.286   3.790   7.056  1.2646 -1.7173  1.5641
  126MOL    H7237822   5.055   3.918   7.139 -0.7847  1.2047  0.9183
  126MOL    H7337823   5.100   3.768   7.218  2.6048 -0.8919 -1.3619
  126MOL    H7437824   5.139   3.918   7.287 -2.0120 -0.9355  0.0164
  126MOL    H7537825   5.414   3.765   7.500  3.7974 -1.1716 -0.8674
  126MOL    H7637826   5.526   3.850   7.610  1.7086  1.4759 -0.9139
  126MOL    C7737827   5.337   3.956   7.584  0.0997  0.0147  0.0449
  126MOL    O7837828   5.274   3.905   7.704  0.5174 -0.0561  0.6710
  126MOL    C7937829   5.145   3.864   7.705 -0.0701  0.3378  0.4761
  126MOL    O8037830   5.068   3.886   7.614  0.4784 -0.3258 -0.4847
  126MOL    C8137831   5.119   3.768   7.815  0.1091 -0.0182  0.2058
  126MOL    C8237832   5.234   3.684   7.862  0.0008  0.9211 -0.6025
  126MOL    C8337833   5.362   4.104   7.600  0.0268 -0.1154 -0.6458
  126MOL    H8437834   5.270   3.947   7.498  0.3913  2.1506 -0.4290
  126MOL    H8537835   5.075   3.819   7.901 -0.5633 -1.0834  0.4983
  126MOL    H8637836   5.038   3.706   7.777 -0.2723  0.1897  0.6744
  126MOL    H8737837   5.289   3.743   7.935  1.1329 -1.5849  0.6031
  126MOL    H8837838   5.216   3.592   7.917  3.7410 -0.0840 -0.9172
  126MOL    H8937839   5.303   3.648   7.786 -1.6562 -1.2761 -1.1338
  126MOL    H9037840   5.366   4.153   7.502 -1.4547 -2.2870 -1.8400
  126MOL    H9137841   5.265   4.137   7.637  0.3663  1.5895 -1.2150
  126MOL    C9237842   5.471   4.146   7.704 -0.7339  0.2343  0.3253
  126MOL    O9337843   5.508   4.284   7.676  0.0850  0.5132  0.1449
  126MOL    C9437844   5.642   4.308   7.651 -1.1069 -0.5455  0.0110
  126MOL    O9537845   5.730   4.222   7.630  0.2371 -0.4794 -0.7054
  126MOL    C9637846   5.674   4.462   7.660  0.2301 -0.0290  0.1619
  126MOL    C9737847   5.628   4.517   7.787 -0.2805 -0.0431  0.0488
  126MOL    C9837848   5.435   4.146   7.854 -0.3144 -0.0086 -0.2929
  126MOL    H9937849   5.555   4.080   7.685 -0.7066  0.2709  0.3209
  126MOL   H10037850   5.782   4.479   7.661  0.0794  0.9450  0.3710
  126MOL   H10137851   5.636   4.506   7.567 -0.0504 -1.0724 -0.2200
  126MOL   H10237852   5.600   4.621   7.767 -0.6964 -0.2404 -0.3969
  126MOL   H10337853   5.535   4.471   7.821 -0.2526  0.7937  1.3136
  126MOL   H10437854   5.697   4.521   7.871 -1.2774  0.2337  0.8797
  126MOL   H10537855   5.374   4.237   7.855 -0.4786 -0.0497 -2.7687
  126MOL   H10637856   5.378   4.057   7.879 -0.3958 -0.3056 -1.5276
  126MOL   C10737857   5.543   4.170   0.013 -0.0322  1.1510  0.6675
  126MOL   O10837858   5.486   4.251   0.107 -0.5856  0.2809 -0.1132
  126MOL   C10937859   5.552   4.343   0.177  0.5089 -0.1523  0.0227
  126MOL   O11037860   5.670   4.360   0.191  0.2706 -0.6662 -0.0803
  126MOL   C11137861   5.449   4.439   0.236  0.2035 -0.3515  0.8355
  126MOL   C11237862   5.454   4.579   0.183  0.6550 -0.6426  0.1832
  126MOL   C11337863   5.589   4.034   0.083 -0.4045  0.7775  0.3051
  126MOL   H11437864   5.634   4.210   7.912  0.8023  0.1833  1.4565
  126MOL   H11537865   5.347   4.401   0.239  0.2541 -0.5942 -0.5329
  126MOL   H11637866   5.482   4.449   0.340  0.6219  0.0603  0.6672
  126MOL   H11737867   5.367   4.637   0.214 -0.6542 -2.1448 -0.6509
  126MOL   H11837868   5.539   4.635   0.222  0.7221  0.2165 -1.1506
  126MOL   H11937869   5.466   4.592   0.075 -3.0841  2.1418  0.0173
  126MOL   H12037870   5.636   4.063   0.177  0.1637  2.2922 -0.4202
  126MOL   H12137871   5.500   3.981   0.116  0.0390  0.5096  1.0744
  126MOL   C12237872   5.679   3.939   0.005  0.1497 -0.3187 -0.7296
  126MOL   O12337873   5.800   4.010   7.927 -0.0624 -0.5474  0.1861
  126MOL   C12437874   5.861   3.987   7.802 -0.1348 -0.3826  0.3459
  126MOL   O12537875   5.807   3.923   7.708 -0.1865 -0.0175 -0.2366
  126MOL   C12637876   6.009   4.028   7.796  0.1807 -0.3482  1.0046
  126MOL   C12737877   6.028   4.185   7.794  0.1801 -0.5865  0.1768
  126MOL   C12837878   5.705   3.811   0.094 -0.1301  0.9428 -0.0486
  126MOL   H12937879   5.633   3.911   7.855  1.8046 -0.7015 -1.4308
  126MOL   H13037880   6.057   3.999   7.890 -0.3033  0.3210  1.4691
  126MOL   H13137881   6.052   3.981   7.708 -2.2836  1.2339 -1.1145
  126MOL   H13237882   6.132   4.210   7.775 -0.2631 -0.1182 -1.7834
  126MOL   H13337883   5.967   4.218   7.710 -0.0998 -1.8662 -0.1473
  126MOL   H13437884   6.011   4.235   7.889  0.3434  0.1281 -0.1696
  126MOL   H13537885   5.761   3.845   0.181  1.6629  0.8681 -1.1376
  126MOL   H13637886   5.610   3.778   0.137 -1.6269  3.4521 -1.3324
  126MOL   C13737887   5.762   3.687   0.030 -0.1230  0.9046 -0.1113
  126MOL   O13837888   5.851   3.614   0.116 -0.1831  0.0281 -0.3474
  126MOL   C13937889   5.973   3.663   0.139 -0.0137  0.7129  0.5616
  126MOL   O14037890   6.023   3.755   0.073  0.4991  0.3111 -0.3054
  126MOL   C14137891   6.046   3.568   0.234 -0.3490  0.0656 -0.6269
  126MOL   C14237892   6.190   3.616   0.273  0.1058 -0.4325  0.1936
  126MOL   C14337893   5.650   3.590   7.930 -0.1802  0.4263  0.1850
  126MOL   H14437894   5.829   3.719   7.894  0.3057  0.2991  0.0046
  126MOL   H14537895   5.988   3.578   0.325  0.8850 -0.8481  0.2709
  126MOL   H14637896   6.030   3.462   0.214  0.1020 -0.2430  0.6408
  126MOL   H14737897   6.197   3.724   0.279  2.1353 -0.4443 -1.4344
  126MOL   H14837898   6.230   3.563   0.359 -0.6518  2.5580  2.4441
  126MOL   H14937899   6.257   3.591   0.190 -0.1012 -1.4572  0.3243
  126MOL   H15037900   5.623   3.524   0.068  0.9385  0.3085  0.4686
  126MOL   H15137901   5.564   3.651   7.902 -0.0871 -0.1798 -1.4553
  126MOL   C15237902   5.694   3.495   7.814 -0.4668 -0.0593  0.0740
  126MOL   O15337903   5.617   3.375   7.818  0.1767  0.1282  0.3830
  126MOL   C15437904   5.670   3.249   7.826 -0.6190 -0.5789  0.2239
  126MOL   O15537905   5.792   3.221   7.813 -0.2762  0.6345  0.2877
  126MOL   C15637906   5.575   3.147   7.872  0.0987  0.7223 -0.6038
  126MOL   C15737907   5.546   3.154   0.076  1.0355 -0.1780 -0.1089
  126MOL   C15837908   5.672   3.562   7.677  0.5920  0.6599 -0.4986
  126MOL   H15937909   5.800   3.470   7.822 -0.8018 -0.8338  2.5112
  126MOL   H16037910   5.478   3.165   7.825 -0.6522  2.1186  1.4059
  126MOL   H16137911   5.603   3.049   7.834  0.1054  0.8587 -0.9491
  126MOL   H16237912   5.624   3.123   0.146 -0.1974  0.6325  1.6505
  126MOL   H16337913   5.524   3.258   0.099 -1.8050 -0.5276 -1.1164
  126MOL   H16437914   5.456   3.108   0.116  1.5783  0.4935  1.9602
  126MOL   H16537915   5.563   3.572   7.674  0.5033 -0.0736  0.1856
  126MOL   H16637916   5.711   3.663   7.690 -0.7246  0.9905  0.9866
  126MOL   C16737917   5.733   3.494   7.547  0.1429  0.7955 -0.4195
  126MOL   O16837918   5.637   3.507   7.446 -0.8037 -0.5079  0.3312
  126MOL   C16937919   5.557   3.390   7.416 -0.3346  0.0978  0.2285
  126MOL   O17037920   5.559   3.284   7.482 -0.2644  0.4878 -0.0852
  126MOL   C17137921   5.462   3.412   7.300 -0.6299 -0.2113  0.0522
  126MOL   C17237922   5.535   3.404   7.161  0.3711 -0.0338 -0.2292
  126MOL   C17337923   5.864   3.562   7.501  0.0746 -0.3978  0.9210
  126MOL   H17437924   5.759   3.391   7.568  0.7556  1.1489  0.5894
  126MOL   H17537925   5.378   3.343   7.311 -1.3980  0.8718  1.1763
  126MOL   H17637926   5.418   3.509   7.320  2.4056  1.4699 -1.1186
  126MOL   H17737927   5.572   3.306   7.132  0.2880 -0.7159  1.8885
  126MOL   H17837928   5.470   3.442   7.082  0.9146  0.4697 -0.4415
  126MOL   H17937929   5.616   3.477   7.160  1.2842 -1.0461 -0.5845
  126MOL   H18037930   5.895   3.516   7.407 -0.8949  0.1695  0.3077
  126MOL   H18137931   5.841   3.662   7.464 -0.2381 -1.4384 -1.8169
  126MOL   C18237932   5.983   3.559   7.602  0.3358 -0.0440  0.3912
  126MOL   O18337933   6.032   3.426   7.606  0.6031 -0.3437  0.3174
  126MOL   C18437934   6.066   3.370   7.714  0.3520  0.3397 -0.1913
  126MOL   O18537935   6.063   3.413   7.827  0.0070  0.0550  0.3023
  126MOL   C18637936   6.103   3.222   7.682  0.5521 -0.1588 -0.2775
  126MOL   C18737937   6.184   3.198   7.560  0.1369  0.3402 -0.2851
  126MOL   C18837938   6.097   3.642   7.543 -0.0597 -0.3224 -0.3430
  126MOL   H18937939   5.948   3.594   7.699 -0.4978 -0.3658  0.2104
  126MOL   H19037940   6.161   3.196   7.769  1.6762  1.8506 -0.4026
  126MOL   H19137941   6.012   3.164   7.699 -0.2952  1.0234 -0.6795
  126MOL   H19237942   6.279   3.250   7.570  1.5362 -2.2695  0.4860
  126MOL   H19337943   6.206   3.093   7.539  0.6964  0.1252  1.3366
  126MOL   H19437944   6.126   3.239   7.477 -0.5993 -0.2323 -0.0625
  126MOL   H19537945   6.132   3.606   7.446 -0.3374 -0.6076 -0.3358
  126MOL   H19637946   6.067   3.744   7.521 -0.3320 -0.4721 -0.6740
  126MOL   C19737947   6.235   3.638   7.611 -0.3329 -0.3017  0.9561
  126MOL   O19837948   6.329   3.699   7.526  0.0030 -0.6771  0.4140
  126MOL   C19937949   6.438   3.624   7.491 -0.8497 -0.3035 -0.1171
  126MOL   O20037950   6.467   3.510   7.521 -0.2190  0.4060 -0.1089
  126MOL   C20137951   6.513   3.700   7.385  0.4460 -0.0812  0.0138
  126MOL   C20237952   6.418   3.760   7.277 -0.4683  0.1935 -0.1774
  126MOL   C20337953   6.232   3.723   7.738 -0.0784 -0.2213 -0.2076
  126MOL   H20437954   6.267   3.537   7.634  2.0990  0.4754  1.1325
  126MOL   H20537955   6.561   3.785   7.434  1.4550 -0.3669 -0.4457
  126MOL   H20637956   6.581   3.637   7.328  1.1085  0.9493 -0.3663
  126MOL   H20737957   6.466   3.776   7.181 -0.6277 -3.0420 -0.8432
  126MOL   H20837958   6.344   3.685   7.252  0.8203 -0.6700 -1.5074
  126MOL   H20937959   6.367   3.847   7.319  0.4561  0.0396  1.3204
  126MOL   H21037960   6.217   3.825   7.704 -0.4348  0.2078  1.2019
  126MOL   H21137961   6.156   3.689   7.808 -1.1360  0.1782 -1.1586
  126MOL   C21237962   6.369   3.721   7.822 -0.9378 -1.1164  0.7303
  126MOL   O21337963   6.344   3.797   7.937  0.2477 -0.4166  0.2617
  126MOL   C21437964   6.362   3.930   7.943  0.5690  0.7331 -0.8973
  126MOL   O21537965   6.402   3.991   7.848  0.6123 -0.8649  0.1012
  126MOL   C21637966   6.323   3.989   0.135  0.4806 -0.3801 -0.2542
  126MOL   C21737967   6.294   4.145   0.134 -0.1495  0.0075  0.4808
  126MOL   C21837968   6.417   3.576   7.868 -0.1302  0.3602 -0.2721
  126MOL   H21937969   6.451   3.769   7.770 -1.2278 -0.9742  0.4006
  126MOL   H22037970   6.241   3.933   0.181  2.8168 -0.5623  3.8480
  126MOL   H22137971   6.399   3.958   0.207 -0.1669 -4.7126 -1.2618
  126MOL   H22237972   6.205   4.171   0.076 -1.5463 -0.1153  2.5210
  126MOL   H22337973   6.280   4.181   0.236  0.3137 -2.0941  1.3174
  126MOL   H22437974   6.380   4.201   0.096 -2.5240  1.0858 -3.6753
  126MOL   H22537975   6.340   3.521   7.921  0.9473  0.8600  1.8737
  126MOL   H22637976   6.430   3.514   7.780 -0.3451 -0.8800  0.5644
  126MOL   C22737977   6.528   3.563   0.028 -0.0926  0.1795 -0.8441
  126MOL   O22837978   6.554   3.428   0.062  0.0584 -0.1852  0.0954
  126MOL   C22937979   6.521   3.375   0.187 -0.0068  0.7591 -0.0745
  126MOL   O23037980   6.490   3.439   0.292 -0.0649 -0.0115 -0.1779
  126MOL   C23137981   6.555   3.224   0.209  0.1465  0.0393 -0.2560
  126MOL   C23237982   6.463   3.143   0.123  0.7437  0.5645 -0.0214
  126MOL   C23337983   6.657   3.636   7.936  0.4928  0.5832 -0.3971
  126MOL   H23437984   6.487   3.620   0.112  0.5931 -0.6164  0.0384
  126MOL   H23537985   6.661   3.214   0.183  0.5328  0.4671  1.1368
  126MOL   H23637986   6.537   3.198   0.313 -0.3224 -1.1724 -0.6245
  126MOL   H23737987   6.381   3.108   0.185  1.5841  2.4843  2.2192
  126MOL   H23837988   6.414   3.201   0.045 -1.0631  0.0006  0.6811
  126MOL   H23937989   6.499   3.048   0.082 -1.1077  0.9348 -2.6308
  126MOL   H24037990   6.631   3.737   7.904 -0.3033  0.2173 -0.9190
  126MOL   H24137991   6.724   3.644   0.077 -0.1344 -0.7967  0.2487
  126MOL   C24237992   6.745   3.564   7.835 -0.5875 -0.1083  0.7992
  126MOL   O24337993   6.824   3.669   7.785 -0.3324  0.4170  0.0904
  126MOL   C24437994   6.834   3.695   7.654 -0.4340  0.0101  0.5079
  126MOL   O24537995   6.784   3.630   7.564 -0.1468  0.3949 -0.4813
  126MOL   C24637996   6.924   3.816   7.619  0.1479  0.8655 -0.0690
  126MOL   C24737997   6.895   3.957   7.676  0.2813  0.0084 -0.2407
  126MOL   C24837998   6.841   3.448   7.880  0.0640  0.2093 -0.0923
  126MOL   H24937999   6.678   3.526   7.757 -0.2689 -0.3408  0.6373
  126MOL   H25038000   7.021   3.793   7.664 -0.1379  0.3948  0.3089
  126MOL   H25138001   6.936   3.829   7.511 -0.6252 -0.7026 -0.3575
  126MOL   H25238002   6.924   3.978   7.779 -1.2524 -0.2360  0.2651
  126MOL   H25338003   6.961   4.026   7.624 -1.3348  1.0607 -0.9323
  126MOL   H25438004   6.794   3.986   7.645  1.1089  1.1720 -1.8950
  126MOL   H25538005   6.940   3.489   7.905 -0.4036  0.7007  0.9934
  126MOL   H25638006   6.810   3.404   0.030  0.5774  2.3391  1.1018
  126MOL   C25738007   6.856   3.343   7.770 -0.0232  0.1306 -0.1303
  126MOL   O25838008   6.987   3.302   7.727  0.4314  0.4963 -0.3269
  126MOL   C25938009   7.074   3.245   7.806  0.6056 -0.6590 -0.0234
  126MOL   O26038010   7.058   3.226   7.927 -0.6701  0.0748 -0.1608
  126MOL   C26138011   7.204   3.214   7.741 -0.5656  0.3020  0.1568
  126MOL   C26238012   7.249   3.079   7.791 -0.1906 -0.1748 -0.0177
  126MOL   C26338013   6.756   3.230   7.801 -0.5584 -0.0170  0.2704
  126MOL   H26438014   6.831   3.396   7.679  0.3418  2.0679  0.8760
  126MOL   H26538015   7.189   3.197   7.634 -1.1456  0.0245  0.2776
  126MOL   H26638016   7.281   3.290   7.759  0.3702 -0.3295 -1.0842
  126MOL   H26738017   7.355   3.073   7.817 -0.2492  1.4420  0.6438
  126MOL   H26838018   7.203   3.047   7.885  0.4371  2.2498  1.1676
  126MOL   H26938019   7.226   3.001   7.719 -0.8333  1.6079 -1.7812
  126MOL   H27038020   6.777   3.166   7.886 -1.5412  0.5403  0.9316
  126MOL   H27138021   6.663   3.281   7.826 -1.1631  0.1903 -2.2503
  126MOL   C27238022   6.719   3.142   7.681  1.1062 -0.4824 -0.2046
  126MOL   O27338023   6.613   3.057   7.727 -0.2899  0.2354 -0.7965
  126MOL   C27438024   6.618   2.925   7.732 -0.2912  0.1073  0.1163
  126MOL   O27538025   6.718   2.860   7.742  0.0757  0.7193 -0.1808
  126MOL   C27638026   6.484   2.865   7.764  0.0620  0.0931 -0.1092
  126MOL   C27738027   6.371   2.930   7.702 -0.5701  0.8828 -1.0452
  126MOL   C27838028   6.665   3.222   7.565  0.0942 -0.3296 -0.5752
  126MOL   H27938029   6.807   3.096   7.635  2.5500  1.2120  0.8225
  126MOL   H28038030   6.478   2.759   7.738  0.0934 -0.0504  0.4453
  126MOL   H28138031   6.474   2.880   7.872  2.1451  0.4268  0.0717
  126MOL   H28238032   6.385   2.935   7.594  0.1149  3.8468 -0.8726
  126MOL   H28338033   6.281   2.875   7.729  0.2660 -0.5172 -1.0798
  126MOL   H28438034   6.362   3.027   7.751  0.3755 -0.1629  1.2731
  126MOL   H28538035   6.601   3.303   7.600 -1.2614 -1.0656 -1.2901
  126MOL   H28638036   6.746   3.279   7.520 -0.3309 -0.1703 -1.1497
  126MOL   C28738037   6.602   3.142   7.451 -0.7055 -0.7755 -0.2142
  126MOL   O28838038   6.564   3.243   7.357  0.1305 -0.2485  0.3195
  126MOL   C28938039   6.443   3.244   7.285  0.7230 -0.7211  0.1267
  126MOL   O29038040   6.354   3.158   7.298  0.0927 -0.0436  0.4437
  126MOL   C29138041   6.432   3.365   7.189  0.7999  0.2359  0.4638
  126MOL   C29238042   6.283   3.405   7.152  0.4364 -0.7372  0.1008
  126MOL   C29338043   6.705   3.043   7.383 -0.0395  0.0260  0.5898
  126MOL   H29438044   6.513   3.096   7.494 -0.3707  0.5750  2.0071
  126MOL   H29538045   6.482   3.450   7.235  3.2454 -0.1136 -1.4445
  126MOL   H29638046   6.483   3.341   7.096  3.8799  1.0143  1.8795
  126MOL   H29738047   6.275   3.495   7.091 -2.5449  0.2730  1.9058
  126MOL   H29838048   6.238   3.328   7.089 -0.8887  1.6724 -1.9559
  126MOL   H29938049   6.221   3.428   7.238  0.7109 -1.0477  0.3861
  126MOL   H30038050   6.775   3.109   7.331  0.1667 -1.9176 -1.6539
  126MOL   H30138051   6.771   2.978   7.440  0.1253 -2.5289 -2.4093
  126MOL   H30238052   6.672   2.986   7.296 -0.5812  1.3432 -0.0847
  127MOL     C138053   0.610   3.044   4.740 -0.6447 -0.6942  0.3321
  127MOL     O238054   0.609   3.037   4.599 -0.3413 -0.1910 -0.0923
  127MOL     C338055   0.495   3.014   4.524 -0.6888  0.1639 -0.0952
  127MOL     O438056   0.390   2.967   4.564 -0.0980 -0.1043 -0.3594
  127MOL     C538057   0.514   3.055   4.376 -0.0534 -0.3048 -0.2009
  127MOL     C638058   0.405   3.019   4.279 -0.2102  0.7100 -0.5955
  127MOL     C738059   0.732   3.126   4.790  0.3924  0.4292  0.4382
  127MOL     H838060   0.608   2.945   4.785 -2.0662 -0.3284  1.0892
  127MOL     H938061   0.517   3.164   4.366  1.2080 -0.4052 -1.0666
  127MOL    H1038062   0.613   3.029   4.338  0.0751  0.8038 -0.6664
  127MOL    H1138063   0.380   2.913   4.272  0.8279  0.5458 -2.0833
  127MOL    H1238064   0.307   3.060   4.305  0.0334 -0.0901  1.7365
  127MOL    H1338065   0.419   3.050   4.176  1.5446 -1.2895 -0.9911
  127MOL    H1438066   0.819   3.061   4.782 -0.0529 -0.0212 -0.9106
  127MOL    H1538067   0.746   3.222   4.740 -1.6816  1.0385  0.9798
  127MOL    H1638068   0.521   3.096   4.775 -1.7005 -1.4621 -1.1610
  127MOL    C1738069   0.714   3.151   4.940  0.2840 -0.1737 -0.0038
  127MOL    O1838070   0.709   3.036   5.022 -0.3970 -0.0149 -0.0894
  127MOL    C1938071   0.595   3.011   5.095 -0.0425  0.3529  0.0401
  127MOL    O2038072   0.491   3.075   5.094 -0.1077  0.1706 -0.3736
  127MOL    C2138073   0.614   2.889   5.181  0.7598 -0.5012 -0.7727
  127MOL    C2238074   0.518   2.868   5.294 -0.0131 -0.2318 -0.1991
  127MOL    C2338075   0.831   3.235   4.990 -0.9371 -0.1912  0.1751
  127MOL    H2438076   0.625   3.214   4.945 -0.6641 -1.4737 -0.3017
  127MOL    H2538077   0.612   2.796   5.125 -1.2524 -1.0859  0.2321
  127MOL    H2638078   0.718   2.894   5.216  0.7483 -0.9684 -0.6748
  127MOL    H2738079   0.452   2.952   5.318 -0.5050 -1.2533  2.1254
  127MOL    H2838080   0.439   2.795   5.272 -1.8760  1.5479  0.4336
  127MOL    H2938081   0.567   2.842   5.387 -0.3367 -0.8473 -0.1978
  127MOL    H3038082   0.918   3.169   4.985 -1.5777 -1.0384  0.2136
  127MOL    H3138083   0.847   3.324   4.930 -1.2250  0.2449  0.7369
  127MOL    C3238084   0.811   3.286   5.133 -0.1257  0.0954 -0.9821
  127MOL    O3338085   0.927   3.358   5.185  0.3281  0.2129 -0.0596
  127MOL    C3438086   1.045   3.292   5.214 -0.6853 -0.1053 -0.2059
  127MOL    O3538087   1.063   3.166   5.211  0.3100  0.5426 -0.4009
  127MOL    C3638088   1.153   3.379   5.269  0.6311  0.9794  0.3511
  127MOL    C3738089   1.234   3.453   5.152 -0.2692 -0.1891 -0.4136
  127MOL    C3838090   0.692   3.380   5.158 -0.7857  0.1123  0.2423
  127MOL    H3938091   0.801   3.208   5.209 -0.1845  0.8016 -0.2533
  127MOL    H4038092   1.112   3.446   5.344  1.1585  1.3870  0.2750
  127MOL    H4138093   1.214   3.323   5.340 -0.3538  0.4272  0.7667
  127MOL    H4238094   1.341   3.433   5.156  0.2835  2.6072 -0.4216
  127MOL    H4338095   1.185   3.426   5.058 -2.1618 -0.0945  0.5028
  127MOL    H4438096   1.225   3.561   5.152  0.2222 -0.1499 -1.6185
  127MOL    H4538097   0.703   3.480   5.116  1.0832 -0.0473  0.3080
  127MOL    H4638098   0.606   3.334   5.110 -1.8959 -0.0944  2.3580
  127MOL    C4738099   0.657   3.393   5.305  0.2884 -0.2387 -0.0447
  127MOL    O4838100   0.564   3.499   5.323  0.1795 -0.4802 -0.5283
  127MOL    C4938101   0.595   3.606   5.400 -0.1813  0.3153 -0.1398
  127MOL    O5038102   0.708   3.627   5.445  0.1936  0.1020 -0.3201
  127MOL    C5138103   0.475   3.705   5.404 -0.4591  0.2502 -0.0533
  127MOL    C5238104   0.524   3.852   5.397 -0.0424 -0.6388  0.3664
  127MOL    C5338105   0.591   3.265   5.362  0.2606 -0.7631  0.2071
  127MOL    H5438106   0.756   3.401   5.351 -0.7474  2.4019  1.8593
  127MOL    H5538107   0.408   3.679   5.322  1.2182  0.3893 -1.4762
  127MOL    H5638108   0.419   3.698   5.498  1.9731  0.7201  1.4609
  127MOL    H5738109   0.587   3.869   5.485 -0.4899 -2.3387  1.0366
  127MOL    H5838110   0.587   3.857   5.309 -0.8276 -2.5775 -0.3227
  127MOL    H5938111   0.437   3.917   5.404  0.2766 -0.2614  0.9097
  127MOL    H6038112   0.500   3.255   5.303  0.4642 -0.2791 -0.1903
  127MOL    H6138113   0.647   3.175   5.342  2.7999  0.0881  3.0659
  127MOL    C6238114   0.571   3.263   5.511  0.9747  0.0490 -1.1106
  127MOL    O6338115   0.505   3.142   5.541  0.0785 -0.3631 -0.4190
  127MOL    C6438116   0.402   3.143   5.623  0.3556 -1.0909  0.1337
  127MOL    O6538117   0.350   3.247   5.666 -0.1316  0.2643  0.1109
  127MOL    C6638118   0.341   3.006   5.642  0.0693 -0.5861 -0.2765
  127MOL    C6738119   0.232   3.011   5.750 -0.2923 -0.5349  0.2109
  127MOL    C6838120   0.700   3.277   5.599 -0.6702  0.1701 -0.5023
  127MOL    H6938121   0.508   3.349   5.535  0.2297 -0.4857 -1.1159
  127MOL    H7038122   0.285   2.989   5.551  0.9404 -0.6908 -0.7913
  127MOL    H7138123   0.423   2.935   5.650  1.0232  0.5877  0.6460
  127MOL    H7238124   0.267   3.017   5.853  1.9181 -0.6003 -0.5127
  127MOL    H7338125   0.160   3.088   5.721  0.4658  0.0955 -0.0159
  127MOL    H7438126   0.178   2.916   5.749  0.0819 -0.7649  1.4903
  127MOL    H7538127   0.735   3.380   5.598 -2.4665  0.9368  4.1343
  127MOL    H7638128   0.673   3.258   5.703 -0.2262 -0.6502 -0.5306
  127MOL    C7738129   0.819   3.184   5.556  0.6028  0.1374 -0.6590
  127MOL    O7838130   0.944   3.211   5.625 -0.3416 -0.6941  0.2634
  127MOL    C7938131   1.011   3.326   5.605 -0.0094 -0.3882  0.9510
  127MOL    O8038132   0.967   3.424   5.549  0.0105  0.5313  0.8062
  127MOL    C8138133   1.149   3.322   5.674  0.4271 -0.7934 -0.5899
  127MOL    C8238134   1.260   3.246   5.608  0.9320  0.6638  0.6004
  127MOL    C8338135   0.795   3.036   5.550  0.0806  0.3632  0.5332
  127MOL    H8438136   0.836   3.216   5.452 -1.0200  0.1622 -0.9170
  127MOL    H8538137   1.181   3.426   5.679  0.5645 -0.8609 -0.0564
  127MOL    H8638138   1.131   3.271   5.769 -1.3748 -0.6795 -0.8429
  127MOL    H8738139   1.342   3.229   5.678  2.9410 -0.2973 -1.9195
  127MOL    H8838140   1.237   3.143   5.582  2.2608  0.4528  0.2111
  127MOL    H8938141   1.290   3.298   5.517 -1.5183 -0.0377 -0.6313
  127MOL    H9038142   0.700   3.022   5.498  0.0181  3.1637 -0.2164
  127MOL    H9138143   0.875   3.004   5.483 -0.8802 -1.0039  0.0338
  127MOL    C9238144   0.819   2.947   5.674 -0.7336 -0.0077  0.0893
  127MOL    O9338145   0.698   2.967   5.750  0.3921 -0.0458  0.4486
  127MOL    C9438146   0.697   2.956   5.883  0.0734  0.8848  0.0056
  127MOL    O9538147   0.793   2.933   5.955 -0.0100 -0.4066  0.1801
  127MOL    C9638148   0.564   2.990   5.946  0.2943  0.1135  0.3216
  127MOL    C9738149   0.556   3.143   5.976  0.2000 -0.5809  0.4482
  127MOL    C9838150   0.850   2.805   5.644  0.5202 -0.0667  0.2548
  127MOL    H9938151   0.907   2.986   5.724 -0.2602 -0.1797 -0.5910
  127MOL   H10038152   0.488   2.957   5.876  0.2341  1.2181 -0.1407
  127MOL   H10138153   0.550   2.931   6.036  1.2894 -0.4079  0.1452
  127MOL   H10238154   0.575   3.203   5.888 -1.2652 -0.3965  0.2439
  127MOL   H10338155   0.451   3.161   5.999  0.6319  1.1219  1.1797
  127MOL   H10438156   0.617   3.186   6.056  0.1527  0.4873 -0.0885
  127MOL   H10538157   0.830   2.746   5.733  1.0185 -1.5137 -0.5759
  127MOL   H10638158   0.783   2.766   5.568 -0.8909 -0.6588  1.7784
  127MOL   C10738159   0.999   2.773   5.619 -0.3100  0.0071 -0.2927
  127MOL   O10838160   1.075   2.818   5.736  0.5591  0.1807 -0.3634
  127MOL   C10938161   1.202   2.858   5.724  1.0407  1.0436 -0.1551
  127MOL   O11038162   1.261   2.862   5.617  0.4475  0.2448 -0.0511
  127MOL   C11138163   1.277   2.880   5.854  0.4298 -0.4772  0.1927
  127MOL   C11238164   1.204   2.969   5.962 -0.0796  0.7088  0.2050
  127MOL   C11338165   1.029   2.624   5.605  0.3569 -0.0142  0.1410
  127MOL   H11438166   1.037   2.828   5.533 -1.0827  1.0995  0.0551
  127MOL   H11538167   1.293   2.787   5.910 -1.7023 -1.3654 -0.6436
  127MOL   H11638168   1.381   2.908   5.835  0.0067 -1.4159 -3.9845
  127MOL   H11738169   1.095   2.968   5.964 -0.1229 -3.9669  0.6408
  127MOL   H11838170   1.243   2.933   6.057  0.3427 -0.8081 -0.5309
  127MOL   H11938171   1.244   3.069   5.950  1.7631 -0.0366  0.0299
  127MOL   H12038172   1.132   2.600   5.632  1.0448  1.0858 -1.4408
  127MOL   H12138173   0.976   2.567   5.681  0.8836  0.9979  1.2696
  127MOL   C12238174   0.991   2.575   5.464 -0.2909  0.0090 -0.0395
  127MOL   O12338175   1.085   2.627   5.373  0.6490  0.0394  0.7185
  127MOL   C12438176   1.043   2.717   5.283 -0.6132  0.3732  0.1573
  127MOL   O12538177   0.944   2.784   5.305 -0.1659 -0.0155 -0.0734
  127MOL   C12638178   1.119   2.716   5.147  1.0867  0.2929  0.1400
  127MOL   C12738179   1.094   2.841   5.062  0.9888  0.4887  0.1167
  127MOL   C12838180   0.999   2.420   5.446  0.5501 -0.4187 -0.1189
  127MOL   H12938181   0.889   2.596   5.432 -0.3630  0.0856  0.2387
  127MOL   H13038182   1.227   2.714   5.161  1.0712 -0.2024  0.1698
  127MOL   H13138183   1.099   2.625   5.092  0.3145  0.5217  0.0400
  127MOL   H13238184   1.008   2.839   4.995  2.1231 -0.8203 -1.3263
  127MOL   H13338185   1.086   2.936   5.116  0.8811  0.3877  0.2770
  127MOL   H13438186   1.174   2.856   4.990  1.6996 -1.0483  0.5753
  127MOL   H13538187   1.002   2.395   5.340  1.8304  1.3634 -0.5188
  127MOL   H13638188   1.102   2.395   5.471  0.5773 -0.5800 -0.3843
  127MOL   C13738189   0.894   2.338   5.522  0.1900  0.3262 -0.3469
  127MOL   O13838190   0.774   2.341   5.448  0.0905  0.2135  0.0061
  127MOL   C13938191   0.675   2.422   5.475 -0.1859  0.9618 -0.2645
  127MOL   O14038192   0.670   2.504   5.567  0.3629 -0.5065 -0.3185
  127MOL   C14138193   0.561   2.400   5.385  0.5770 -0.2128  0.7003
  127MOL   C14238194   0.585   2.446   5.245 -0.6322  0.0532 -0.2629
  127MOL   C14338195   0.937   2.187   5.550 -0.4238  0.3364 -0.7625
  127MOL   H14438196   0.877   2.375   5.623  1.4786 -2.5326  0.9765
  127MOL   H14538197   0.545   2.292   5.380  1.6352 -0.3219 -0.5417
  127MOL   H14638198   0.474   2.444   5.434  0.3340  0.5747 -0.4188
  127MOL   H14738199   0.672   2.401   5.197 -0.5319  1.2138 -1.1988
  127MOL   H14838200   0.500   2.424   5.181 -1.1802 -1.2948  0.9053
  127MOL   H14938201   0.608   2.553   5.235  0.5992  0.0691  2.2424
  127MOL   H15038202   0.937   2.128   5.458  1.9046  0.0225 -0.5945
  127MOL   H15138203   1.042   2.177   5.576  0.2294  1.5370 -2.7835
  127MOL   C15238204   0.849   2.120   5.652  0.3085 -0.1968  0.3721
  127MOL   O15338205   0.863   1.978   5.628  0.0100  0.6823 -0.2606
  127MOL   C15438206   0.780   1.910   5.543  0.4753  0.1094 -0.0832
  127MOL   O15538207   0.677   1.954   5.490 -0.1870 -0.1636 -0.0673
  127MOL   C15638208   0.828   1.770   5.504 -0.2296 -0.6933 -0.5201
  127MOL   C15738209   0.801   1.658   5.613  0.1237 -0.3247  0.3016
  127MOL   C15838210   0.883   2.152   5.796  0.1281  0.6171 -0.2026
  127MOL   H15938211   0.749   2.154   5.625  0.5207  0.6408  0.6298
  127MOL   H16038212   0.780   1.756   5.407  0.7401  0.3156 -1.1643
  127MOL   H16138213   0.936   1.781   5.499 -0.2297 -1.0195 -1.3728
  127MOL   H16238214   0.799   1.559   5.566 -1.0218 -1.0799  1.8695
  127MOL   H16338215   0.869   1.652   5.698  1.8676  0.2591 -1.0324
  127MOL   H16438216   0.706   1.671   5.664 -0.9867 -0.4198 -1.6787
  127MOL   H16538217   0.984   2.124   5.827  0.2623  2.5814  1.3009
  127MOL   H16638218   0.879   2.261   5.803 -1.9787  0.4983  0.7063
  127MOL   C16738219   0.785   2.101   5.905 -1.2894  0.1722  0.6684
  127MOL   O16838220   0.805   1.958   5.929 -0.2386  0.1558  0.1091
  127MOL   C16938221   0.705   1.887   5.977 -0.0234  0.4619  0.5876
  127MOL   O17038222   0.595   1.929   6.018  0.1155 -0.6882  0.1735
  127MOL   C17138223   0.733   1.730   5.978  0.0694 -0.0648 -0.3329
  127MOL   C17238224   0.879   1.694   6.032  0.1615  0.0384  0.5875
  127MOL   C17338225   0.797   2.177   6.042  0.6070 -0.0939 -0.7184
  127MOL   H17438226   0.684   2.111   5.864 -0.2933  0.1406 -1.8461
  127MOL   H17538227   0.646   1.690   6.031 -1.8811  2.3359 -1.6039
  127MOL   H17638228   0.729   1.703   5.873 -2.7155  2.0732 -0.8457
  127MOL   H17738229   0.877   1.602   6.091  1.8808  1.1429  2.4317
  127MOL   H17838230   0.930   1.669   5.938 -3.3296  1.5414 -1.8246
  127MOL   H17938231   0.930   1.779   6.075  0.4955  0.5718 -0.8165
  127MOL   H18038232   0.724   2.141   6.114  1.6296  0.3957  0.5767
  127MOL   H18138233   0.896   2.157   6.081 -0.2458 -1.1725  0.9494
  127MOL   C18238234   0.776   2.331   6.039 -0.1480 -0.3677 -0.5310
  127MOL   O18338235   0.653   2.361   5.973  0.2649  0.0517 -0.1641
  127MOL   C18438236   0.638   2.472   5.896 -0.7711 -0.1800 -0.7325
  127MOL   O18538237   0.730   2.550   5.866 -0.2671 -0.3009  0.4757
  127MOL   C18638238   0.497   2.501   5.845  1.0473 -0.0712 -0.0847
  127MOL   C18738239   0.472   2.645   5.813  0.2996  0.3534  0.5372
  127MOL   C18838240   0.777   2.410   6.176  0.2429  0.1344  0.1411
  127MOL   H18938241   0.851   2.373   5.972  0.1938 -0.6556 -0.3293
  127MOL   H19038242   0.472   2.440   5.758 -1.0158  0.8774 -0.1834
  127MOL   H19138243   0.437   2.469   5.930 -0.8035  0.5172 -1.1388
  127MOL   H19238244   0.533   2.707   5.879  2.5223 -2.0518  0.8088
  127MOL   H19338245   0.521   2.669   5.718  2.4914 -1.2019  1.2538
  127MOL   H19438246   0.367   2.674   5.815  0.6581  2.2312 -3.1730
  127MOL   H19538247   0.764   2.513   6.142  0.3094  0.1889  0.2781
  127MOL   H19638248   0.690   2.380   6.234 -0.5274 -1.8195 -1.9553
  127MOL   C19738249   0.905   2.403   6.255  0.4129 -0.6828  0.0083
  127MOL   O19838250   1.008   2.451   6.173  0.8630 -0.2889 -0.2377
  127MOL   C19938251   1.108   2.371   6.125  0.2383 -0.2344 -0.3622
  127MOL   O20038252   1.116   2.253   6.144 -0.5162  0.2838  0.3164
  127MOL   C20138253   1.198   2.437   6.025 -0.4281 -0.5295  0.3119
  127MOL   C20238254   1.116   2.484   5.905 -0.2359  0.8894  0.1096
  127MOL   C20338255   0.904   2.505   6.372 -0.0857 -0.1569  0.2871
  127MOL   H20438256   0.925   2.302   6.290 -0.0522 -0.5038  0.8176
  127MOL   H20538257   1.244   2.518   6.081  0.0928 -0.3755 -0.3328
  127MOL   H20638258   1.282   2.376   5.992 -1.4306 -1.1714 -1.0916
  127MOL   H20738259   1.071   2.401   5.850  0.0373  0.5981  0.3204
  127MOL   H20838260   1.031   2.543   5.940 -0.9278 -1.1914  2.0757
  127MOL   H20938261   1.177   2.535   5.831 -1.1986 -0.3796 -1.5785
  127MOL   H21038262   1.006   2.530   6.400 -0.2729  0.8731  0.0709
  127MOL   H21138263   0.863   2.599   6.336 -2.0110 -1.1223 -0.1521
  127MOL   C21238264   0.838   2.454   6.501  0.3005 -0.5540 -0.0105
  127MOL   O21338265   0.912   2.500   6.619  0.5588 -0.5917  0.3004
  127MOL   C21438266   0.891   2.446   6.739  0.1039 -0.4088 -0.2028
  127MOL   O21538267   0.820   2.345   6.765 -0.1794 -0.0446  0.0771
  127MOL   C21638268   0.964   2.519   6.846  0.8863  0.0331 -0.0162
  127MOL   C21738269   0.966   2.669   6.832 -0.7588  0.3107  0.1574
  127MOL   C21838270   0.689   2.489   6.509 -0.0588  1.1504 -0.0156
  127MOL   H21938271   0.853   2.346   6.503 -1.1996 -0.8545 -2.4594
  127MOL   H22038272   0.920   2.494   6.942 -2.2466  0.6302 -1.2256
  127MOL   H22138273   1.062   2.471   6.855  1.9380  1.5240 -2.7019
  127MOL   H22238274   0.872   2.715   6.802 -1.6880 -1.6409  0.0103
  127MOL   H22338275   0.985   2.711   6.931  0.6391  0.1427 -0.0372
  127MOL   H22438276   1.036   2.714   6.762  0.1996 -1.8646 -0.3186
  127MOL   H22538277   0.650   2.475   6.409 -1.5945 -0.1832  0.7472
  127MOL   H22638278   0.646   2.411   6.572  1.6046  0.8032  0.7209
  127MOL   C22738279   0.655   2.630   6.556 -0.0512  0.0167  0.0547
  127MOL   O22838280   0.657   2.722   6.444  0.5749 -0.3337 -0.2261
  127MOL   C22938281   0.731   2.828   6.446 -0.0637 -0.3356  0.2440
  127MOL   O23038282   0.819   2.843   6.530  0.1232 -0.1904 -0.0825
  127MOL   C23138283   0.708   2.926   6.328  0.3389 -0.5155  0.5325
  127MOL   C23238284   0.604   3.024   6.363 -0.0223 -0.3715  1.2279
  127MOL   C23338285   0.515   2.647   6.614  0.1157 -0.0578 -0.6811
  127MOL   H23438286   0.726   2.663   6.633  0.7966 -0.4645 -0.5180
  127MOL   H23538287   0.802   2.979   6.313  0.6909 -1.3585 -0.2706
  127MOL   H23638288   0.691   2.878   6.232  4.2763  1.6755 -1.3937
  127MOL   H23738289   0.503   2.987   6.381 -1.2037  1.2541 -1.6706
  127MOL   H23838290   0.634   3.088   6.447 -1.6060  0.0062  1.5381
  127MOL   H23938291   0.605   3.094   6.279  0.9437 -1.8247  0.0017
  127MOL   H24038292   0.441   2.628   6.537 -2.1618 -2.5054  2.0061
  127MOL   H24138293   0.511   2.567   6.688 -0.1140 -1.2377 -1.9363
  127MOL   C24238294   0.494   2.777   6.691 -0.6141 -1.0696  0.4064
  127MOL   O24338295   0.356   2.790   6.711 -0.3738 -0.8065  0.4564
  127MOL   C24438296   0.292   2.893   6.647  0.0118 -0.6730 -0.1989
  127MOL   O24538297   0.336   2.971   6.566  0.0671  0.0381  0.1890
  127MOL   C24638298   0.148   2.903   6.694 -0.9069 -0.5211 -0.2670
  127MOL   C24738299   0.134   2.947   6.835  0.7435 -0.5814 -0.4647
  127MOL   C24838300   0.554   2.759   6.830 -0.3190  0.6699 -0.2278
  127MOL   H24938301   0.551   2.855   6.641 -0.6985 -0.6191  1.0043
  127MOL   H25038302   0.107   2.981   6.630 -0.2595 -0.3166 -0.4405
  127MOL   H25138303   0.100   2.808   6.669  0.8863 -0.8333 -2.7512
  127MOL   H25238304   0.161   3.052   6.853 -0.6880  0.1525 -2.5210
  127MOL   H25338305   0.028   2.939   6.857  0.7613  2.1731  0.8520
  127MOL   H25438306   0.196   2.887   6.902 -0.2354 -0.1317  0.8724
  127MOL   H25538307   0.486   2.691   6.882 -1.3307  1.9972  0.2163
  127MOL   H25638308   0.651   2.711   6.827 -0.8209 -0.3164 -0.7834
  127MOL   C25738309   0.553   2.880   6.924 -0.0499  0.3902  0.6671
  127MOL   O25838310   0.607   2.827   7.047 -0.5560  0.3932 -0.1515
  127MOL   C25938311   0.566   2.861   7.173  0.1691  0.4944 -1.4452
  127MOL   O26038312   0.480   2.937   7.210  0.2303  0.1335  0.0356
  127MOL   C26138313   0.644   2.782   7.276 -0.3561 -1.4911  0.1831
  127MOL   C26238314   0.801   2.785   7.246 -0.1819 -0.8588  0.3988
  127MOL   C26338315   0.637   2.999   6.872 -0.0809 -0.9325 -0.3054
  127MOL   H26438316   0.447   2.902   6.933 -0.7436 -3.2391  1.9551
  127MOL   H26538317   0.622   2.817   7.377 -1.0657 -0.3455 -0.3590
  127MOL   H26638318   0.612   2.678   7.279 -0.8177 -1.3426  0.3989
  127MOL   H26738319   0.845   2.747   7.339  0.1150 -0.1881  0.5348
  127MOL   H26838320   0.827   2.715   7.167  1.2193 -1.3318  1.2548
  127MOL   H26938321   0.846   2.878   7.212 -3.4749  0.5835 -0.2513
  127MOL   H27038322   0.741   2.968   6.884 -0.5352 -2.4877 -0.2292
  127MOL   H27138323   0.633   3.012   6.764 -0.7101 -0.0397 -0.1764
  127MOL   C27238324   0.607   3.136   6.941 -0.2661 -0.0119  0.2718
  127MOL   O27338325   0.695   3.225   6.877 -0.2323 -0.3006  0.5570
  127MOL   C27438326   0.819   3.235   6.914 -0.4478  0.8459 -0.4298
  127MOL   O27538327   0.859   3.199   7.028  0.1732  0.2612 -0.1488
  127MOL   C27638328   0.910   3.299   6.815 -0.2201  0.4026  0.3364
  127MOL   C27738329   0.917   3.209   6.686 -0.1869  0.0950 -0.1523
  127MOL   C27838330   0.457   3.173   6.923  0.3002  0.1757  0.0807
  127MOL   H27938331   0.625   3.132   7.049  0.4788  0.3411  0.1633
  127MOL   H28038332   0.872   3.398   6.792 -0.1460  0.7466  1.6319
  127MOL   H28138333   1.010   3.308   6.856 -0.3196  2.9754  0.0742
  127MOL   H28238334   0.952   3.108   6.706 -0.5402 -0.2076 -1.0351
  127MOL   H28338335   0.820   3.201   6.636  0.0388  1.4972 -0.8514
  127MOL   H28438336   0.984   3.259   6.616 -0.6934  1.8102  0.5681
  127MOL   H28538337   0.432   3.173   6.817  3.6678 -0.6699 -0.7683
  127MOL   H28638338   0.398   3.095   6.973  1.9524 -3.4463 -3.2903
  127MOL   C28738339   0.424   3.311   6.973  0.1143 -0.2852 -0.4861
  127MOL   O28838340   0.293   3.338   6.958 -0.9278  0.3819 -0.7739
  127MOL   C28938341   0.249   3.408   6.848 -0.6022 -0.1133  0.4844
  127MOL   O29038342   0.324   3.469   6.766 -0.1313  0.1855  0.4963
  127MOL   C29138343   0.099   3.403   6.840 -0.7677 -0.1636 -0.2029
  127MOL   C29238344   0.053   3.357   6.705  0.5885  0.3332  0.3106
  127MOL   C29338345   0.427   3.326   7.130  0.1112  0.1190 -0.2615
  127MOL   H29438346   0.493   3.376   6.919  2.4163 -2.4367 -0.2276
  127MOL   H29538347   0.049   3.343   6.915  1.3236 -0.1295  1.2646
  127MOL   H29638348   0.060   3.504   6.846  1.4116  0.6909  0.3481
  127MOL   H29738349   7.890   3.368   6.698  0.5411 -0.3126  0.0066
  127MOL   H29838350   0.104   3.400   6.618  0.4782 -0.2484 -0.0477
  127MOL   H29938351   0.082   3.252   6.707  0.5463  0.2987 -0.5138
  127MOL   H30038352   0.531   3.328   7.161  0.3633 -0.1039 -1.1004
  127MOL   H30138353   0.385   3.421   7.163 -0.9924 -0.7674  0.9303
  127MOL   H30238354   0.376   3.238   7.170  0.5700 -0.6106 -1.2773
  128MOL     C138355   0.771   6.643   5.016 -0.2163 -0.2970 -0.4455
  128MOL     O238356   0.771   6.775   5.060  0.6606  0.4763 -0.4588
  128MOL     C338357   0.706   6.800   5.175 -0.2750  0.1764  0.0049
  128MOL     O438358   0.648   6.724   5.252 -0.0764  0.2562 -0.3448
  128MOL     C538359   0.697   6.947   5.193 -0.2968  0.0918 -0.2602
  128MOL     C638360   0.591   7.001   5.095 -0.0284 -0.1673 -0.2703
  128MOL     C738361   0.912   6.592   4.987  0.2413 -0.1252  0.5673
  128MOL     H838362   0.732   6.633   4.914 -0.7280  0.0377 -0.2844
  128MOL     H938363   0.669   6.974   5.295  2.4589 -0.4542  0.6806
  128MOL    H1038364   0.792   6.994   5.171 -1.5524  2.1625 -1.3793
  128MOL    H1138365   0.630   7.004   4.993 -1.1858 -0.3227 -0.7279
  128MOL    H1238366   0.492   6.960   5.114 -0.2676  0.7536  0.5165
  128MOL    H1338367   0.581   7.107   5.118 -0.4476 -0.4801  0.9845
  128MOL    H1438368   0.914   6.512   4.913  0.4488 -0.8149  1.3099
  128MOL    H1538369   0.970   6.678   4.953 -0.9566  1.4258  2.3469
  128MOL    H1638370   0.711   6.575   5.076  0.4674 -0.9792 -0.5374
  128MOL    C1738371   0.985   6.530   5.104 -0.5720  1.0069 -0.1818
  128MOL    O1838372   0.932   6.393   5.111 -0.2658  0.3356  0.1953
  128MOL    C1938373   0.923   6.336   5.232  0.1966 -0.0219 -0.4061
  128MOL    O2038374   0.997   6.359   5.325  0.4122  0.3567  0.3733
  128MOL    C2138375   0.820   6.223   5.236  0.2512  0.5971  0.0867
  128MOL    C2238376   0.825   6.127   5.118  0.7815  0.0163  0.6776
  128MOL    C2338377   1.142   6.520   5.086 -0.8419 -0.7757 -0.4897
  128MOL    H2438378   0.967   6.590   5.193  0.4092  1.7026 -0.4567
  128MOL    H2538379   0.833   6.174   5.332  0.1341  2.9554  1.3629
  128MOL    H2638380   0.716   6.255   5.246  0.4672  1.0702  0.8789
  128MOL    H2738381   0.754   6.045   5.119 -1.5573  1.9887  1.4349
  128MOL    H2838382   0.813   6.175   5.021 -0.2537 -0.8290  0.3798
  128MOL    H2938383   0.925   6.084   5.118  1.7041  2.0387 -0.9812
  128MOL    H3038384   1.191   6.467   5.168  2.6722  3.9541  0.6426
  128MOL    H3138385   1.161   6.465   4.994 -0.5590  0.2436 -1.0426
  128MOL    C3238386   1.223   6.653   5.071  0.1422  0.3567  0.6176
  128MOL    O3338387   1.216   6.744   5.184  0.4467 -0.5605 -0.5087
  128MOL    C3438388   1.151   6.863   5.173  1.2045 -0.0762 -0.3832
  128MOL    O3538389   1.080   6.905   5.080  0.5813  0.5686  0.4436
  128MOL    C3638390   1.154   6.938   5.301  0.8380  0.2161 -0.0519
  128MOL    C3738391   1.299   6.949   5.351 -0.1486 -0.2873 -0.3288
  128MOL    C3838392   1.370   6.617   5.060 -0.3273 -0.1353  0.4341
  128MOL    H3938393   1.197   6.711   4.983 -0.0755 -0.8693 -0.1287
  128MOL    H4038394   1.114   7.038   5.288  0.6303  0.2895  1.1377
  128MOL    H4138395   1.086   6.892   5.372 -0.2266  0.8839 -0.6396
  128MOL    H4238396   1.313   7.033   5.420  0.2667  0.1201 -0.9033
  128MOL    H4338397   1.340   6.858   5.395  1.3085 -0.3537 -1.7805
  128MOL    H4438398   1.370   6.978   5.274 -0.5520  1.2073 -0.1569
  128MOL    H4538399   1.441   6.697   5.076 -1.0785  0.8445 -1.0501
  128MOL    H4638400   1.402   6.558   5.146  1.9464 -0.1645 -0.3871
  128MOL    C4738401   1.413   6.563   4.923 -0.3566 -0.8591 -0.3074
  128MOL    O4838402   1.388   6.661   4.822 -0.7115  0.9863  0.1354
  128MOL    C4938403   1.316   6.630   4.703 -0.4705  0.1395 -0.1891
  128MOL    O5038404   1.275   6.522   4.674 -0.3038  0.1056 -0.4448
  128MOL    C5138405   1.280   6.758   4.628 -0.0334 -0.5346 -0.5108
  128MOL    C5238406   1.145   6.821   4.693  0.0649  0.2652 -0.2008
  128MOL    C5338407   1.560   6.521   4.912 -0.1478 -0.6733 -0.2847
  128MOL    H5438408   1.349   6.476   4.908  1.9343 -2.3462 -1.8111
  128MOL    H5538409   1.361   6.830   4.624 -1.3296  1.3222  3.8253
  128MOL    H5638410   1.257   6.720   4.529  0.0922 -0.9481 -0.3841
  128MOL    H5738411   1.084   6.872   4.619  0.5889  1.6060  0.2705
  128MOL    H5838412   1.086   6.736   4.726  1.3520 -0.6140 -0.1282
  128MOL    H5938413   1.150   6.886   4.780 -0.6363  0.0940 -0.0334
  128MOL    H6038414   1.560   6.471   4.816 -2.0853  1.3421 -1.3747
  128MOL    H6138415   1.638   6.596   4.925  0.9744 -1.6473 -1.3081
  128MOL    C6238416   1.595   6.419   5.020  0.3758  0.8663 -0.3384
  128MOL    O6338417   1.528   6.299   4.981 -0.1567  0.6548  0.1355
  128MOL    C6438418   1.428   6.259   5.051  0.3448  0.1202 -0.1731
  128MOL    O6538419   1.380   6.300   5.161  0.4466  0.4052  0.7476
  128MOL    C6638420   1.360   6.139   4.988 -0.4552  0.2482  0.1106
  128MOL    C6738421   1.204   6.130   4.999  0.1789 -0.1138  0.3808
  128MOL    C6838422   1.745   6.391   5.024 -0.5585  0.3337 -0.2331
  128MOL    H6938423   1.563   6.461   5.116 -2.6058 -2.6627  0.2953
  128MOL    H7038424   1.387   6.122   4.884 -0.1435 -1.3035  0.4251
  128MOL    H7138425   1.406   6.062   5.051 -0.5965 -0.6304 -0.8404
  128MOL    H7238426   1.149   6.213   4.957 -0.0421 -0.0799  0.7356
  128MOL    H7338427   1.179   6.040   4.942 -0.5507 -0.2011  0.8306
  128MOL    H7438428   1.162   6.111   5.098 -0.9543  0.4086 -0.0054
  128MOL    H7538429   1.769   6.302   5.083 -1.6080  0.0215 -0.2616
  128MOL    H7638430   1.775   6.366   4.922  1.5786  1.7257  0.0407
  128MOL    C7738431   1.835   6.505   5.074 -0.4111  0.2615 -0.7114
  128MOL    O7838432   1.821   6.495   5.220  0.1704  0.2632 -0.0652
  128MOL    C7938433   1.812   6.619   5.282 -0.6454  0.6248  0.0409
  128MOL    O8038434   1.785   6.725   5.227  0.0441  0.3138  0.0374
  128MOL    C8138435   1.836   6.607   5.431 -0.0140 -1.0605  0.3271
  128MOL    C8238436   1.984   6.560   5.450  0.8301 -0.1694  0.8771
  128MOL    C8338437   1.983   6.488   5.038  0.2114 -0.4611 -0.5723
  128MOL    H8438438   1.800   6.602   5.042  2.2315  1.5313  0.1002
  128MOL    H8538439   1.814   6.705   5.473  0.8501 -0.3345 -0.8742
  128MOL    H8638440   1.764   6.529   5.457 -1.4658 -0.0966 -0.7429
  128MOL    H8738441   2.016   6.482   5.381  0.7597 -0.4037  1.1080
  128MOL    H8838442   2.045   6.648   5.434  1.7472 -0.3687  3.1442
  128MOL    H8938443   1.996   6.523   5.552  1.2285  0.2046  0.9641
  128MOL    H9038444   2.045   6.543   5.109  1.0257 -1.5909 -0.3772
  128MOL    H9138445   2.008   6.382   5.053 -0.4024 -0.6360 -0.7712
  128MOL    C9238446   2.010   6.512   4.899  0.3495  0.3940  0.9692
  128MOL    O9338447   2.020   6.649   4.874 -0.2499  0.3465  0.0780
  128MOL    C9438448   1.974   6.700   4.761 -0.2299  0.5722 -0.9283
  128MOL    O9538449   1.896   6.647   4.683 -0.4053 -0.4468 -0.2988
  128MOL    C9638450   2.029   6.840   4.745  0.3819  0.8086  0.1551
  128MOL    C9738451   1.923   6.951   4.705 -0.8130 -0.3131  0.4088
  128MOL    C9838452   2.143   6.440   4.862 -0.2316 -0.0118  0.0801
  128MOL    H9938453   1.924   6.475   4.843  1.4126 -0.9809  0.2275
  128MOL   H10038454   2.081   6.859   4.839  2.5751  0.3728 -0.9517
  128MOL   H10138455   2.104   6.835   4.666 -0.6307  1.9431 -0.9076
  128MOL   H10238456   1.852   6.917   4.629  0.3733  0.1611 -0.9243
  128MOL   H10338457   1.861   6.963   4.793  0.0571 -0.1114  0.9956
  128MOL   H10438458   1.971   7.046   4.682  1.1176 -2.2104 -4.1687
  128MOL   H10538459   2.181   6.474   4.766  0.1215 -1.0366 -0.1595
  128MOL   H10638460   2.218   6.471   4.936 -0.6760  3.4816 -0.8524
  128MOL   C10738461   2.130   6.287   4.852 -0.4492  0.0464 -0.0458
  128MOL   O10838462   2.029   6.245   4.755 -0.2950 -0.4550 -0.5369
  128MOL   C10938463   1.937   6.166   4.794 -0.5549  0.4823  0.1340
  128MOL   O11038464   1.915   6.111   4.904  0.4122 -0.7172  0.6535
  128MOL   C11138465   1.851   6.123   4.672  0.1787  0.1616  0.4435
  128MOL   C11238466   1.758   6.233   4.622  0.3029 -0.1971 -0.4530
  128MOL   C11338467   2.265   6.223   4.814 -0.2444 -0.2163 -0.8204
  128MOL   H11438468   2.099   6.260   4.953  0.3724 -0.1178  0.1666
  128MOL   H11538469   1.925   6.086   4.601 -0.3730 -0.1672  0.0317
  128MOL   H11638470   1.791   6.038   4.702 -1.9828  1.6078  0.3573
  128MOL   H11738471   1.683   6.196   4.553  1.0221 -0.8571 -0.8934
  128MOL   H11838472   1.693   6.270   4.701 -1.1165 -1.5524 -0.9469
  128MOL   H11938473   1.810   6.316   4.576  2.9845 -1.1595  0.7257
  128MOL   H12038474   2.286   6.239   4.708 -0.4600  0.8383 -0.7092
  128MOL   H12138475   2.348   6.266   4.870 -0.6936  1.9752 -1.7611
  128MOL   C12238476   2.279   6.076   4.858  0.7988  0.6374 -0.2843
  128MOL   O12338477   2.339   6.004   4.752  0.1717 -0.1729  0.4613
  128MOL   C12438478   2.258   5.924   4.675 -0.2534  0.7745  0.5688
  128MOL   O12538479   2.134   5.905   4.686  0.1074 -0.0436 -0.3844
  128MOL   C12638480   2.337   5.847   4.561  0.3125  0.8611 -0.3511
  128MOL   C12738481   2.311   5.696   4.566  0.1551  0.3037  0.0475
  128MOL   C12838482   2.362   6.054   4.983  0.0960 -0.2311  0.9747
  128MOL   H12938483   2.182   6.046   4.897  1.6822  1.8940  2.9547
  128MOL   H13038484   2.317   5.875   4.458 -0.6191 -1.1017 -0.7314
  128MOL   H13138485   2.444   5.865   4.572  0.2356  1.1403 -0.0420
  128MOL   H13238486   2.362   5.652   4.481 -1.6687 -2.2679  0.2037
  128MOL   H13338487   2.361   5.652   4.653 -0.1803  0.5112  0.3439
  128MOL   H13438488   2.207   5.666   4.556  0.1119  0.8228 -1.0404
  128MOL   H13538489   2.357   5.946   4.995 -0.5108 -0.4404 -0.8928
  128MOL   H13638490   2.461   6.085   4.951 -0.5274 -0.4740 -1.3053
  128MOL   C13738491   2.321   6.105   5.115 -0.0393 -0.0132  0.1572
  128MOL   O13838492   2.195   6.047   5.146  0.3226  0.1551 -0.2924
  128MOL   C13938493   2.112   6.108   5.232 -1.2531 -0.6471 -0.5760
  128MOL   O14038494   2.141   6.219   5.281  0.7968 -0.0228 -0.8968
  128MOL   C14138495   1.987   6.031   5.274  0.1299  0.2223  0.3767
  128MOL   C14238496   1.969   5.898   5.203 -0.1430 -0.1817  0.5506
  128MOL   C14338497   2.420   6.076   5.231  0.3904  0.5813  0.1370
  128MOL   H14438498   2.300   6.210   5.095  1.4704  0.5075  1.2326
  128MOL   H14538499   1.989   6.017   5.382 -0.5476  1.4287  0.5561
  128MOL   H14638500   1.900   6.095   5.263 -0.4815 -0.7469 -0.5139
  128MOL   H14738501   1.965   5.918   5.096  0.1305 -0.4546  0.4894
  128MOL   H14838502   2.053   5.830   5.216 -0.5603 -1.4897 -3.0111
  128MOL   H14938503   1.885   5.841   5.242 -2.0451  0.7829 -2.0024
  128MOL   H15038504   2.372   6.101   5.325 -1.9708  1.9422 -1.3512
  128MOL   H15138505   2.442   5.970   5.235  2.4228  0.9052 -1.5034
  128MOL   C15238506   2.553   6.155   5.216 -0.2915  0.7909  0.2211
  128MOL   O15338507   2.554   6.285   5.262 -0.6086  0.2091  0.2133
  128MOL   C15438508   2.525   6.386   5.187 -0.3404  0.0106 -0.2608
  128MOL   O15538509   2.484   6.375   5.070  0.3074 -0.2063  0.1121
  128MOL   C15638510   2.534   6.524   5.252  0.0513 -0.4175 -0.0875
  128MOL   C15738511   2.394   6.584   5.270  0.2602  0.1993  0.6943
  128MOL   C15838512   2.663   6.087   5.302 -0.1083 -0.2673  0.0612
  128MOL   H15938513   2.579   6.147   5.110 -0.3103  1.9000  0.1256
  128MOL   H16038514   2.581   6.526   5.350  2.5343  0.3612 -1.2255
  128MOL   H16138515   2.589   6.591   5.185 -0.5468 -2.5824 -2.8473
  128MOL   H16238516   2.355   6.596   5.371  0.3750  1.4360  0.5931
  128MOL   H16338517   2.396   6.687   5.235  0.8213  0.3584  1.1956
  128MOL   H16438518   2.324   6.531   5.205  1.1685 -0.2758  0.0916
  128MOL   H16538519   2.649   6.105   5.409  0.0743  0.0897  0.0244
  128MOL   H16638520   2.662   5.978   5.301 -0.2771 -0.2507 -1.1274
  128MOL   C16738521   2.805   6.125   5.261 -0.3750 -0.4561  0.3252
  128MOL   O16838522   2.840   6.256   5.312  0.0423 -0.3224 -0.0573
  128MOL   C16938523   2.908   6.344   5.244  0.3629 -0.4360 -0.4409
  128MOL   O17038524   2.943   6.335   5.126 -0.4460 -0.1375 -0.8693
  128MOL   C17138525   2.953   6.459   5.335  0.3075  0.2467 -0.2091
  128MOL   C17238526   3.100   6.450   5.379 -0.3153 -0.0982  0.0647
  128MOL   C17338527   2.927   6.037   5.302 -0.8458  1.1135  0.0665
  128MOL   H17438528   2.799   6.131   5.152 -1.5835  0.0218  0.4193
  128MOL   H17538529   2.935   6.549   5.276  1.1333  1.7267  1.7384
  128MOL   H17638530   2.893   6.461   5.426  0.9034  1.0878  0.1695
  128MOL   H17738531   3.123   6.523   5.457 -0.1218  1.4115 -1.3981
  128MOL   H17838532   3.126   6.354   5.422  0.0623  0.2286  0.5713
  128MOL   H17938533   3.162   6.460   5.290  1.3469  1.2863  1.3397
  128MOL   H18038534   3.024   6.073   5.269  0.5738 -1.3561  1.4336
  128MOL   H18138535   2.941   6.039   5.410 -1.1234 -1.2446  0.1635
  128MOL   C18238536   2.916   5.893   5.253  0.1019 -0.1641 -0.3393
  128MOL   O18338537   2.911   5.904   5.115 -0.2302  0.1411 -0.0497
  128MOL   C18438538   2.811   5.842   5.045  0.2656 -0.2701  0.0081
  128MOL   O18538539   2.741   5.754   5.084  0.2168  0.0606 -0.1935
  128MOL   C18638540   2.791   5.909   4.912  0.3626 -0.0039 -0.0840
  128MOL   C18738541   2.664   5.855   4.846  0.1588  0.1306 -0.0901
  128MOL   C18838542   3.038   5.802   5.283  0.7221 -0.6253 -0.7210
  128MOL   H18938543   2.839   5.831   5.299  0.5524  0.5235  1.4090
  128MOL   H19038544   2.788   6.017   4.917  0.2451  0.2826 -4.0864
  128MOL   H19138545   2.879   5.889   4.851 -0.3432  2.6229 -2.0750
  128MOL   H19238546   2.668   5.746   4.848  0.6631  0.1162 -1.2846
  128MOL   H19338547   2.578   5.885   4.905 -0.9071  1.3649 -2.2474
  128MOL   H19438548   2.656   5.892   4.744  0.1494  2.7348  0.8271
  128MOL   H19538549   3.038   5.701   5.242  1.4318 -1.1397  0.4868
  128MOL   H19638550   3.133   5.846   5.252  1.9493 -1.5756  1.5245
  128MOL   C19738551   3.051   5.768   5.432 -0.4912 -0.3812  0.0360
  128MOL   O19838552   2.941   5.683   5.449 -0.5048  0.5373 -0.2140
  128MOL   C19938553   2.892   5.657   5.567  0.0189  0.4074  0.1067
  128MOL   O20038554   2.944   5.691   5.672 -0.5827 -0.0594 -0.1835
  128MOL   C20138555   2.750   5.599   5.577  0.4631  0.3275 -0.5605
  128MOL   C20238556   2.650   5.649   5.468 -0.6569  0.0376 -0.2402
  128MOL   C20338557   3.185   5.690   5.464  0.1799 -0.1776  0.3151
  128MOL   H20438558   3.037   5.856   5.494 -0.2885  1.5817 -2.6108
  128MOL   H20538559   2.744   5.490   5.576 -0.1398  0.2863  2.1064
  128MOL   H20638560   2.717   5.631   5.676  3.1992  0.5892  0.2965
  128MOL   H20738561   2.660   5.599   5.372  1.5781  1.6230 -0.8745
  128MOL   H20838562   2.543   5.655   5.490 -0.7420  1.7556 -1.0385
  128MOL   H20938563   2.678   5.750   5.435 -0.2064  0.3561  1.0879
  128MOL   H21038564   3.189   5.657   5.568  2.0088 -1.0177  0.0043
  128MOL   H21138565   3.176   5.595   5.411  0.4675 -1.0493  1.7974
  128MOL   C21238566   3.313   5.767   5.466 -0.1176  0.1072 -0.4676
  128MOL   O21338567   3.319   5.856   5.572 -0.4010 -0.2341  0.5051
  128MOL   C21438568   3.320   5.985   5.535  0.1035 -0.2370 -0.1682
  128MOL   O21538569   3.307   6.039   5.426  0.4054  0.0808 -0.3213
  128MOL   C21638570   3.354   6.069   5.656  0.2330  0.0104  0.4138
  128MOL   C21738571   3.227   6.143   5.713  0.3790  0.3778  0.3454
  128MOL   C21838572   3.433   5.664   5.479  0.3969  0.5190 -0.7505
  128MOL   H21938573   3.331   5.817   5.371 -0.5471  0.3546 -0.4185
  128MOL   H22038574   3.400   6.014   5.738 -1.7661 -2.7712 -0.2707
  128MOL   H22138575   3.433   6.138   5.626 -0.3076 -0.3600 -1.9240
  128MOL   H22238576   3.137   6.081   5.706  1.9852 -2.0957  0.9818
  128MOL   H22338577   3.251   6.165   5.816  0.3163  1.1592  0.1973
  128MOL   H22438578   3.223   6.246   5.680  3.6690 -0.4643 -3.0618
  128MOL   H22538579   3.417   5.604   5.569 -0.8291  0.4945 -0.9751
  128MOL   H22638580   3.418   5.593   5.398 -0.5364  0.8408 -0.8631
  128MOL   C22738581   3.573   5.736   5.474  0.2427 -0.3233  0.2145
  128MOL   O22838582   3.605   5.756   5.614  0.3578  0.0242 -0.1716
  128MOL   C22938583   3.646   5.876   5.660  0.9056  0.3229  0.7221
  128MOL   O23038584   3.635   5.976   5.592 -0.1476 -0.2638 -0.5263
  128MOL   C23138585   3.692   5.883   5.805 -0.2908  0.4443  0.1187
  128MOL   C23238586   3.821   5.803   5.835 -0.2018  0.2658  0.2552
  128MOL   C23338587   3.687   5.643   5.425 -0.9220  0.1799  0.5717
  128MOL   H23438588   3.566   5.825   5.411 -1.5104 -1.0954 -0.7221
  128MOL   H23538589   3.714   5.987   5.829 -1.1877  0.5959  0.2885
  128MOL   H23638590   3.601   5.859   5.861 -1.1359 -0.4389 -1.5960
  128MOL   H23738591   3.836   5.776   5.940 -1.2015  0.7779  0.5373
  128MOL   H23838592   3.812   5.712   5.777 -2.2240  0.8480 -0.4081
  128MOL   H23938593   3.908   5.858   5.800 -2.8121  2.5475 -2.9903
  128MOL   H24038594   3.788   5.680   5.442 -0.1913 -0.0912 -2.8671
  128MOL   H24138595   3.684   5.554   5.489 -0.9954 -0.2925 -0.0884
  128MOL   C24238596   3.680   5.594   5.279 -0.4113  0.4700 -0.1567
  128MOL   O24338597   3.708   5.711   5.193  0.5237  0.2245  0.2761
  128MOL   C24438598   3.605   5.780   5.137 -0.5174  0.4241 -0.5449
  128MOL   O24538599   3.483   5.769   5.167  0.4244  0.1593  0.0045
  128MOL   C24638600   3.646   5.887   5.029 -0.0698  0.1506 -0.1660
  128MOL   C24738601   3.731   5.841   4.919  0.0940 -0.7125 -0.0129
  128MOL   C24838602   3.787   5.494   5.236  0.0727  0.3816  0.2970
  128MOL   H24938603   3.583   5.553   5.252  0.0267 -0.3840 -0.4441
  128MOL   H25038604   3.554   5.931   4.990 -0.7200 -1.6034 -0.6806
  128MOL   H25138605   3.696   5.964   5.087  0.5474 -0.2632 -0.1400
  128MOL   H25238606   3.812   5.909   4.893  1.6088 -2.3940  0.1793
  128MOL   H25338607   3.788   5.749   4.934  2.2401  0.7056  0.7286
  128MOL   H25438608   3.678   5.823   4.825  2.1596 -0.6658 -1.2271
  128MOL   H25538609   3.788   5.482   5.127  1.5346  1.0843  0.2173
  128MOL   H25638610   3.881   5.544   5.259 -0.8186  1.4528  1.7020
  128MOL   C25738611   3.782   5.352   5.291  0.2746 -0.0279 -0.3659
  128MOL   O25838612   3.682   5.277   5.225 -0.3986 -0.5950  0.1890
  128MOL   C25938613   3.567   5.258   5.288 -0.1866  0.2971  0.1160
  128MOL   O26038614   3.538   5.311   5.396  0.2331 -0.8868  0.1272
  128MOL   C26138615   3.470   5.174   5.215  0.5307  0.0040  0.4690
  128MOL   C26238616   3.337   5.159   5.286 -0.1367 -0.5688 -0.5330
  128MOL   C26338617   3.905   5.260   5.287  0.5031 -0.7753 -0.4619
  128MOL   H26438618   3.755   5.366   5.395 -0.4622 -0.4867 -0.4889
  128MOL   H26538619   3.443   5.223   5.122  2.5824 -0.4447 -0.3994
  128MOL   H26638620   3.515   5.075   5.203 -0.8726 -0.6397  0.4925
  128MOL   H26738621   3.303   5.059   5.259 -2.0876 -0.1677  0.3020
  128MOL   H26838622   3.331   5.173   5.394  0.9048  0.3323 -0.5824
  128MOL   H26938623   3.267   5.229   5.240 -1.0936 -1.2701 -0.1607
  128MOL   H27038624   3.875   5.159   5.313  1.5537 -1.5183 -2.0515
  128MOL   H27138625   3.935   5.258   5.182 -3.7548 -1.4439 -1.7745
  128MOL   C27238626   4.024   5.306   5.376  0.5196  0.0724  0.1734
  128MOL   O27338627   3.993   5.284   5.511  0.3758 -0.8783  0.4953
  128MOL   C27438628   3.953   5.389   5.588 -0.0026  0.1884 -0.4860
  128MOL   O27538629   3.977   5.506   5.558 -0.1870 -0.1582  0.2914
  128MOL   C27638630   3.875   5.344   5.704  0.5177  0.0256  1.1219
  128MOL   C27738631   3.727   5.323   5.678 -0.1924  0.4283  0.2716
  128MOL   C27838632   4.154   5.233   5.341  0.3653  0.0943 -0.0788
  128MOL   H27938633   4.039   5.412   5.352  1.6341 -0.0475  0.2857
  128MOL   H28038634   3.926   5.254   5.740  0.1492 -2.1771 -3.5749
  128MOL   H28138635   3.885   5.418   5.783  0.4207  0.5278  0.6632
  128MOL   H28238636   3.674   5.299   5.770 -2.4176  1.2432 -0.7659
  128MOL   H28338637   3.671   5.408   5.640  0.1243  0.9264  0.9027
  128MOL   H28438638   3.715   5.241   5.608  2.1287  2.8546 -3.1426
  128MOL   H28538639   4.144   5.126   5.362  0.5660  0.2649  0.9273
  128MOL   H28638640   4.169   5.235   5.233 -0.4214  0.0266 -0.1898
  128MOL   C28738641   4.273   5.288   5.418 -0.1943 -0.5753  0.4334
  128MOL   O28838642   4.384   5.202   5.393  0.3073  0.4183 -0.8810
  128MOL   C28938643   4.415   5.109   5.481  0.4088 -0.5563 -0.1881
  128MOL   O29038644   4.370   5.103   5.591 -0.3528  0.0913 -0.3091
  128MOL   C29138645   4.525   5.020   5.442  0.5055 -0.4118 -0.2830
  128MOL   C29238646   4.478   4.904   5.354 -0.2223 -0.1634  0.1431
  128MOL   C29338647   4.315   5.425   5.361 -0.1256 -0.2892 -0.3220
  128MOL   H29438648   4.250   5.302   5.523 -0.5275  3.8726 -0.1322
  128MOL   H29538649   4.589   5.089   5.385  0.1550  0.5593  0.4806
  128MOL   H29638650   4.583   4.984   5.526 -2.5342 -2.5279  0.9932
  128MOL   H29738651   4.420   4.834   5.415 -2.0951  1.4314  0.2310
  128MOL   H29838652   4.425   4.928   5.262  2.3257 -1.1693 -1.6251
  128MOL   H29938653   4.567   4.847   5.328 -0.1144  0.8745 -1.8594
  128MOL   H30038654   4.341   5.435   5.256  1.4413  1.7599  0.2255
  128MOL   H30138655   4.231   5.494   5.367 -0.3070 -0.2837 -2.5466
  128MOL   H30238656   4.384   5.473   5.430 -2.1884  1.1375  0.7907
  129MOL     C138657   4.650   1.420   7.823 -0.2883 -0.2331 -0.5532
  129MOL     O238658   4.617   1.498   7.936  0.5953  0.0615 -0.2215
  129MOL     C338659   4.612   1.448   0.116  0.2973 -0.3871 -0.5501
  129MOL     O438660   4.618   1.330   0.146  0.2779 -0.2489 -0.6310
  129MOL     C538661   4.592   1.558   0.230 -0.5268  0.5877  0.1586
  129MOL     C638662   4.445   1.592   0.242  0.5353 -0.0910  0.2675
  129MOL     C738663   4.689   1.514   7.708  0.0932  0.0853 -0.1092
  129MOL     H838664   4.558   1.368   7.800 -1.1044  2.0789 -2.7187
  129MOL     H938665   4.622   1.512   0.324  0.0583  0.9267  0.1423
  129MOL    H1038666   4.657   1.646   0.227  1.8026 -1.0770  0.8228
  129MOL    H1138667   4.367   1.517   0.243 -0.5231  0.9846  1.0097
  129MOL    H1238668   4.432   1.657   0.329 -1.0360 -1.8879  1.4063
  129MOL    H1338669   4.420   1.660   0.160 -0.9199 -0.8464  0.0838
  129MOL    H1438670   4.605   1.577   7.681  1.6164  2.5460  0.7141
  129MOL    H1538671   4.767   1.580   7.746  0.0654 -0.5700  1.0876
  129MOL    H1638672   4.734   1.353   7.840  0.0118  0.3586  0.3957
  129MOL    C1738673   4.746   1.432   7.587 -0.0766  0.5954 -0.3335
  129MOL    O1838674   4.657   1.344   7.516  0.0555  0.2307 -0.4298
  129MOL    C1938675   4.540   1.399   7.456 -0.1278 -0.4327  0.3779
  129MOL    O2038676   4.511   1.523   7.441 -0.0011  0.1932  0.9600
  129MOL    C2138677   4.439   1.301   7.401 -0.0542 -0.1656 -0.1974
  129MOL    C2238678   4.467   1.275   7.252 -0.2097 -0.3581  0.8139
  129MOL    C2338679   4.825   1.516   7.490 -0.1117 -0.2106  0.8416
  129MOL    H2438680   4.820   1.363   7.628  0.5506  2.2295  1.3514
  129MOL    H2538681   4.441   1.210   7.461  3.0610 -0.3875 -0.5630
  129MOL    H2638682   4.345   1.354   7.419 -1.5255 -2.5129 -0.8505
  129MOL    H2738683   4.571   1.246   7.236 -1.0342 -2.4759 -0.9432
  129MOL    H2838684   4.415   1.188   7.212  2.0976 -1.0116 -0.8914
  129MOL    H2938685   4.436   1.354   7.185 -1.0473 -0.7359  0.7508
  129MOL    H3038686   4.755   1.568   7.424 -0.8785  1.3507  2.8539
  129MOL    H3138687   4.869   1.592   7.554  1.0939 -1.7743  1.9048
  129MOL    C3238688   4.938   1.432   7.430  0.1313 -0.2674 -0.5498
  129MOL    O3338689   4.980   1.493   7.306 -0.1026  0.5847  0.0687
  129MOL    C3438690   4.906   1.487   7.196  0.4958  0.2719  0.7004
  129MOL    O3538691   4.802   1.417   7.197  0.9354  0.1737  0.1103
  129MOL    C3638692   4.964   1.556   7.072  0.0013 -0.6908 -0.2350
  129MOL    C3738693   5.023   1.455   6.972 -0.6105  0.3594  0.5156
  129MOL    C3838694   5.057   1.411   7.530  0.8850 -0.1346  0.7983
  129MOL    H3938695   4.899   1.335   7.401  0.9133 -0.5006 -0.8365
  129MOL    H4038696   4.892   1.618   7.018  1.3055  0.1906 -0.9887
  129MOL    H4138697   5.036   1.626   7.114 -0.2038 -0.9795  0.6193
  129MOL    H4238698   5.097   1.392   7.022  0.6067  0.9539 -0.4930
  129MOL    H4338699   4.939   1.401   6.928 -1.5860  1.0185  1.5433
  129MOL    H4438700   5.071   1.515   6.895 -0.4036 -1.4157 -0.7696
  129MOL    H4538701   5.080   1.508   7.574  1.1363  0.2499 -0.1665
  129MOL    H4638702   5.024   1.341   7.607 -1.2952 -0.0360 -0.0075
  129MOL    C4738703   5.191   1.365   7.462  0.0730 -0.0118  0.1717
  129MOL    O4838704   5.300   1.375   7.556 -0.4749  0.2852 -0.0091
  129MOL    C4938705   5.376   1.479   7.544  0.3461 -0.8632 -0.2118
  129MOL    O5038706   5.362   1.584   7.481  0.4118 -0.0156  0.9853
  129MOL    C5138707   5.504   1.466   7.618 -1.0268 -0.0254 -0.4440
  129MOL    C5238708   5.468   1.453   7.767 -0.2968  0.4538  0.1901
  129MOL    C5338709   5.190   1.224   7.392 -0.2679 -0.4923  0.2656
  129MOL    H5438710   5.195   1.436   7.379 -0.7597  0.4069  0.4870
  129MOL    H5538711   5.554   1.372   7.591  0.6154  0.7947 -0.3134
  129MOL    H5638712   5.580   1.543   7.608  0.8036 -1.4592  1.8145
  129MOL    H5738713   5.448   1.553   7.807 -0.3048  0.3490  0.4531
  129MOL    H5838714   5.388   1.379   7.776  0.4597 -0.3543  0.3199
  129MOL    H5938715   5.554   1.415   7.822 -0.2011 -0.4183 -0.5609
  129MOL    H6038716   5.113   1.226   7.315 -0.3854 -0.6225  0.3797
  129MOL    H6138717   5.283   1.209   7.337  0.0423  2.3223 -0.0456
  129MOL    C6238718   5.157   1.106   7.491  0.0826 -0.0809  0.2864
  129MOL    O6338719   5.078   1.011   7.407 -0.1927  0.6292  0.1439
  129MOL    C6438720   4.953   0.989   7.435  0.6216 -0.1306  0.1299
  129MOL    O6538721   4.891   1.040   7.527  0.6464 -0.0068  0.3855
  129MOL    C6638722   4.884   0.902   7.327 -0.5654  0.7752 -0.3924
  129MOL    C6738723   4.877   0.958   7.188 -1.1166  0.3537  0.1975
  129MOL    C6838724   5.289   1.043   7.535  0.3386  0.3362 -1.3009
  129MOL    H6938725   5.104   1.143   7.579 -2.5686 -1.4836 -0.6386
  129MOL    H7038726   4.922   0.801   7.339 -0.6031  0.6129 -1.6072
  129MOL    H7138727   4.781   0.895   7.363 -0.6555 -3.6515 -1.2740
  129MOL    H7238728   4.947   1.040   7.172 -1.2152  0.5736  0.8675
  129MOL    H7338729   4.897   0.877   7.118  1.8545  0.0144  1.3851
  129MOL    H7438730   4.773   0.981   7.166 -1.1809  0.2849  0.4241
  129MOL    H7538731   5.346   0.994   7.457 -2.6697 -0.2977 -3.1790
  129MOL    H7638732   5.348   1.117   7.589  0.4494 -0.5951 -0.1205
  129MOL    C7738733   5.255   0.937   7.643 -0.0823 -0.6894  0.0283
  129MOL    O7838734   5.254   0.806   7.588 -0.4909  0.4045 -0.2571
  129MOL    C7938735   5.136   0.737   7.574  0.0625 -0.0545 -0.5813
  129MOL    O8038736   5.024   0.776   7.625 -0.2391  0.3109  0.1279
  129MOL    C8138737   5.155   0.602   7.507  0.1356 -0.2568 -0.4332
  129MOL    C8238738   5.220   0.501   7.610  0.4863 -0.1482  0.1523
  129MOL    C8338739   5.381   0.930   7.743 -0.1728  0.0125 -0.0609
  129MOL    H8438740   5.164   0.968   7.695  0.4035 -0.8200  0.9499
  129MOL    H8538741   5.057   0.572   7.470  0.1853 -1.5245  0.4244
  129MOL    H8638742   5.220   0.624   7.422  0.6656  0.1160  0.0687
  129MOL    H8738743   5.213   0.396   7.581 -2.1074  0.1296 -0.3022
  129MOL    H8838744   5.323   0.522   7.639  0.7659 -0.6673 -0.4416
  129MOL    H8938745   5.177   0.501   7.710 -1.0546 -1.5452 -0.4807
  129MOL    H9038746   5.376   0.835   7.795 -0.7454  0.5049  0.7985
  129MOL    H9138747   5.472   0.930   7.683 -1.2455 -1.3638 -1.7173
  129MOL    C9238748   5.384   1.041   7.857 -0.1397  0.4275 -0.1983
  129MOL    O9338749   5.251   1.050   7.914 -0.0197 -0.2680  0.5687
  129MOL    C9438750   5.167   1.151   7.899  0.6925  0.1896  0.0752
  129MOL    O9538751   5.187   1.259   7.838 -0.0015  0.5296 -0.4972
  129MOL    C9638752   5.030   1.130   0.031 -0.0604 -0.1912 -0.0103
  129MOL    C9738753   4.914   1.141   7.885  0.1343 -0.5564  0.1862
  129MOL    C9838754   5.483   1.000   0.014 -0.3190  0.3123  0.3568
  129MOL    H9938755   5.413   1.139   7.818 -0.7958  0.1642 -1.3819
  129MOL   H10038756   5.036   1.031   0.076 -1.8668 -0.4067 -0.1808
  129MOL   H10138757   5.026   1.210   0.105 -0.7586  1.4012 -1.7237
  129MOL   H10238758   4.823   1.146   7.944 -0.1678 -2.6430 -0.0702
  129MOL   H10338759   4.927   1.227   7.819  1.2081 -1.8269 -1.2871
  129MOL   H10438760   4.906   1.053   7.822  2.0673 -1.3646  1.0315
  129MOL   H10538761   5.461   0.898   0.044  1.9431 -0.2761  0.0804
  129MOL   H10638762   5.577   1.005   7.905 -0.4510  1.9439  0.2541
  129MOL   C10738763   5.482   1.086   0.142 -0.2455  0.3904 -0.1004
  129MOL   O10838764   5.590   1.040   0.218  0.1193  0.5491  0.1056
  129MOL   C10938765   5.568   0.977   0.326 -0.1446  0.1620  0.2965
  129MOL   O11038766   5.461   0.922   0.359  0.3995 -0.0487  0.5334
  129MOL   C11138767   5.691   0.962   0.410  0.0847 -0.0022 -0.5630
  129MOL   C11238768   5.664   0.968   0.558 -0.3667  0.1911  0.5059
  129MOL   C11338769   5.507   1.236   0.115 -0.2732  0.4395 -0.4090
  129MOL   H11438770   5.393   1.078   0.204  0.2094  1.8231  0.7472
  129MOL   H11538771   5.733   0.864   0.388  1.0611  0.6936 -1.8044
  129MOL   H11638772   5.768   1.036   0.394  1.2696 -1.0796  0.0655
  129MOL   H11738773   5.611   0.874   0.574  0.0209 -0.3885 -1.4976
  129MOL   H11838774   5.757   0.970   0.616 -0.3795 -0.5069  0.5483
  129MOL   H11938775   5.597   1.046   0.594 -0.6281  0.1186  0.1758
  129MOL   H12038776   5.605   1.246   0.068  0.6802  4.9497  2.2823
  129MOL   H12138777   5.446   1.279   0.036  0.4740  0.8714 -0.7600
  129MOL   C12238778   5.488   1.336   0.234  0.4654 -0.2790  0.2780
  129MOL   O12338779   5.523   1.465   0.183 -0.0989 -0.1134  0.0736
  129MOL   C12438780   5.611   1.543   0.239 -0.7025  0.5579 -0.3182
  129MOL   O12538781   5.676   1.513   0.337 -0.6829 -0.4952 -0.7967
  129MOL   C12638782   5.630   1.664   0.155 -0.2163  0.2610 -0.1287
  129MOL   C12738783   5.674   1.784   0.243  0.2093  0.5077 -0.4271
  129MOL   C12838784   5.345   1.338   0.295 -0.1465 -0.3909 -0.3752
  129MOL   H12938785   5.553   1.298   0.313  1.8799  2.3816  0.4287
  129MOL   H13038786   5.712   1.643   0.086  0.1363  0.3662  0.2593
  129MOL   H13138787   5.539   1.690   0.101 -0.2609  0.1802 -0.0923
  129MOL   H13238788   5.602   1.818   0.316  2.5015  1.9242  1.2592
  129MOL   H13338789   5.769   1.776   0.297  1.3987  1.8010 -2.2288
  129MOL   H13438790   5.694   1.868   0.176  2.0263  1.1737  0.8985
  129MOL   H13538791   5.271   1.381   0.227  0.7687  0.9373 -0.5626
  129MOL   H13638792   5.317   1.237   0.322 -2.3653  0.6407  1.3165
  129MOL   C13738793   5.331   1.431   0.419 -0.0034  0.2897  0.3255
  129MOL   O13838794   5.448   1.420   0.492  0.0796  0.0837  0.3628
  129MOL   C13938795   5.436   1.428   0.628  0.3424 -0.8461 -0.1236
  129MOL   O14038796   5.322   1.429   0.684 -0.4076  0.1093  0.2526
  129MOL   C14138797   5.569   1.434   0.701 -0.4047  0.2348 -0.2251
  129MOL   C14238798   5.681   1.351   0.634 -0.3037  0.3851 -0.2012
  129MOL   C14338799   5.286   1.574   0.397  0.2481  0.3437 -0.3174
  129MOL   H14438800   5.252   1.381   0.475  0.9895 -0.9807  0.6185
  129MOL   H14538801   5.594   1.539   0.683  0.1415  0.2077  0.3406
  129MOL   H14638802   5.567   1.397   0.804  1.3481 -1.5723 -0.8057
  129MOL   H14738803   5.667   1.249   0.670 -1.1588  0.9339  1.0486
  129MOL   H14838804   5.676   1.341   0.525  0.4858 -2.5727 -0.0238
  129MOL   H14938805   5.781   1.379   0.667  0.6758 -1.6381 -1.3285
  129MOL   H15038806   5.275   1.618   0.496 -1.8814 -0.2393 -0.2632
  129MOL   H15138807   5.363   1.639   0.356  0.3614 -0.7387 -1.8456
  129MOL   C15238808   5.154   1.608   0.335  0.3288  0.0154 -0.2039
  129MOL   O15338809   5.042   1.579   0.422 -0.1405  0.2053 -0.0099
  129MOL   C15438810   4.970   1.472   0.407 -0.5072  0.0882 -0.0612
  129MOL   O15538811   4.973   1.397   0.309 -0.4653  0.1493 -1.0521
  129MOL   C15638812   4.886   1.437   0.531  0.3830  0.1330  0.2814
  129MOL   C15738813   4.961   1.341   0.635  0.2743 -0.4265 -0.9470
  129MOL   C15838814   5.131   1.762   0.305  0.3782  0.2083  0.6065
  129MOL   H15938815   5.142   1.561   0.237  0.9035  0.3270 -0.4265
  129MOL   H16038816   4.865   1.531   0.582 -0.3946  1.5061 -2.4734
  129MOL   H16138817   4.788   1.395   0.510 -1.3863  4.5442 -0.9182
  129MOL   H16238818   5.024   1.392   0.707 -0.7363 -0.3260 -0.1090
  129MOL   H16338819   4.884   1.288   0.691 -1.9759  2.1109 -1.5063
  129MOL   H16438820   5.032   1.270   0.593 -0.1958 -1.3918 -0.1401
  129MOL   H16538821   5.026   1.781   0.286  0.9507  2.3927 -0.5237
  129MOL   H16638822   5.141   1.821   0.396 -0.0597  0.9487  0.1718
  129MOL   C16738823   5.205   1.825   0.176 -0.3825 -0.2203 -0.7500
  129MOL   O16838824   5.137   1.778   0.061  0.3386  0.0693 -0.1002
  129MOL   C16938825   5.184   1.666   0.011  0.0082 -0.6363 -0.4273
  129MOL   O17038826   5.285   1.603   0.047  0.2706 -0.0397 -0.1071
  129MOL   C17138827   5.099   1.605   7.860 -0.2403  0.1300  0.8453
  129MOL   C17238828   5.017   1.501   7.930 -0.2368  0.0298 -0.0309
  129MOL   C17338829   5.199   1.981   0.191  0.6400 -0.3681 -0.3607
  129MOL   H17438830   5.310   1.795   0.183 -0.4086  0.0728  1.2713
  129MOL   H17538831   5.025   1.668   7.810  0.2980 -0.0270 -0.1570
  129MOL   H17638832   5.150   1.564   7.773 -1.9113  1.2866 -0.7374
  129MOL   H17738833   5.086   1.427   0.025 -0.2332  1.5452  2.9165
  129MOL   H17838834   4.959   1.537   0.071 -1.2814 -0.5204 -0.4905
  129MOL   H17938835   4.944   1.447   7.869  0.5668 -1.1230  0.0055
  129MOL   H18038836   5.109   2.032   0.155  1.0406 -0.2800 -1.2643
  129MOL   H18138837   5.205   2.015   0.295  1.5993  0.6589 -0.7315
  129MOL   C18238838   5.323   2.049   0.122 -0.4401  0.6265 -0.7783
  129MOL   O18338839   5.322   1.998   7.934  0.2150  0.7003  0.5607
  129MOL   C18438840   5.438   2.006   7.860 -0.6609 -0.1169 -0.0246
  129MOL   O18538841   5.546   2.033   7.910 -0.0091  0.0069 -0.1633
  129MOL   C18638842   5.430   1.960   7.717  0.3868  0.0363  0.2295
  129MOL   C18738843   5.346   1.839   7.680  0.2215  0.3480  0.0394
  129MOL   C18838844   5.315   2.205   0.125 -0.3121  0.2596  0.2701
  129MOL   H18938845   5.419   2.027   0.169  0.3362  2.8822 -1.2739
  129MOL   H19038846   5.400   2.047   7.658 -0.3631  0.0952  0.6939
  129MOL   H19138847   5.531   1.942   7.680  0.1915 -0.1720 -0.2029
  129MOL   H19238848   5.239   1.852   7.695 -0.0617 -2.4943  0.6071
  129MOL   H19338849   5.354   1.809   7.575  0.9916 -1.4727  0.6028
  129MOL   H19438850   5.378   1.762   7.749  2.9258 -0.4646 -2.0128
  129MOL   H19538851   5.314   2.241   0.228 -1.6756 -0.7395  0.6137
  129MOL   H19638852   5.412   2.232   0.082 -0.2996  0.4426  0.4137
  129MOL   C19738853   5.208   2.272   0.035 -0.4519  0.4066  0.2162
  129MOL   O19838854   5.079   2.269   0.091  0.2508 -0.1979  0.1277
  129MOL   C19938855   4.962   2.263   0.025 -0.3880 -0.0983  0.1295
  129MOL   O20038856   4.946   2.223   7.855  0.4210 -0.3845  0.4489
  129MOL   C20138857   4.843   2.309   0.112  0.5825 -0.6010 -0.1261
  129MOL   C20238858   4.811   2.218   0.231 -0.3965  0.7406 -0.1360
  129MOL   C20338859   5.235   2.420   0.004  0.3970  0.6224  0.0462
  129MOL   H20438860   5.203   2.216   7.887  0.8323  0.4149  0.1399
  129MOL   H20538861   4.878   2.402   0.158 -0.0652 -0.8618  0.9125
  129MOL   H20638862   4.754   2.320   0.050  0.1761  1.1436  0.7398
  129MOL   H20738863   4.903   2.168   0.262 -0.9248  0.0870  0.3941
  129MOL   H20838864   4.758   2.256   0.318  1.5243 -2.3430  2.4810
  129MOL   H20938865   4.749   2.133   0.200 -2.0252  2.1832 -0.8941
  129MOL   H21038866   5.320   2.414   7.880 -0.3232 -1.4871 -0.7163
  129MOL   H21138867   5.148   2.459   7.895 -0.9180  0.1155  1.7800
  129MOL   C21238868   5.268   2.508   0.123  0.5881 -0.1010  0.5743
  129MOL   O21338869   5.297   2.639   0.067 -0.1041 -0.1181 -0.4041
  129MOL   C21438870   5.423   2.672   0.025 -0.1219  0.6613 -0.0150
  129MOL   O21538871   5.521   2.598   0.024  1.0673  0.0929  0.2188
  129MOL   C21638872   5.440   2.819   7.939  0.8739  0.0588  0.4391
  129MOL   C21738873   5.392   2.843   7.796 -0.4713  0.1877  0.6012
  129MOL   C21838874   5.146   2.523   0.221 -0.0342 -0.2288 -0.0854
  129MOL   H21938875   5.353   2.462   0.173  0.6347  1.1224  1.6210
  129MOL   H22038876   5.391   2.887   0.064 -2.9661 -3.0391  0.9348
  129MOL   H22138877   5.548   2.838   7.940  0.6579  1.3521  0.5846
  129MOL   H22238878   5.343   2.940   7.788  2.5920  1.7006 -0.8007
  129MOL   H22338879   5.473   2.860   7.725 -0.3620  0.2686  0.7454
  129MOL   H22438880   5.329   2.770   7.745  0.6646  0.2753 -0.9600
  129MOL   H22538881   5.061   2.552   0.159 -1.3131 -1.7028  0.9233
  129MOL   H22638882   5.120   2.425   0.262  1.3792 -0.2351  0.8319
  129MOL   C22738883   5.166   2.610   0.349 -0.0763  0.4742  0.1280
  129MOL   O22838884   5.044   2.600   0.425  0.7069 -0.2175 -0.2307
  129MOL   C22938885   5.000   2.705   0.492  0.3936  0.0259 -0.5280
  129MOL   O23038886   5.043   2.821   0.478 -0.1136 -0.9947  0.5438
  129MOL   C23138887   4.893   2.672   0.596  0.0651 -0.1805 -0.4302
  129MOL   C23238888   4.760   2.623   0.529 -0.2763 -0.3940 -0.2332
  129MOL   C23338889   5.288   2.569   0.432  0.7479 -0.1079 -0.7156
  129MOL   H23438890   5.172   2.714   0.320  2.4748  0.2181 -0.3218
  129MOL   H23538891   4.939   2.598   0.661 -2.0748  0.6237  2.1156
  129MOL   H23638892   4.871   2.763   0.652  0.0960 -1.8923  2.4515
  129MOL   H23738893   4.771   2.631   0.420 -0.8614  0.1645 -0.2532
  129MOL   H23838894   4.734   2.522   0.559 -1.1150  0.1738  0.9937
  129MOL   H23938895   4.667   2.679   0.542  0.3815  0.6731 -0.0282
  129MOL   H24038896   5.272   2.568   0.540  4.3619 -1.1826 -0.1083
  129MOL   H24138897   5.301   2.463   0.414 -0.1946 -0.5750  1.2171
  129MOL   C24238898   5.410   2.656   0.427 -0.1097  0.1033 -0.4174
  129MOL   O24338899   5.357   2.789   0.454  0.2194 -0.2996 -0.2978
  129MOL   C24438900   5.409   2.895   0.384  0.0270  0.6747 -0.2440
  129MOL   O24538901   5.498   2.890   0.305  0.0780  0.0277  0.0219
  129MOL   C24638902   5.360   3.033   0.435 -0.1756 -0.1865  0.0853
  129MOL   C24738903   5.481   3.128   0.446  0.2924 -0.5839  0.6960
  129MOL   C24838904   5.513   2.625   0.533 -0.8928  1.4409 -0.5446
  129MOL   H24938905   5.447   2.648   0.325 -2.3447  0.1719 -1.2511
  129MOL   H25038906   5.297   3.089   0.365 -1.5333 -1.9873 -0.1820
  129MOL   H25138907   5.310   3.031   0.532  1.8845 -0.9614  1.1532
  129MOL   H25238908   5.565   3.110   0.378  0.2823 -2.7144  1.2067
  129MOL   H25338909   5.454   3.229   0.415  1.5142 -0.1881  0.8940
  129MOL   H25438910   5.520   3.138   0.547 -0.4915  1.8543  0.7853
  129MOL   H25538911   5.581   2.710   0.542  1.5800 -0.3845 -1.3746
  129MOL   H25638912   5.469   2.631   0.632  0.5426  1.7094  0.0929
  129MOL   C25738913   5.598   2.500   0.522  0.3805  0.1924 -0.6790
  129MOL   O25838914   5.516   2.397   0.560  0.0455  0.1884 -0.5081
  129MOL   C25938915   5.553   2.311   0.652  0.0894  0.6776  0.2487
  129MOL   O26038916   5.649   2.325   0.732  0.4566  0.1116  0.7652
  129MOL   C26138917   5.470   2.185   0.643  0.6413  0.2349 -0.4594
  129MOL   C26238918   5.482   2.114   0.505  0.1141 -0.4135 -0.7327
  129MOL   C26338919   5.653   2.475   0.390  0.2777  0.7330 -0.3555
  129MOL   H26438920   5.685   2.511   0.587 -1.1648  2.2301  1.0757
  129MOL   H26538921   5.497   2.119   0.725 -0.8317 -0.0104 -0.1627
  129MOL   H26638922   5.363   2.208   0.640  0.5226 -0.1875  0.4931
  129MOL   H26738923   5.438   2.177   0.427  2.6717 -0.3774 -2.2331
  129MOL   H26838924   5.589   2.113   0.485  0.8855 -1.1197  3.0280
  129MOL   H26938925   5.447   2.012   0.512 -0.0394 -0.2087  2.3286
  129MOL   H27038926   5.580   2.465   0.310  0.4270  1.1448 -0.5487
  129MOL   H27138927   5.710   2.564   0.363  0.4206  0.6796 -0.2309
  129MOL   C27238928   5.757   2.357   0.387  0.1774  0.0893  0.0279
  129MOL   O27338929   5.788   2.325   0.254  0.4335  0.3664  0.0918
  129MOL   C27438930   5.758   2.202   0.206  0.4619  0.5389  0.2288
  129MOL   O27538931   5.693   2.114   0.265  0.6779 -0.6797  0.8964
  129MOL   C27638932   5.794   2.170   0.063 -0.2413  0.5390 -0.2288
  129MOL   C27738933   5.935   2.204   0.028  0.0679 -0.2168 -0.1774
  129MOL   C27838934   5.893   2.384   0.457  0.2192 -0.3696  0.1088
  129MOL   H27938935   5.700   2.277   0.436 -2.6018  1.5670 -0.6835
  129MOL   H28038936   5.780   2.062   0.066  1.8829  0.2471  0.1037
  129MOL   H28138937   5.725   2.204   7.931  0.0357  0.9589 -0.2915
  129MOL   H28238938   6.006   2.175   0.105  0.0276 -0.4462 -0.2266
  129MOL   H28338939   5.969   2.169   7.876  1.2906 -0.1241  0.2031
  129MOL   H28438940   5.947   2.312   0.029  0.8363 -0.2943 -1.1174
  129MOL   H28538941   5.940   2.472   0.412  0.5396 -0.8599 -0.5123
  129MOL   H28638942   5.881   2.421   0.559 -1.1582 -0.7963  0.1162
  129MOL   C28738943   5.986   2.255   0.457  0.2508 -0.2132 -0.0610
  129MOL   O28838944   6.110   2.276   0.531 -0.3600  0.1229 -0.3378
  129MOL   C28938945   6.225   2.314   0.452  0.0853 -0.1358 -0.1575
  129MOL   O29038946   6.244   2.315   0.330  0.3130  0.1325  0.2748
  129MOL   C29138947   6.340   2.355   0.549  0.2568  0.1357  0.3662
  129MOL   C29238948   6.291   2.433   0.670  0.2735 -0.3373  0.0861
  129MOL   C29338949   5.924   2.129   0.529 -0.5779 -0.1641  0.3797
  129MOL   H29438950   5.999   2.229   0.352  0.5518 -0.8161  0.1201
  129MOL   H29538951   6.371   2.260   0.593  2.7591  1.1932  0.9567
  129MOL   H29638952   6.413   2.405   0.487  0.3516 -0.4264  0.0214
  129MOL   H29738953   6.259   2.537   0.660  0.9579  0.0069  1.3872
  129MOL   H29838954   6.212   2.378   0.721  1.0075 -0.4486  1.0959
  129MOL   H29938955   6.369   2.436   0.746  0.7141 -1.5871 -0.3087
  129MOL   H30038956   5.908   2.056   0.450 -1.0640  1.7851 -1.3644
  129MOL   H30138957   5.989   2.075   0.598 -0.4669  0.4370  0.7457
  129MOL   H30238958   5.827   2.149   0.573 -0.9071  1.1607 -0.9057
  130MOL     C138959   1.972   5.060   3.755  0.1840  0.3496  0.2747
  130MOL     O238960   2.026   5.089   3.630 -0.0462 -0.1210  0.1538
  130MOL     C338961   2.155   5.098   3.616  0.1698  0.6252  0.0978
  130MOL     O438962   2.245   5.072   3.704  0.4273 -0.3056  0.0060
  130MOL     C538963   2.200   5.138   3.474  0.1109  0.3011  0.4675
  130MOL     C638964   2.134   5.061   3.352  0.5125  0.0620 -0.2126
  130MOL     C738965   1.822   5.083   3.733 -0.0898  0.2368  0.5596
  130MOL     H838966   2.007   5.118   3.840  0.3757  4.3022 -2.3582
  130MOL     H938967   2.193   5.245   3.459  0.6580  0.1099 -1.3403
  130MOL    H1038968   2.309   5.132   3.472  0.1045 -0.5565  2.0416
  130MOL    H1138969   2.031   5.033   3.376  1.2587 -3.3760 -0.7080
  130MOL    H1238970   2.115   5.123   3.264 -0.5092  2.1453  1.4110
  130MOL    H1338971   2.193   4.974   3.325  1.5971  0.2528  1.4886
  130MOL    H1438972   1.807   5.191   3.736 -1.5140  0.1297 -1.4446
  130MOL    H1538973   1.785   5.056   3.634 -2.7583 -0.8821  1.8143
  130MOL    H1638974   1.995   4.956   3.775 -0.7626  0.0270 -0.2515
  130MOL    C1738975   1.734   5.018   3.843 -0.5302 -0.1559 -0.5325
  130MOL    O1838976   1.787   5.062   3.969  0.1108 -0.0034  0.4131
  130MOL    C1938977   1.758   4.991   4.089 -0.2748  0.0761 -0.7632
  130MOL    O2038978   1.689   4.893   4.088 -0.3725 -0.2561  0.1944
  130MOL    C2138979   1.791   5.073   4.216  0.3653  0.2100  0.0694
  130MOL    C2238980   1.807   4.984   4.345  0.2461 -0.9223  0.2062
  130MOL    C2338981   1.586   5.059   3.832  0.4261 -0.3810  0.3068
  130MOL    H2438982   1.750   4.910   3.844 -0.1101 -0.0922 -0.3192
  130MOL    H2538983   1.870   5.147   4.200 -0.2429  0.8045 -0.1908
  130MOL    H2638984   1.708   5.140   4.235 -0.1543 -0.5086  0.3427
  130MOL    H2738985   1.904   4.935   4.337  0.0108 -1.8966  2.7812
  130MOL    H2838986   1.807   5.044   4.435 -0.3615 -0.6052  0.0039
  130MOL    H2938987   1.732   4.906   4.362 -2.5412  1.5815 -0.2589
  130MOL    H3038988   1.538   5.057   3.930  0.8683  1.4562  0.5803
  130MOL    H3138989   1.579   5.162   3.798  1.9680  0.0999  1.4059
  130MOL    C3238990   1.496   4.968   3.750  0.0784 -0.5393  0.1395
  130MOL    O3338991   1.498   4.840   3.813  0.4894 -0.1785 -0.1517
  130MOL    C3438992   1.479   4.732   3.739  0.2424  0.9069 -0.3005
  130MOL    O3538993   1.461   4.734   3.619 -0.1395 -1.0699 -0.1259
  130MOL    C3638994   1.483   4.602   3.818  0.2948 -0.9602  0.0441
  130MOL    C3738995   1.337   4.554   3.865  0.1986 -0.1826 -0.4829
  130MOL    C3838996   1.350   5.018   3.721 -0.0406 -0.3176  0.2194
  130MOL    H3938997   1.547   4.948   3.656 -0.0544 -0.6826  0.0992
  130MOL    H4038998   1.523   4.532   3.745 -0.7242 -0.6309 -0.8470
  130MOL    H4138999   1.558   4.600   3.897  1.9128  1.3457 -1.3638
  130MOL    H4239000   1.306   4.614   3.951  0.1943  1.0715 -1.3518
  130MOL    H4339001   1.263   4.575   3.789 -2.4025  0.8560  2.2229
  130MOL    H4439002   1.334   4.450   3.896 -1.0138 -0.1344 -0.4233
  130MOL    H4539003   1.278   4.937   3.733  0.4044 -0.8623 -0.7098
  130MOL    H4639004   1.330   5.091   3.799 -2.7630  0.7718 -1.4516
  130MOL    C4739005   1.321   5.083   3.594  0.2728 -0.3460 -0.4697
  130MOL    O4839006   1.412   5.195   3.586  0.6430  0.1102 -0.2331
  130MOL    C4939007   1.370   5.307   3.516 -0.8051 -0.2962 -0.2465
  130MOL    O5039008   1.263   5.314   3.451  0.3536  0.7381 -0.3864
  130MOL    C5139009   1.469   5.420   3.531  0.2835 -0.8233  0.3631
  130MOL    C5239010   1.622   5.395   3.499  0.6095  0.1959  0.1744
  130MOL    C5339011   1.324   4.993   3.462  0.4517  0.0642 -0.5434
  130MOL    H5439012   1.221   5.122   3.611  0.0547 -1.3017  0.4881
  130MOL    H5539013   1.434   5.477   3.445  0.3909  0.4353  1.1304
  130MOL    H5639014   1.445   5.483   3.617  1.5742  1.5423 -0.9699
  130MOL    H5739015   1.646   5.290   3.516  1.4733  0.5846  1.4840
  130MOL    H5839016   1.648   5.410   3.394 -1.1028 -1.7658 -0.5547
  130MOL    H5939017   1.688   5.448   3.569 -1.5267  1.1173  1.5298
  130MOL    H6039018   1.301   5.061   3.379 -0.0794 -1.0956 -1.3566
  130MOL    H6139019   1.422   4.946   3.452  0.7363  0.8753 -1.8082
  130MOL    C6239020   1.215   4.886   3.457 -0.2150  0.0696 -0.3974
  130MOL    O6339021   1.086   4.940   3.473  0.4196 -0.2766  0.1494
  130MOL    C6439022   1.001   4.884   3.573  1.1542 -0.2858 -0.1562
  130MOL    O6539023   1.027   4.799   3.656  0.0025 -0.3806  0.7376
  130MOL    C6639024   0.853   4.941   3.566 -0.1507  0.5819  0.3479
  130MOL    C6739025   0.753   4.834   3.531 -0.2568 -0.6326 -0.9765
  130MOL    C6839026   1.225   4.806   3.324 -0.6259  0.7751  0.9466
  130MOL    H6939027   1.248   4.816   3.533 -0.5202 -0.8821 -1.1302
  130MOL    H7039028   0.832   4.984   3.664  1.2129 -0.0785  0.9376
  130MOL    H7139029   0.848   5.021   3.492 -0.1273 -1.5442 -2.0001
  130MOL    H7239030   0.791   4.787   3.440  2.0508  0.2203 -0.4933
  130MOL    H7339031   0.730   4.764   3.612 -0.7040  0.6699  0.0450
  130MOL    H7439032   0.669   4.888   3.489 -0.2128 -0.4546 -0.8387
  130MOL    H7539033   1.209   4.869   3.236 -1.4918 -0.8931 -0.1194
  130MOL    H7639034   1.326   4.764   3.329 -0.4408  0.9813 -0.7552
  130MOL    C7739035   1.115   4.688   3.316  0.1018 -0.7810  0.6911
  130MOL    O7839036   1.149   4.635   3.189 -0.3046 -0.0605 -0.1540
  130MOL    C7939037   1.066   4.563   3.126 -0.0490  0.4549  1.1198
  130MOL    O8039038   0.949   4.535   3.152 -0.2678  0.3695 -0.0970
  130MOL    C8139039   1.126   4.500   3.001  0.4952  0.2532  0.0896
  130MOL    C8239040   1.216   4.384   3.026  0.1311  0.1250 -0.1727
  130MOL    C8339041   1.157   4.583   3.421 -0.7007  0.0638  0.5429
  130MOL    H8439042   1.010   4.718   3.322  0.1306 -1.1791  4.2795
  130MOL    H8539043   1.043   4.462   2.942  1.6637  1.3081 -2.2908
  130MOL    H8639044   1.168   4.581   2.942  0.2388 -0.2502 -0.7836
  130MOL    H8739045   1.175   4.302   3.083 -0.7026 -1.8234 -3.4353
  130MOL    H8839046   1.267   4.346   2.938  0.0298 -0.5469  0.0594
  130MOL    H8939047   1.294   4.426   3.090 -0.4044  0.5655  0.1931
  130MOL    H9039048   1.259   4.551   3.403 -0.9076 -1.0997  1.3641
  130MOL    H9139049   1.166   4.632   3.518 -0.7269  2.6444 -0.7145
  130MOL    C9239050   1.068   4.455   3.449 -0.1826 -0.1605  0.0750
  130MOL    O9339051   1.134   4.356   3.537 -0.3753  0.2611  0.1734
  130MOL    C9439052   1.128   4.228   3.516 -0.0877 -0.3450  0.1852
  130MOL    O9539053   1.060   4.165   3.432 -0.1683 -0.6892 -0.4773
  130MOL    C9639054   1.237   4.163   3.600 -0.2608 -0.0223 -0.4930
  130MOL    C9739055   1.378   4.219   3.564  0.0489 -0.3388 -0.3893
  130MOL    C9839056   0.932   4.497   3.494 -0.6868 -0.3725  0.0656
  130MOL    H9939057   1.071   4.409   3.350 -0.4627 -2.4080  1.0838
  130MOL   H10039058   1.218   4.183   3.706 -1.1863 -1.0046 -0.4646
  130MOL   H10139059   1.220   4.057   3.582  0.2275  0.1670 -2.0944
  130MOL   H10239060   1.395   4.326   3.572 -1.1922 -0.1105 -0.6867
  130MOL   H10339061   1.462   4.169   3.613  0.1780 -1.4976 -1.7671
  130MOL   H10439062   1.384   4.199   3.457  0.5687 -1.7277 -0.1128
  130MOL   H10539063   0.940   4.544   3.592  0.7682  0.4413 -0.4372
  130MOL   H10639064   0.900   4.577   3.427  0.1713 -1.9385 -2.2561
  130MOL   C10739065   0.822   4.386   3.491 -0.7147  0.3887 -0.5429
  130MOL   O10839066   0.715   4.428   3.577 -0.4250  0.0369 -0.5936
  130MOL   C10939067   0.717   4.394   3.706 -0.3783 -0.4992 -0.7569
  130MOL   O11039068   0.804   4.327   3.767 -0.8925 -0.4528  0.3646
  130MOL   C11139069   0.598   4.448   3.786  0.4392  0.0221  0.1773
  130MOL   C11239070   0.600   4.407   3.933  0.7366  0.2067 -0.4399
  130MOL   C11339071   0.761   4.353   3.353 -0.1542  0.4079 -0.3346
  130MOL   H11439072   0.859   4.294   3.537  1.3386  1.5401  0.1608
  130MOL   H11539073   0.604   4.557   3.788 -0.2130  0.0440  1.5731
  130MOL   H11639074   0.503   4.424   3.739  0.0584  0.3266  0.7819
  130MOL   H11739075   0.571   4.303   3.939 -1.9245  1.0087  1.6111
  130MOL   H11839076   0.692   4.428   3.988 -1.2951  0.9763  2.7619
  130MOL   H11939077   0.529   4.466   3.991 -0.5397  0.6401 -2.3825
  130MOL   H12039078   0.701   4.437   3.318 -1.0859 -0.9528 -2.1386
  130MOL   H12139079   0.844   4.337   3.284  0.4974 -2.2196  0.9687
  130MOL   C12239080   0.660   4.232   3.344  0.0865  0.6292 -0.0472
  130MOL   O12339081   0.603   4.241   3.210 -0.4688  0.3393 -0.3396
  130MOL   C12439082   0.466   4.223   3.195 -0.6482  0.0056  0.5867
  130MOL   O12539083   0.383   4.209   3.284 -0.3650  0.1853 -0.2573
  130MOL   C12639084   0.423   4.215   3.050 -1.0540 -1.4406  0.3323
  130MOL   C12739085   0.472   4.081   2.983 -0.1358 -0.5336  0.0909
  130MOL   C12839086   0.720   4.093   3.363  0.0417 -0.2170 -0.0887
  130MOL   H12939087   0.585   4.260   3.419 -1.3782 -0.3510 -1.1197
  130MOL   H13039088   0.314   4.213   3.039 -1.1893  0.4999  1.1280
  130MOL   H13139089   0.467   4.299   2.997  0.3250 -1.3617  1.5977
  130MOL   H13239090   0.445   4.063   2.879 -1.1158  1.4693 -0.0269
  130MOL   H13339091   0.581   4.078   2.981 -0.1270  0.6043 -1.5902
  130MOL   H13439092   0.436   3.995   3.040 -2.4310  1.5896  1.9549
  130MOL   H13539093   0.679   4.024   3.288 -0.8177  1.4237 -1.1524
  130MOL   H13639094   0.825   4.091   3.335 -0.3045  2.1288 -1.6640
  130MOL   C13739095   0.703   4.041   3.509 -0.0459  0.0944  0.7822
  130MOL   O13839096   0.584   3.962   3.525  0.5838 -0.0004  0.3482
  130MOL   C13939097   0.477   4.015   3.585 -0.5362  0.3715  0.5103
  130MOL   O14039098   0.459   4.119   3.640 -0.0329 -0.2325  0.6025
  130MOL   C14139099   0.374   3.899   3.602  0.1352 -0.1887  0.6682
  130MOL   C14239100   0.250   3.938   3.677 -0.0374  0.0610 -0.4026
  130MOL   C14339101   0.819   3.949   3.542  0.2676 -0.2231  0.0280
  130MOL   H14439102   0.715   4.124   3.579 -2.5888  0.2571  1.0735
  130MOL   H14539103   0.360   3.870   3.498  0.0579  1.1745  0.2900
  130MOL   H14639104   0.424   3.817   3.654 -0.6979 -0.6265  0.7798
  130MOL   H14739105   0.270   3.959   3.782 -0.9505 -0.2068 -0.1719
  130MOL   H14839106   0.210   4.029   3.634 -1.0095 -1.5239 -2.9562
  130MOL   H14939107   0.181   3.855   3.661  2.4472 -1.6308 -2.7800
  130MOL   H15039108   0.809   3.858   3.483 -0.2235  0.0257 -0.2759
  130MOL   H15139109   0.912   3.998   3.513  0.0233 -0.7101 -1.6210
  130MOL   C15239110   0.810   3.896   3.691 -0.8157 -0.6829  0.0515
  130MOL   O15339111   0.882   3.772   3.691 -0.3773  0.2319 -0.8946
  130MOL   C15439112   1.023   3.769   3.698  0.0827 -0.4023  0.4719
  130MOL   O15539113   1.099   3.863   3.702 -0.0550  0.3297  0.2903
  130MOL   C15639114   1.069   3.623   3.691  0.7268 -0.1483  0.1549
  130MOL   C15739115   1.052   3.562   3.552  0.2739  0.1019 -0.4401
  130MOL   C15839116   0.848   3.998   3.805  0.0878 -0.1458 -0.3177
  130MOL   H15939117   0.709   3.858   3.705 -0.3261 -1.4193  1.7353
  130MOL   H16039118   1.169   3.614   3.735  2.0081  1.3664 -2.3438
  130MOL   H16139119   0.996   3.572   3.754 -0.1811  0.3574 -0.4892
  130MOL   H16239120   0.966   3.602   3.499  0.6972  1.3601 -0.1908
  130MOL   H16339121   1.135   3.579   3.483  0.3633 -0.3158 -0.4390
  130MOL   H16439122   1.025   3.457   3.568 -0.5156  0.2841 -0.5488
  130MOL   H16539123   0.944   4.048   3.792 -0.5661  0.8935 -1.2627
  130MOL   H16639124   0.768   4.070   3.789  0.2377 -0.2503 -1.5495
  130MOL   C16739125   0.825   3.950   3.956  0.4860 -0.1749  0.1906
  130MOL   O16839126   0.932   3.871   3.994 -0.3203 -0.0313 -0.5971
  130MOL   C16939127   0.914   3.737   4.033 -0.2828 -0.3932  0.6069
  130MOL   O17039128   0.805   3.687   4.036 -0.0619 -0.1674  0.1725
  130MOL   C17139129   1.037   3.658   4.072  0.0088  0.3981  0.3088
  130MOL   C17239130   1.101   3.713   4.198  0.0762 -0.0865  0.0307
  130MOL   C17339131   0.829   4.065   4.050  0.4159 -0.0220  0.3065
  130MOL   H17439132   0.732   3.895   3.969 -0.9764  1.9679 -1.0156
  130MOL   H17539133   1.013   3.553   4.085  2.7848 -0.4142 -0.8091
  130MOL   H17639134   1.103   3.665   3.986  0.7898  1.5140  0.9842
  130MOL   H17739135   1.034   3.686   4.280 -1.5203 -0.5910 -1.4236
  130MOL   H17839136   1.202   3.673   4.214  0.7896  0.5868 -2.5723
  130MOL   H17939137   1.106   3.822   4.193 -0.2317 -0.1514 -2.0991
  130MOL   H18039138   0.934   4.078   4.077  0.1210 -1.8647  2.5313
  130MOL   H18139139   0.784   4.153   4.005 -0.2771  0.5521  2.0955
  130MOL   C18239140   0.756   4.032   4.186 -0.1009 -0.0520  0.7937
  130MOL   O18339141   0.792   4.131   4.284  0.5048  0.2741 -0.3830
  130MOL   C18439142   0.906   4.129   4.362 -0.3571  0.6597 -0.0934
  130MOL   O18539143   0.976   4.028   4.376  0.4211  0.0266 -0.0847
  130MOL   C18639144   0.949   4.270   4.416 -0.2461  0.4328 -0.6630
  130MOL   C18739145   0.917   4.393   4.326  0.2574  0.3103  0.2932
  130MOL   C18839146   0.601   4.046   4.168 -0.6312 -0.3425  0.2167
  130MOL   H18939147   0.780   3.935   4.228  0.5271  0.6428  2.0850
  130MOL   H19039148   0.907   4.285   4.516 -1.0905  0.9334 -1.0923
  130MOL   H19139149   1.057   4.271   4.431 -0.2249 -2.8983 -0.3509
  130MOL   H19239150   0.959   4.487   4.360 -0.8737  1.4152 -1.3163
  130MOL   H19339151   0.954   4.364   4.228  1.9820  3.4458 -0.0390
  130MOL   H19439152   0.809   4.405   4.329  0.3695  1.1133  1.4485
  130MOL   H19539153   0.562   4.147   4.159 -1.4632 -0.6960 -0.1976
  130MOL   H19639154   0.575   3.981   4.084 -0.0298  0.9534 -1.0026
  130MOL   C19739155   0.519   3.987   4.286  0.5630  0.6090 -0.5330
  130MOL   O19839156   0.534   4.063   4.406 -0.0245  0.3126 -0.4771
  130MOL   C19939157   0.519   3.999   4.532  0.1708 -1.4567 -0.2308
  130MOL   O20039158   0.499   3.881   4.550  0.4445 -0.3204 -0.2156
  130MOL   C20139159   0.535   4.091   4.660  0.3935  0.0543 -0.2205
  130MOL   C20239160   0.666   4.173   4.656  0.3988 -0.0236  0.5479
  130MOL   C20339161   0.360   3.982   4.260  0.2313  0.0251  0.1644
  130MOL   H20439162   0.549   3.884   4.304 -2.3234 -0.6581 -2.5276
  130MOL   H20539163   0.454   4.163   4.663  1.2574  1.1595 -2.6509
  130MOL   H20639164   0.525   4.017   4.740  0.7209 -1.2674 -1.3857
  130MOL   H20739165   0.670   4.250   4.579  1.7381  0.3562  0.9893
  130MOL   H20839166   0.678   4.217   4.755 -1.1606 -0.9542  1.1784
  130MOL   H20939167   0.757   4.113   4.648  1.2375  1.3682 -0.4836
  130MOL   H21039168   0.309   3.935   4.344 -1.1300 -0.0259 -0.6754
  130MOL   H21139169   0.322   4.083   4.270  0.0010  0.0701 -1.0119
  130MOL   C21239170   0.317   3.920   4.124 -1.3367  0.2363 -0.2597
  130MOL   O21339171   0.375   3.792   4.114  0.3577  0.1486 -0.1429
  130MOL   C21439172   0.419   3.743   4.004  0.3054  0.3364  0.1066
  130MOL   O21539173   0.464   3.804   3.908  0.1494  0.0365  0.5011
  130MOL   C21639174   0.430   3.591   4.009  0.0313  1.0936 -0.2531
  130MOL   C21739175   0.447   3.542   3.866  0.7573 -0.5819  0.2005
  130MOL   C21839176   0.164   3.911   4.114  0.4349 -0.0049  0.1178
  130MOL   H21939177   0.344   3.980   4.037 -1.2257  2.0324  0.9838
  130MOL   H22039178   0.516   3.563   4.070  0.0893  3.4395  0.8184
  130MOL   H22139179   0.342   3.550   4.058 -0.0189  1.4005 -0.0844
  130MOL   H22239180   0.363   3.565   3.801  0.1625 -0.1938  1.0919
  130MOL   H22339181   0.534   3.578   3.811 -1.0496  2.2730 -0.8790
  130MOL   H22439182   0.458   3.434   3.861  0.0791 -0.7211  1.3504
  130MOL   H22539183   0.143   3.858   4.020  0.4469 -1.5623  0.9769
  130MOL   H22639184   0.119   3.839   4.183  0.6990  0.0365  0.3303
  130MOL   C22739185   0.084   4.040   4.120  0.5082 -0.3166 -0.0414
  130MOL   O22839186   0.119   4.122   4.009  0.6848 -0.1679 -0.0065
  130MOL   C22939187   0.206   4.228   4.020 -0.4488 -0.8135 -0.6343
  130MOL   O23039188   0.259   4.276   4.122 -0.3894 -0.0484 -0.6884
  130MOL   C23139189   0.226   4.284   3.879  0.1043 -0.2506 -0.0662
  130MOL   C23239190   0.102   4.358   3.813 -0.0170  0.2478 -0.0099
  130MOL   C23339191   7.880   4.023   4.129  0.5006  0.1348  0.0448
  130MOL   H23439192   0.116   4.100   4.205  2.1646  1.0867 -1.6231
  130MOL   H23539193   0.318   4.342   3.878  0.5860 -0.9788  1.0761
  130MOL   H23639194   0.251   4.194   3.824  0.4814  0.2213 -0.6706
  130MOL   H23739195   0.027   4.288   3.849 -0.0045 -0.5680 -1.5500
  130MOL   H23839196   0.074   4.452   3.861  1.2102  0.4092  0.4267
  130MOL   H23939197   0.095   4.348   3.705  1.2449 -2.1803  0.1028
  130MOL   H24039198   7.857   3.958   4.046  0.4708 -0.3982  0.4677
  130MOL   H24139199   7.851   3.974   4.222  1.1055  0.4376  0.3992
  130MOL   C24239200   7.799   4.151   4.111 -1.4554 -0.4951 -0.1207
  130MOL   O24339201   7.661   4.122   4.077 -0.7007  0.1114 -0.1783
  130MOL   C24439202   7.598   4.174   3.969  0.0618 -0.2998 -0.3125
  130MOL   O24539203   7.653   4.255   3.894 -0.3691  0.4751 -0.2578
  130MOL   C24639204   7.461   4.114   3.953 -0.9404  0.3134 -0.5879
  130MOL   C24739205   7.377   4.174   3.831  0.2048 -0.1355  0.5084
  130MOL   C24839206   7.813   4.237   4.242 -0.2289  0.1861  0.2599
  130MOL   H24939207   7.842   4.215   4.034 -2.6835  1.3969  0.7012
  130MOL   H25039208   7.462   4.005   3.955  1.5824  0.3320  1.8314
  130MOL   H25139209   7.406   4.137   4.044 -1.6484 -2.2718 -0.3150
  130MOL   H25239210   7.271   4.171   3.856 -0.1470 -0.1339 -0.9391
  130MOL   H25339211   7.394   4.272   3.787 -1.1979 -0.8540 -1.7169
  130MOL   H25439212   7.392   4.094   3.758 -0.9444 -1.3190  1.5362
  130MOL   H25539213   7.742   4.200   4.316  0.1329 -0.6143  0.2202
  130MOL   H25639214   7.910   4.231   4.293  0.0764  0.7892 -0.2439
  130MOL   C25739215   7.776   4.386   4.216 -0.2076  0.1548  0.2109
  130MOL   O25839216   7.769   4.442   4.349 -0.1363  0.6578  0.3600
  130MOL   C25939217   7.662   4.507   4.394 -0.0786 -0.5582  0.3655
  130MOL   O26039218   7.557   4.512   4.331  0.5351 -0.0754  0.2036
  130MOL   C26139219   7.674   4.559   4.538  0.3369  0.3818 -0.0714
  130MOL   C26239220   7.773   4.676   4.546  0.0948  0.6150 -0.4152
  130MOL   C26339221   7.880   4.469   4.137  0.3506 -0.1230 -0.2282
  130MOL   H26439222   7.680   4.386   4.163  1.0287  0.8423 -2.0849
  130MOL   H26539223   7.573   4.588   4.569  0.5096  0.5771  0.3169
  130MOL   H26639224   7.702   4.473   4.598  0.7687  0.1802 -0.5575
  130MOL   H26739225   7.735   4.760   4.489  0.5827  0.9535 -0.2432
  130MOL   H26839226   7.777   4.707   4.650 -0.2503 -3.1366  0.8204
  130MOL   H26939227   7.875   4.652   4.514  0.0792  1.7807 -1.3727
  130MOL   H27039228   0.037   4.479   4.175 -0.8870  1.4631  2.8908
  130MOL   H27139229   7.892   4.417   4.042  0.7863 -0.8104  0.1917
  130MOL   C27239230   7.834   4.613   4.118 -0.0960  0.2564 -0.5772
  130MOL   O27339231   7.938   4.681   4.050  0.1118 -0.7563  0.5183
  130MOL   C27439232   0.089   4.746   4.119 -0.5078  0.3515 -0.1120
  130MOL   O27539233   0.093   4.742   4.242  0.4553  0.2435  0.0796
  130MOL   C27639234   0.198   4.801   4.031 -0.4245 -0.2889 -0.4358
  130MOL   C27739235   0.279   4.693   3.961 -0.5035  0.7338 -0.3872
  130MOL   C27839236   7.706   4.639   4.037  0.1817 -0.1860  0.7165
  130MOL   H27939237   7.813   4.667   4.210 -0.0199 -0.7025  0.0108
  130MOL   H28039238   0.164   4.876   3.960  0.6753 -0.6345 -1.3321
  130MOL   H28139239   0.261   4.857   4.099  0.0783 -0.0904 -1.0663
  130MOL   H28239240   0.351   4.741   3.896  3.0519 -0.9076  2.1804
  130MOL   H28339241   0.332   4.636   4.038 -0.7501 -1.0639 -1.5099
  130MOL   H28439242   0.209   4.636   3.899 -2.1413 -2.5951  4.2382
  130MOL   H28539243   7.716   4.623   3.930 -0.2342 -1.7374  0.8972
  130MOL   H28639244   7.627   4.569   4.066 -1.2707  0.4406 -1.5385
  130MOL   C28739245   7.633   4.780   4.062 -0.1239  0.3634  0.6022
  130MOL   O28839246   7.572   4.768   4.191 -0.2452 -0.3171  0.2076
  130MOL   C28939247   7.448   4.808   4.217 -0.0627  0.0729  0.2152
  130MOL   O29039248   7.371   4.842   4.128  0.0586 -0.0170 -0.3467
  130MOL   C29139249   7.415   4.820   4.367  0.5198 -0.0082  0.0321
  130MOL   C29239250   7.273   4.862   4.402 -0.2106 -0.9846  0.2760
  130MOL   C29339251   7.715   4.911   4.077 -0.4441 -0.5107  0.1191
  130MOL   H29439252   7.549   4.793   3.993  0.2077  1.4338  0.3903
  130MOL   H29539253   7.437   4.722   4.409  0.6677 -0.2079 -0.5130
  130MOL   H29639254   7.491   4.883   4.414 -0.3444 -0.1199  1.6111
  130MOL   H29739255   7.263   4.956   4.347  3.6113  0.6828  2.2221
  130MOL   H29839256   7.204   4.785   4.368  0.9595 -2.0887  0.3519
  130MOL   H29939257   7.263   4.891   4.507  0.7343  0.1048  0.0836
  130MOL   H30039258   7.797   4.891   4.145 -0.4870  0.0259  0.3279
  130MOL   H30139259   7.749   4.929   3.975  0.3760  2.2061  0.8290
  130MOL   H30239260   7.654   4.990   4.122  0.9395  1.0830 -0.7374
  131MOL     C139261   4.710   6.924   2.708  0.1708 -0.6634  0.5915
  131MOL     O239262   4.659   7.056   2.702 -0.4577  0.2030 -0.5817
  131MOL     C339263   4.740   7.161   2.692 -0.6015 -0.1436 -0.8381
  131MOL     O439264   4.861   7.164   2.679  0.1333 -0.0111 -0.0594
  131MOL     C539265   4.661   7.295   2.678  0.1614  0.8199  0.3187
  131MOL     C639266   4.539   7.283   2.587  0.6420  0.2499  0.6494
  131MOL     C739267   4.694   6.867   2.846 -0.2322  0.1014 -0.3816
  131MOL     H839268   4.815   6.924   2.679 -0.3409 -1.5978 -1.3749
  131MOL     H939269   4.621   7.327   2.774 -0.1784  0.4537  0.3042
  131MOL    H1039270   4.723   7.372   2.632 -0.2236  0.9459  0.0081
  131MOL    H1139271   4.486   7.379   2.583 -3.3033 -1.8861 -1.7126
  131MOL    H1239272   4.569   7.262   2.484 -0.1162  0.3256  0.4122
  131MOL    H1339273   4.459   7.214   2.612  0.1491 -0.5062 -2.7825
  131MOL    H1439274   4.732   6.929   2.927  1.7327 -0.2641 -0.9956
  131MOL    H1539275   4.588   6.855   2.870  0.6120 -1.0099  3.0147
  131MOL    H1639276   4.656   6.869   2.631 -1.2525  3.5177 -1.5578
  131MOL    C1739277   4.761   6.727   2.867  0.2626 -0.3262 -0.2325
  131MOL    O1839278   4.722   6.697   3.004  0.3287  0.0854  0.2525
  131MOL    C1939279   4.819   6.647   3.084  0.1793 -0.5476  0.0234
  131MOL    O2039280   4.933   6.614   3.046  0.0372  0.1698 -0.2254
  131MOL    C2139281   4.770   6.631   3.229 -0.4079 -0.4014  0.2382
  131MOL    C2239282   4.835   6.531   3.326  0.0668 -0.1740 -0.2464
  131MOL    C2339283   4.716   6.606   2.787  0.1077  0.2720 -0.0943
  131MOL    H2439284   4.869   6.743   2.869  0.4939 -1.0278 -3.8661
  131MOL    H2539285   4.790   6.733   3.262  0.0252  0.1116 -1.5981
  131MOL    H2639286   4.662   6.633   3.241 -0.3513  1.4320  0.6113
  131MOL    H2739287   4.790   6.431   3.322 -1.2346  0.2778  1.9939
  131MOL    H2839288   4.943   6.529   3.311  0.0985 -0.7476  0.0365
  131MOL    H2939289   4.823   6.567   3.428 -0.9164  0.2602 -0.5098
  131MOL    H3039290   4.722   6.512   2.841 -0.2850 -0.1847 -0.8379
  131MOL    H3139291   4.608   6.610   2.771 -0.0297 -3.0852 -0.3284
  131MOL    C3239292   4.780   6.608   2.651 -0.5121  0.1979 -0.0582
  131MOL    O3339293   4.916   6.580   2.664  0.5621  0.0722  0.0635
  131MOL    C3439294   5.009   6.665   2.624 -0.4335 -0.3395 -0.1030
  131MOL    O3539295   4.981   6.770   2.567  0.1828 -0.2529 -0.1798
  131MOL    C3639296   5.154   6.626   2.648  0.2793  0.3898  0.2689
  131MOL    C3739297   5.182   6.480   2.612  0.5195 -0.4101  0.3608
  131MOL    C3839298   4.736   6.501   2.547  0.2687  1.1622  0.2575
  131MOL    H3939299   4.757   6.699   2.595 -1.8825 -0.8401 -1.2367
  131MOL    H4039300   5.207   6.693   2.581  1.1812 -2.9352 -2.4148
  131MOL    H4139301   5.187   6.654   2.748  0.7007 -1.2934  0.6101
  131MOL    H4239302   5.096   6.422   2.577  0.3850  1.7099 -2.9550
  131MOL    H4339303   5.257   6.477   2.533  1.6934 -1.3882  1.4931
  131MOL    H4439304   5.229   6.424   2.693  1.3483  1.0176  0.8845
  131MOL    H4539305   4.769   6.539   2.450 -0.5743 -0.4490 -0.7091
  131MOL    H4639306   4.792   6.410   2.569 -1.4734  0.2086  0.8277
  131MOL    C4739307   4.585   6.480   2.532  1.0971  0.4678  0.2404
  131MOL    O4839308   4.538   6.604   2.480  0.3829 -0.4613  0.5097
  131MOL    C4939309   4.414   6.637   2.493 -0.2190 -0.1800 -0.7836
  131MOL    O5039310   4.336   6.573   2.565  0.0065  0.1863  0.5293
  131MOL    C5139311   4.385   6.771   2.431  0.2805 -0.0750 -0.0890
  131MOL    C5239312   4.355   6.878   2.536 -0.6013  1.0263  0.3762
  131MOL    C5339313   4.540   6.362   2.424  0.0944 -0.3698 -1.1242
  131MOL    H5439314   4.540   6.464   2.630  0.1542 -0.2170 -0.3023
  131MOL    H5539315   4.471   6.804   2.373 -0.0989 -1.1332 -1.2617
  131MOL    H5639316   4.306   6.753   2.358  0.6847 -3.0227  0.1314
  131MOL    H5739317   4.434   6.885   2.612 -0.0136  1.6585 -0.2938
  131MOL    H5839318   4.355   6.978   2.494 -0.1268  0.7798 -0.2221
  131MOL    H5939319   4.268   6.862   2.600  1.7052 -3.6313  2.6833
  131MOL    H6039320   4.433   6.351   2.407 -0.1394 -3.1685  1.7177
  131MOL    H6139321   4.572   6.401   2.327  1.1625  1.8890  0.0952
  131MOL    C6239322   4.598   6.223   2.466  0.3560 -0.1249 -0.4030
  131MOL    O6339323   4.489   6.147   2.523  0.1844  0.4865 -0.1889
  131MOL    C6439324   4.435   6.173   2.648 -0.1811  0.5745  0.3470
  131MOL    O6539325   4.479   6.252   2.723 -0.6417  0.1066 -0.1183
  131MOL    C6639326   4.315   6.087   2.675 -0.0074  0.3282  0.4189
  131MOL    C6739327   4.325   6.023   2.818  0.6019  0.2303  0.1491
  131MOL    C6839328   4.668   6.153   2.347  0.5678 -0.3776  0.3646
  131MOL    H6939329   4.670   6.244   2.545  0.7217 -2.3952 -0.1079
  131MOL    H7039330   4.225   6.147   2.665  0.6848  1.5019  1.0879
  131MOL    H7139331   4.296   6.009   2.601 -2.3930  0.6228  0.6727
  131MOL    H7239332   4.303   6.090   2.901  0.4215  0.7801 -0.3392
  131MOL    H7339333   4.261   5.935   2.823  1.3637 -0.3823 -0.5305
  131MOL    H7439334   4.421   5.974   2.834  0.6619  0.1873 -0.3369
  131MOL    H7539335   4.595   6.153   2.266  2.6509 -0.1065 -1.6060
  131MOL    H7639336   4.750   6.214   2.309  0.6846 -0.9776 -0.3633
  131MOL    C7739337   4.730   6.018   2.398  0.0262  0.0199  0.1491
  131MOL    O7839338   4.632   5.918   2.426  0.3596  0.5353 -0.0514
  131MOL    C7939339   4.607   5.882   2.557 -1.2121 -0.6012  0.6106
  131MOL    O8039340   4.666   5.920   2.653  0.4336  0.2103 -0.0613
  131MOL    C8139341   4.499   5.775   2.567 -0.1302  0.1891  0.7541
  131MOL    C8239342   4.510   5.694   2.700  0.3933  0.6292 -0.4201
  131MOL    C8339343   4.828   5.957   2.291 -0.6338  0.6178  0.8039
  131MOL    H8439344   4.783   6.035   2.492  1.9410 -0.8227 -0.7617
  131MOL    H8539345   4.401   5.812   2.536  0.6380  0.8460 -0.9647
  131MOL    H8639346   4.521   5.718   2.477  1.5464  1.2079  0.4830
  131MOL    H8739347   4.448   5.750   2.770  1.1684 -0.6149  1.2874
  131MOL    H8839348   4.459   5.599   2.689 -0.2419  0.8313  0.6793
  131MOL    H8939349   4.614   5.686   2.730 -0.2757 -2.5870  1.1750
  131MOL    H9039350   4.769   5.893   2.226 -1.1837 -1.8597  3.6469
  131MOL    H9139351   4.872   6.034   2.228  1.5097  0.7725  2.4152
  131MOL    C9239352   4.944   5.871   2.356 -0.0229  0.0994  0.0767
  131MOL    O9339353   4.960   5.748   2.290  0.0202 -0.3334  0.5140
  131MOL    C9439354   4.873   5.646   2.314 -0.2734 -0.3126 -0.4173
  131MOL    O9539355   4.780   5.650   2.394 -0.0588  0.4557 -0.0477
  131MOL    C9639356   4.914   5.519   2.238 -0.0404 -0.1180 -0.6723
  131MOL    C9739357   5.061   5.510   2.177 -0.2310 -0.0023 -0.3662
  131MOL    C9839358   5.082   5.942   2.345  0.4004  0.0423 -0.1506
  131MOL    H9939359   4.923   5.854   2.462  2.2664  0.1162  0.5493
  131MOL   H10039360   4.901   5.447   2.318 -1.9158  0.4761 -0.4033
  131MOL   H10139361   4.841   5.491   2.161 -0.0790 -1.7508 -0.0421
  131MOL   H10239362   5.082   5.417   2.124 -2.8184 -0.8368 -0.0104
  131MOL   H10339363   5.076   5.584   2.099 -0.0657  1.8252  1.3622
  131MOL   H10439364   5.138   5.530   2.251 -1.4817 -0.3368  1.0596
  131MOL   H10539365   5.161   5.869   2.363  1.7026  0.9048 -2.2122
  131MOL   H10639366   5.082   5.979   2.242 -2.0740 -2.1264 -1.0005
  131MOL   C10739367   5.094   6.072   2.425  0.6747  0.1182  0.3454
  131MOL   O10839368   5.080   6.037   2.566 -0.3067 -0.0546  0.0374
  131MOL   C10939369   4.997   6.108   2.642  0.1608 -0.3253 -0.2005
  131MOL   O11039370   4.911   6.187   2.601 -0.0570  0.1440 -0.5188
  131MOL   C11139371   5.018   6.076   2.792 -0.0490  0.2898  0.5668
  131MOL   C11239372   4.911   6.127   2.892 -0.3980 -0.1732  0.3104
  131MOL   C11339373   5.236   6.128   2.416 -0.2114  0.6300  0.4798
  131MOL   H11439374   5.018   6.146   2.400 -0.4812 -1.3781 -0.6194
  131MOL   H11539375   5.021   5.967   2.795 -2.8401  0.1644  0.5132
  131MOL   H11639376   5.117   6.106   2.827  0.6781 -1.6114  0.1842
  131MOL   H11739377   4.929   6.120   2.999  1.1949  1.0476  0.1553
  131MOL   H11839378   4.900   6.235   2.879  0.5001 -0.2624 -1.4361
  131MOL   H11939379   4.816   6.080   2.867 -1.0497  2.2977 -2.1552
  131MOL   H12039380   5.250   6.189   2.504  0.7538  2.9723 -1.2402
  131MOL   H12139381   5.306   6.044   2.422  0.2144  1.0196  0.9379
  131MOL   C12239382   5.272   6.215   2.296 -0.3128 -0.2756  0.5816
  131MOL   O12339383   5.198   6.349   2.306 -0.1169  0.0178  0.0739
  131MOL   C12439384   5.082   6.367   2.250 -0.5309  1.3379  0.5749
  131MOL   O12539385   5.020   6.282   2.181  0.3818 -0.4099  0.2115
  131MOL   C12639386   5.014   6.498   2.288  0.4344 -0.3277 -0.1175
  131MOL   C12739387   5.082   6.614   2.208 -0.7174  0.1032 -0.1000
  131MOL   C12839388   5.419   6.251   2.287  0.0249  0.2197  0.1326
  131MOL   H12939389   5.245   6.171   2.201  0.2074  0.8839 -0.1140
  131MOL   H13039390   4.908   6.506   2.264  0.5603  3.1101  0.0890
  131MOL   H13139391   5.029   6.522   2.393 -1.2740 -0.8026  0.2392
  131MOL   H13239392   5.055   6.619   2.102  1.2912 -0.5283 -0.6811
  131MOL   H13339393   5.060   6.714   2.243 -0.3472  0.3176 -0.4626
  131MOL   H13439394   5.188   6.589   2.215 -0.9073 -1.2173 -1.4693
  131MOL   H13539395   5.444   6.300   2.381  0.3750 -0.3093  0.3192
  131MOL   H13639396   5.480   6.161   2.291 -0.3283 -0.0088  0.3527
  131MOL   C13739397   5.460   6.338   2.166  0.6825 -0.5365 -0.0888
  131MOL   O13839398   5.595   6.395   2.183  0.0761 -0.1640 -0.2011
  131MOL   C13939399   5.620   6.506   2.262 -0.0185 -0.3367 -0.3492
  131MOL   O14039400   5.536   6.553   2.342  0.3261 -0.3315  0.5896
  131MOL   C14139401   5.750   6.580   2.237  0.8429  0.1095 -0.1429
  131MOL   C14239402   5.864   6.478   2.220  0.1409 -0.1750 -0.1204
  131MOL   C14339403   5.449   6.263   2.034 -0.5095  0.4915 -0.3159
  131MOL   H14439404   5.393   6.423   2.168  1.6368  0.3070 -2.6244
  131MOL   H14539405   5.717   6.649   2.159 -0.8076  0.6885  1.0377
  131MOL   H14639406   5.786   6.640   2.320  0.4709  1.8640 -1.2296
  131MOL   H14739407   5.949   6.535   2.183 -0.9848  0.4168 -1.9259
  131MOL   H14839408   5.886   6.430   2.314 -2.6343 -1.5672 -0.1178
  131MOL   H14939409   5.855   6.397   2.147 -5.0146  0.3874 -0.2855
  131MOL   H15039410   5.507   6.171   2.043 -1.1561  0.1725  0.6009
  131MOL   H15139411   5.350   6.235   2.000 -0.4198 -1.6473  1.1508
  131MOL   C15239412   5.508   6.347   1.912 -0.5208 -0.2919  0.1609
  131MOL   O15339413   5.462   6.481   1.907 -0.0983 -0.2142 -0.1882
  131MOL   C15439414   5.369   6.511   1.819 -0.1439  0.5359  0.2316
  131MOL   O15539415   5.305   6.435   1.747  0.3042 -0.0720 -0.5961
  131MOL   C15639416   5.353   6.657   1.799  1.0261  0.2504  0.2148
  131MOL   C15739417   5.234   6.718   1.885  0.2287  0.0794  0.5673
  131MOL   C15839418   5.664   6.340   1.896 -0.1566  0.2160  0.2913
  131MOL   H15939419   5.463   6.302   1.824 -1.5317 -0.1298  0.5866
  131MOL   H16039420   5.444   6.715   1.816  2.2406 -1.2443 -0.9997
  131MOL   H16139421   5.337   6.676   1.693  2.1054 -0.7984 -0.1573
  131MOL   H16239422   5.194   6.814   1.853 -0.2310 -0.9267 -2.0226
  131MOL   H16339423   5.138   6.667   1.884  0.0438  0.4152 -2.6736
  131MOL   H16439424   5.264   6.736   1.988  2.4319 -0.7299  0.0932
  131MOL   H16539425   5.703   6.381   1.989 -0.8812  1.4927  0.0398
  131MOL   H16639426   5.687   6.233   1.893 -2.4022 -0.2871 -0.0481
  131MOL   C16739427   5.719   6.422   1.778  0.2179  0.6767  0.3282
  131MOL   O16839428   5.826   6.492   1.816 -0.1819 -0.1108 -0.1435
  131MOL   C16939429   5.829   6.627   1.833 -0.1373 -0.3133 -0.1029
  131MOL   O17039430   5.739   6.704   1.790  0.1104  0.1483  0.0915
  131MOL   C17139431   5.950   6.675   1.905  0.2567  0.5541  0.7722
  131MOL   C17239432   5.945   6.832   1.922 -0.3663  0.4377 -0.0117
  131MOL   C17339433   5.780   6.337   1.665  0.2849  0.3237 -0.4819
  131MOL   H17439434   5.644   6.487   1.732  0.3061  2.4438  2.6045
  131MOL   H17539435   5.960   6.625   2.001 -3.0781  1.3627  1.6337
  131MOL   H17639436   6.042   6.651   1.852 -0.5240  0.4227 -0.5357
  131MOL   H17739437   5.936   6.879   1.824 -0.5824 -1.5047 -0.9406
  131MOL   H17839438   5.862   6.863   1.987 -1.3026 -0.6228 -0.6731
  131MOL   H17939439   6.038   6.874   1.960  0.4362  0.5312 -2.0390
  131MOL   H18039440   5.800   6.403   1.581 -2.5937  0.0621 -1.4274
  131MOL   H18139441   5.871   6.296   1.708 -1.5510 -3.8650 -0.3424
  131MOL   C18239442   5.687   6.220   1.614  0.2464  0.2955  0.5066
  131MOL   O18339443   5.567   6.282   1.568 -0.4382 -0.4294  0.0488
  131MOL   C18439444   5.455   6.205   1.569  0.4337 -0.3482  0.4810
  131MOL   O18539445   5.439   6.105   1.635 -0.2165 -0.0418  0.3143
  131MOL   C18639446   5.351   6.260   1.477  0.2190  0.4825 -0.7302
  131MOL   C18739447   5.359   6.191   1.336  0.3291  0.2936  0.4090
  131MOL   C18839448   5.747   6.143   1.500  0.2340  0.0211 -0.3870
  131MOL   H18939449   5.680   6.157   1.703  1.7918 -0.9124 -0.2012
  131MOL   H19039450   5.245   6.244   1.501  0.2928 -1.7075 -1.7086
  131MOL   H19139451   5.356   6.368   1.464 -1.0871  0.4997 -1.2598
  131MOL   H19239452   5.290   6.234   1.264  2.5164 -1.4218 -2.8717
  131MOL   H19339453   5.464   6.191   1.304 -0.9575  1.7391 -4.2107
  131MOL   H19439454   5.318   6.091   1.347  1.3904  0.0503  2.2477
  131MOL   H19539455   5.666   6.102   1.439  0.1283 -1.5627  0.7855
  131MOL   H19639456   5.804   6.204   1.430  1.8926 -1.0700 -0.0129
  131MOL   C19739457   5.835   6.026   1.547  0.1572 -0.4416  0.0444
  131MOL   O19839458   5.752   5.920   1.561 -0.3060 -0.6405 -0.9608
  131MOL   C19939459   5.721   5.877   1.683 -0.1927 -0.3822 -0.2243
  131MOL   O20039460   5.760   5.932   1.785  0.0014  0.6635 -0.2388
  131MOL   C20139461   5.642   5.737   1.680  1.0536  0.0284 -0.1513
  131MOL   C20239462   5.503   5.760   1.630 -0.6994 -0.2896  0.2629
  131MOL   C20339463   5.950   5.991   1.452 -0.7518 -0.0857  0.1196
  131MOL   H20439464   5.886   6.053   1.640  0.6406 -3.3348  0.6726
  131MOL   H20539465   5.698   5.671   1.615 -0.2919 -0.7763 -0.5167
  131MOL   H20639466   5.630   5.689   1.777  1.4534  1.2707  0.5249
  131MOL   H20739467   5.444   5.674   1.598 -1.2175 -0.2240  1.0260
  131MOL   H20839468   5.446   5.792   1.717 -0.2991 -1.0634  0.8088
  131MOL   H20939469   5.497   5.842   1.559 -1.8143 -0.2093  0.4462
  131MOL   H21039470   5.997   5.898   1.484 -0.6510 -0.0943 -0.0527
  131MOL   H21139471   5.894   5.966   1.362 -2.0811 -1.8376  1.4010
  131MOL   C21239472   6.066   6.089   1.427  0.2479 -0.2692  0.4383
  131MOL   O21339473   6.165   6.067   1.519 -0.0883  0.5827 -0.1666
  131MOL   C21439474   6.235   6.168   1.575 -0.4000 -1.4214 -0.1578
  131MOL   O21539475   6.238   6.287   1.537  0.0985 -0.0055 -0.3896
  131MOL   C21639476   6.305   6.130   1.708  0.2563  0.3053 -0.3829
  131MOL   C21739477   6.414   6.022   1.695  0.1475  0.2438 -0.0022
  131MOL   C21839478   6.126   6.081   1.281  0.5606  0.0990 -0.2113
  131MOL   H21939479   6.026   6.191   1.425  0.0524 -0.3730 -1.4579
  131MOL   H22039480   6.353   6.220   1.748  0.1815  0.9958 -1.8131
  131MOL   H22139481   6.223   6.111   1.778 -0.3819  1.2414 -0.8610
  131MOL   H22239482   6.489   6.032   1.616 -1.0687 -1.5045 -1.4039
  131MOL   H22339483   6.473   6.013   1.786  0.5019  0.7583 -0.1772
  131MOL   H22439484   6.358   5.931   1.677  2.6046 -0.6471 -3.7666
  131MOL   H22539485   6.218   6.137   1.266 -0.8118  2.4120 -0.2181
  131MOL   H22639486   6.174   5.984   1.274  1.3704  0.5598 -1.0995
  131MOL   C22739487   6.030   6.088   1.160 -0.0307  0.1265 -0.2985
  131MOL   O22839488   5.977   6.216   1.154 -0.4312 -0.4948  0.2123
  131MOL   C22939489   5.845   6.237   1.162  0.0695  0.1344  0.0885
  131MOL   O23039490   5.753   6.159   1.176 -0.2654  0.5387 -0.1780
  131MOL   C23139491   5.822   6.383   1.149 -0.4669 -0.8546 -0.5659
  131MOL   C23239492   5.819   6.435   1.007  0.2827 -0.0512 -0.3315
  131MOL   C23339493   6.104   6.082   1.024  0.2202 -0.0799  0.5898
  131MOL   H23439494   5.958   6.008   1.176  0.9955 -0.3507  2.2457
  131MOL   H23539495   5.728   6.405   1.200  1.4453  1.2651  2.2111
  131MOL   H23639496   5.882   6.443   1.218 -1.2946  0.6512 -1.1383
  131MOL   H23739497   5.899   6.398   0.943  1.1752 -0.1373  0.8203
  131MOL   H23839498   5.730   6.390   0.964  0.6529 -0.9729 -0.1400
  131MOL   H23939499   5.822   6.544   1.008 -1.3790  0.0060 -0.1948
  131MOL   H24039500   6.155   6.177   1.010 -1.3986  0.7050 -0.1171
  131MOL   H24139501   6.181   6.005   1.024 -1.5718 -1.9093  0.3194
  131MOL   C24239502   6.010   6.058   0.902 -0.6916 -0.7125 -0.1474
  131MOL   O24339503   6.079   6.069   0.777 -0.5428  0.5443  0.3020
  131MOL   C24439504   6.066   6.177   0.698 -0.9706  0.5833 -0.3205
  131MOL   O24539505   5.987   6.267   0.714  0.4143 -0.1497 -0.0851
  131MOL   C24639506   6.167   6.173   0.578  1.0557 -0.1034 -0.0512
  131MOL   C24739507   6.126   6.071   0.467 -0.5124 -0.4703 -0.2904
  131MOL   C24839508   5.949   5.917   0.901 -0.1113 -0.5283  0.1215
  131MOL   H24939509   5.924   6.124   0.895 -0.4952 -0.4566 -0.1534
  131MOL   H25039510   6.177   6.279   0.552 -0.2989 -0.0511 -0.3951
  131MOL   H25139511   6.272   6.150   0.597  1.1011 -0.3532 -0.6225
  131MOL   H25239512   6.115   5.967   0.498  2.0239 -0.5593  0.3815
  131MOL   H25339513   6.030   6.096   0.420 -1.0115  2.5137  2.1928
  131MOL   H25439514   6.203   6.075   0.390  1.0153  0.3445  1.2601
  131MOL   H25539515   6.028   5.858   0.854 -0.1684  1.2637 -2.3303
  131MOL   H25639516   5.929   5.879   1.001 -0.5708 -1.0482 -0.1700
  131MOL   C25739517   5.818   5.909   0.823  0.2792  0.1596  0.6695
  131MOL   O25839518   5.780   5.773   0.812 -0.5073 -0.6412 -0.3622
  131MOL   C25939519   5.810   5.706   0.689  0.5646  0.4540  0.0325
  131MOL   O26039520   5.869   5.772   0.598 -0.8638 -0.0515  0.6658
  131MOL   C26139521   5.767   5.559   0.681 -0.6952 -0.2390  0.2576
  131MOL   C26239522   5.889   5.466   0.708 -0.6957  0.1696  0.8605
  131MOL   C26339523   5.695   5.972   0.901 -0.1209 -0.2719  0.2493
  131MOL   H26439524   5.825   5.954   0.724 -1.1320 -1.5140 -0.2209
  131MOL   H26539525   5.697   5.524   0.757  0.1089 -1.7955  0.2992
  131MOL   H26639526   5.728   5.546   0.580  0.2360 -0.9849 -0.0173
  131MOL   H26739527   5.914   5.428   0.609  1.3365 -0.1998  1.5024
  131MOL   H26839528   5.968   5.522   0.757  0.0468  0.2607 -0.4078
  131MOL   H26939529   5.849   5.379   0.759 -0.4089 -0.8582 -0.6420
  131MOL   H27039530   5.714   5.948   1.005 -3.1548  0.4434  0.9984
  131MOL   H27139531   5.701   6.080   0.888  0.3116 -0.4388 -1.0255
  131MOL   C27239532   5.548   5.942   0.856  0.4324  0.1090 -0.9050
  131MOL   O27339533   5.502   5.826   0.930  0.5126 -0.0597  0.0555
  131MOL   C27439534   5.428   5.737   0.871  0.1390  0.6420  0.1722
  131MOL   O27539535   5.387   5.738   0.753  0.1778  0.4055 -0.2702
  131MOL   C27639536   5.388   5.629   0.968  0.3868 -0.9983 -0.4223
  131MOL   C27739537   5.299   5.674   1.084 -0.2448 -0.1087 -0.0379
  131MOL   C27839538   5.450   6.055   0.878  0.1912  0.3432 -0.1435
  131MOL   H27939539   5.574   5.913   0.754  1.4639  2.0765 -1.2340
  131MOL   H28039540   5.332   5.556   0.908 -1.1544 -0.4601  0.3304
  131MOL   H28139541   5.477   5.579   1.004  0.5281  0.0818  0.7300
  131MOL   H28239542   5.274   5.583   1.139  0.0422 -0.1289  0.0597
  131MOL   H28339543   5.337   5.756   1.145 -0.2715  0.1049 -0.3079
  131MOL   H28439544   5.198   5.711   1.068 -1.0461 -1.2485  2.0920
  131MOL   H28539545   5.433   6.072   0.984 -1.0806 -0.2625 -0.2454
  131MOL   H28639546   5.498   6.144   0.837 -0.4942 -0.2581 -2.3176
  131MOL   C28739547   5.314   6.041   0.802 -0.5945  0.1711  0.9144
  131MOL   O28839548   5.214   6.126   0.854 -0.0117  0.1093  0.3970
  131MOL   C28939549   5.129   6.081   0.941  0.2058 -0.4924  0.9952
  131MOL   O29039550   5.110   5.964   0.979 -0.1211 -0.0057 -0.0158
  131MOL   C29139551   5.037   6.190   0.988  0.2217 -0.3487  0.4131
  131MOL   C29239552   4.972   6.165   1.119 -0.4834  0.0128  0.1473
  131MOL   C29339553   5.326   6.081   0.649  0.2858  0.2306  0.1246
  131MOL   H29439554   5.271   5.940   0.807  2.1462 -1.0290  1.2299
  131MOL   H29539555   5.076   6.292   0.991 -2.9468  0.9279  0.3782
  131MOL   H29639556   4.967   6.199   0.905 -1.4544  1.4414  1.9712
  131MOL   H29739557   5.049   6.141   1.192  0.1839 -0.3382 -0.6586
  131MOL   H29839558   4.915   6.253   1.148 -0.1125  0.2951  0.0095
  131MOL   H29939559   4.898   6.084   1.120  0.2878 -0.7322 -1.2784
  131MOL   H30039560   5.249   6.046   0.580  1.2517  3.5725 -2.7852
  131MOL   H30139561   5.334   6.190   0.641  1.0238  0.1738  0.1053
  131MOL   H30239562   5.411   6.037   0.598 -0.1235 -0.4412  0.0175
  132MOL     C139563   0.082   6.927   5.323 -0.2555  0.2483  0.0429
  132MOL     O239564   7.922   6.932   5.426  0.4339 -0.0575  0.1968
  132MOL     C339565   7.847   7.048   5.446  0.2011 -0.2340  0.3617
  132MOL     O439566   7.856   7.148   5.376 -0.1417 -0.2610 -0.1638
  132MOL     C539567   7.749   7.050   5.566 -0.5187 -0.3852  0.0945
  132MOL     C639568   7.599   7.007   5.547 -0.3348  0.1638  0.3081
  132MOL     C739569   0.221   6.890   5.369  0.5505 -0.7347 -0.0195
  132MOL     H839570   0.089   7.025   5.277 -0.9081  0.4217  0.3003
  132MOL     H939571   7.788   7.006   5.658 -0.3385 -1.3398 -0.4268
  132MOL    H1039572   7.761   7.153   5.599  1.0214 -0.5682  0.1190
  132MOL    H1139573   7.543   7.072   5.481 -0.8223 -1.0545 -0.5124
  132MOL    H1239574   7.590   6.902   5.517  2.0531 -0.2842  1.0437
  132MOL    H1339575   7.553   7.021   5.645  0.5440 -0.2887  0.7932
  132MOL    H1439576   0.281   6.906   5.280  2.8407  1.8081  1.9124
  132MOL    H1539577   0.261   6.964   5.439  0.9751 -2.1826  1.3010
  132MOL    H1639578   0.039   6.869   5.241 -1.9847 -0.8134  1.6441
  132MOL    C1739579   0.235   6.751   5.440 -0.0834 -0.1205  0.0171
  132MOL    O1839580   0.173   6.661   5.353  0.2647  0.1506 -0.0047
  132MOL    C1939581   0.064   6.597   5.395  0.2504 -0.1426  0.4699
  132MOL    O2039582   0.019   6.610   5.508  0.5503  0.0098  0.7717
  132MOL    C2139583   0.012   6.493   5.306 -0.1912 -0.7060 -0.2307
  132MOL    C2239584   0.103   6.367   5.318 -0.3590  0.4399  0.8409
  132MOL    C2339585   0.380   6.708   5.482  0.3409 -0.3539 -0.1496
  132MOL    H2439586   0.188   6.758   5.538  1.1210  1.4129  0.5105
  132MOL    H2539587   7.858   6.465   5.342  0.9351 -1.9690  1.9975
  132MOL    H2639588   0.011   6.525   5.202  2.9497 -0.0670 -0.1139
  132MOL    H2739589   0.046   6.282   5.280  0.7342  0.7405 -1.6160
  132MOL    H2839590   0.182   6.374   5.242 -0.4285  0.2987  0.7560
  132MOL    H2939591   0.148   6.352   5.416 -1.6424  0.1515  1.3886
  132MOL    H3039592   0.441   6.708   5.392 -0.4259  0.4566 -0.6712
  132MOL    H3139593   0.425   6.789   5.540 -2.3180  2.0289 -1.2691
  132MOL    C3239594   0.386   6.567   5.550  0.1246  0.0286  0.1913
  132MOL    O3339595   0.525   6.530   5.545  0.5416  0.2322  0.4347
  132MOL    C3439596   0.566   6.403   5.536 -0.5584 -0.1776 -0.3047
  132MOL    O3539597   0.495   6.307   5.512 -0.1610 -0.0592  0.4522
  132MOL    C3639598   0.717   6.380   5.546  0.7966  0.9410  0.2967
  132MOL    C3739599   0.751   6.391   5.696  0.5719  0.6871  0.4345
  132MOL    C3839600   0.327   6.573   5.699  0.3677 -0.2941 -0.4564
  132MOL    H3939601   0.329   6.500   5.485 -1.1119  1.6651 -0.4519
  132MOL    H4039602   0.732   6.289   5.489  0.3366 -0.4034  2.2628
  132MOL    H4139603   0.773   6.452   5.486  0.1630  2.5710  1.6198
  132MOL    H4239604   0.685   6.325   5.753  0.1213 -0.7407 -1.6958
  132MOL    H4339605   0.851   6.358   5.723  0.7131  0.7192 -0.0362
  132MOL    H4439606   0.716   6.488   5.732 -1.1747 -0.4296  1.8277
  132MOL    H4539607   0.394   6.643   5.749 -0.7282  0.3968  0.0598
  132MOL    H4639608   0.224   6.608   5.692  0.6128  0.4459 -0.4218
  132MOL    C4739609   0.326   6.439   5.768  0.5303 -0.2324 -0.5764
  132MOL    O4839610   0.308   6.466   5.911 -0.2021 -0.4349  0.3231
  132MOL    C4939611   0.415   6.462   5.991 -0.1118  0.6313  0.7462
  132MOL    O5039612   0.535   6.428   5.968  0.2168 -0.9215  0.6388
  132MOL    C5139613   0.364   6.499   6.130  0.7980  0.9012  0.3999
  132MOL    C5239614   0.369   6.650   6.131  0.6280  0.4464 -0.0294
  132MOL    C5339615   0.208   6.352   5.725 -0.0215 -0.7223 -0.3124
  132MOL    H5439616   0.419   6.385   5.754  0.5445 -0.1884 -0.6538
  132MOL    H5539617   0.268   6.455   6.154  0.9554  0.5052  0.3146
  132MOL    H5639618   0.423   6.456   6.211  0.3808  1.1940  0.8567
  132MOL    H5739619   0.336   6.694   6.225  1.2328  3.4864 -1.1777
  132MOL    H5839620   0.468   6.689   6.109  1.1659  0.1602  1.8173
  132MOL    H5939621   0.294   6.686   6.061  1.8567  0.6431 -1.2633
  132MOL    H6039622   0.115   6.389   5.767  0.5405  1.4615 -0.8985
  132MOL    H6139623   0.198   6.365   5.617 -2.1770 -1.3815 -0.2122
  132MOL    C6239624   0.229   6.200   5.752 -0.6601 -0.5553 -0.0295
  132MOL    O6339625   0.262   6.184   5.887  0.2065  0.3303 -0.4533
  132MOL    C6439626   0.330   6.076   5.926 -0.0973  0.5977  0.5056
  132MOL    O6539627   0.382   5.993   5.849 -0.1965  0.4117 -0.9060
  132MOL    C6639628   0.334   6.052   6.076  0.0564  0.1368 -0.1156
  132MOL    C6739629   0.202   6.050   6.144  0.6686 -0.2091 -0.1205
  132MOL    C6839630   0.097   6.124   5.723  0.2098 -0.2231  0.8954
  132MOL    H6939631   0.314   6.154   5.700 -0.2860  0.7760 -0.6126
  132MOL    H7039632   0.373   5.950   6.083  1.7548  0.8633  1.6329
  132MOL    H7139633   0.410   6.113   6.126  0.2634  1.2720 -1.7633
  132MOL    H7239634   0.203   5.999   6.240 -3.3315 -0.2603 -0.0364
  132MOL    H7339635   0.168   6.152   6.164 -1.8555 -1.2413  1.0235
  132MOL    H7439636   0.123   6.002   6.086 -0.5810  1.9602 -0.2542
  132MOL    H7539637   0.106   6.015   5.727 -0.7016 -0.4224 -1.5379
  132MOL    H7639638   0.022   6.158   5.794  0.0925  1.9210 -0.2209
  132MOL    C7739639   0.054   6.140   5.582 -0.0700  0.4416 -1.0410
  132MOL    O7839640   0.159   6.120   5.493 -0.3452 -0.0727 -0.2895
  132MOL    C7939641   0.190   5.988   5.462 -0.0669 -0.1523  0.4129
  132MOL    O8039642   0.122   5.890   5.478  0.0449  0.6285  1.1544
  132MOL    C8139643   0.322   5.975   5.385 -0.2879  0.0900 -0.2057
  132MOL    C8239644   0.298   6.023   5.237  0.4573  0.7169  0.5251
  132MOL    C8339645   7.860   6.086   5.535  0.9346  0.5336 -0.3606
  132MOL    H8439646   0.046   6.246   5.556 -1.2320  0.9112  1.1009
  132MOL    H8539647   0.391   6.044   5.433  0.9810 -1.2940 -0.0105
  132MOL    H8639648   0.367   5.876   5.399 -0.4814 -0.0718 -0.7353
  132MOL    H8739649   0.204   5.991   5.193  1.7781 -0.7150 -1.2995
  132MOL    H8839650   0.303   6.132   5.232  1.5505  0.6418 -0.0907
  132MOL    H8939651   0.375   5.981   5.172 -1.9823  0.5374 -2.3302
  132MOL    H9039652   7.791   6.169   5.522  0.2757 -0.1538 -1.3009
  132MOL    H9139653   7.866   6.047   5.434  2.6601  0.0148 -0.0727
  132MOL    C9239654   7.796   5.973   5.627 -0.1283 -0.2655  0.1989
  132MOL    O9339655   7.741   6.043   5.738 -0.1309 -0.4599  0.4265
  132MOL    C9439656   7.750   5.997   5.863  0.2310  0.3372 -0.1557
  132MOL    O9539657   7.796   5.886   5.898 -0.0763 -0.7619 -0.1453
  132MOL    C9639658   7.687   6.101   5.957 -0.2034 -0.1823  0.2968
  132MOL    C9739659   7.583   6.051   6.057 -0.0532  1.0472 -0.3429
  132MOL    C9839660   7.683   5.901   5.547 -0.1025 -0.3126 -0.6536
  132MOL    H9939661   7.876   5.906   5.655 -1.2527 -0.9584  1.8301
  132MOL   H10039662   7.766   6.148   6.017 -0.2970  1.0196 -0.5123
  132MOL   H10139663   7.649   6.188   5.904  0.2268 -1.8808 -2.8584
  132MOL   H10239664   7.563   6.124   6.135  1.3622  2.8422 -1.6346
  132MOL   H10339665   7.493   6.028   5.999 -0.1066  2.3849 -0.8109
  132MOL   H10439666   7.626   5.963   6.104  0.7638  1.4955 -0.2449
  132MOL   H10539667   7.599   5.967   5.523 -2.6797 -1.8671  3.5043
  132MOL   H10639668   7.726   5.858   5.457 -0.2045 -1.2867 -0.2395
  132MOL   C10739669   7.611   5.786   5.628  0.0069 -0.6209  0.4445
  132MOL   O10839670   7.509   5.738   5.539 -0.4530  0.0556 -0.0615
  132MOL   C10939671   7.379   5.792   5.526 -0.4160 -0.9029 -0.3308
  132MOL   O11039672   7.331   5.883   5.595  0.7496 -0.4498 -0.1060
  132MOL   C11139673   7.300   5.728   5.419  0.6707  0.6542 -0.3209
  132MOL   C11239674   7.310   5.787   5.283  0.0531 -0.9583  0.5372
  132MOL   C11339675   7.709   5.671   5.665  0.2428  0.2894 -0.1627
  132MOL   H11439676   7.564   5.823   5.719  1.6909  0.9090  0.7216
  132MOL   H11539677   7.346   5.630   5.422  0.8861  0.7959  2.8062
  132MOL   H11639678   7.202   5.710   5.462  1.6361 -3.1449  0.4468
  132MOL   H11739679   7.412   5.813   5.254 -0.2886 -1.2245 -0.9311
  132MOL   H11839680   7.263   5.715   5.216 -0.6204  0.5252 -0.6054
  132MOL   H11939681   7.258   5.883   5.281  2.5630  0.4927  2.3752
  132MOL   H12039682   7.753   5.627   5.575  0.9465  0.0213  0.3066
  132MOL   H12139683   7.788   5.723   5.719 -1.9321  1.6284  1.8323
  132MOL   C12239684   7.644   5.560   5.744 -0.7702  0.6609 -0.4984
  132MOL   O12339685   7.587   5.470   5.650  0.0644 -0.2088  0.3890
  132MOL   C12439686   7.454   5.440   5.646  0.1170  0.3564 -0.2770
  132MOL   O12539687   7.363   5.501   5.703 -0.0777  0.1830 -1.1119
  132MOL   C12639688   7.421   5.325   5.557 -0.7947  0.5159  0.4471
  132MOL   C12739689   7.510   5.205   5.565  0.2953 -0.3077 -0.2252
  132MOL   C12839690   7.742   5.488   5.851 -1.1711 -0.0178 -0.6587
  132MOL   H12939691   7.569   5.609   5.806 -0.5304  0.7102 -0.2466
  132MOL   H13039692   7.325   5.295   5.598 -1.8524 -1.1000 -2.9636
  132MOL   H13139693   7.407   5.349   5.451 -2.9539 -2.2979  0.0322
  132MOL   H13239694   7.458   5.118   5.526 -1.7851 -0.7356  3.3285
  132MOL   H13339695   7.601   5.219   5.507  0.6265 -1.7786 -0.0861
  132MOL   H13439696   7.539   5.184   5.668  2.9911 -0.7570 -1.0429
  132MOL   H13539697   7.833   5.460   5.798 -1.4587 -0.5673 -0.8555
  132MOL   H13639698   7.768   5.571   5.918  0.2516  0.2329 -1.4943
  132MOL   C13739699   7.685   5.363   5.913 -0.2237  0.0138 -0.3701
  132MOL   O13839700   7.791   5.279   5.940  0.2246  0.0907  0.4812
  132MOL   C13939701   7.800   5.153   5.894 -0.9452 -0.0991 -0.6730
  132MOL   O14039702   7.735   5.102   5.800 -0.2490 -0.0570 -0.1991
  132MOL   C14139703   7.903   5.075   5.976 -0.2354  0.2447  0.2115
  132MOL   C14239704   7.917   4.923   5.943  0.6291 -0.6410 -0.1129
  132MOL   C14339705   7.605   5.396   6.041  0.3538 -0.1935 -0.0927
  132MOL   H14439706   7.627   5.312   5.836 -0.6983 -0.3485  0.2255
  132MOL   H14539707   0.052   5.129   5.962  0.1960 -0.7866 -0.9690
  132MOL   H14639708   7.870   5.082   6.080 -2.0203 -1.0563 -0.2581
  132MOL   H14739709   0.068   4.888   5.981  1.0735  1.3425  0.6519
  132MOL   H14839710   7.829   4.871   5.982 -1.4479  0.6554 -2.9185
  132MOL   H14939711   7.932   4.916   5.835 -0.6906  1.0885 -0.4197
  132MOL   H15039712   7.678   5.389   6.122  0.4918  3.0877  0.1315
  132MOL   H15139713   7.578   5.501   6.038  0.3357 -0.1863  0.3193
  132MOL   C15239714   7.480   5.316   6.072 -0.4404 -0.5867  0.2770
  132MOL   O15339715   7.510   5.186   6.067  0.0879  0.1499 -0.5604
  132MOL   C15439716   7.405   5.105   6.029 -0.2505 -0.1658  0.2193
  132MOL   O15539717   7.286   5.141   6.024  0.0389  0.3291  0.2801
  132MOL   C15639718   7.448   4.967   5.987  0.5214 -0.3409 -0.3553
  132MOL   C15739719   7.542   4.885   6.080  0.7259 -0.8038  0.7048
  132MOL   C15839720   7.412   5.362   6.203  0.4810  0.7226  0.6178
  132MOL   H15939721   7.417   5.328   5.984  0.4824 -0.4743 -0.3654
  132MOL   H16039722   7.355   4.910   5.982  0.8473 -0.8740 -0.3871
  132MOL   H16139723   7.486   4.975   5.885 -0.5782 -0.2667 -0.7635
  132MOL   H16239724   7.632   4.945   6.098  0.6399 -0.3677 -0.2750
  132MOL   H16339725   7.491   4.865   6.174 -1.8072 -0.6651 -0.5933
  132MOL   H16439726   7.579   4.794   6.032  1.7484  0.7165 -1.5057
  132MOL   H16539727   7.330   5.290   6.212  1.8510 -0.9639 -0.2223
  132MOL   H16639728   7.475   5.336   6.287  0.7323  0.2421  0.2828
  132MOL   C16739729   7.364   5.513   6.220  0.2527  1.0523  0.0759
  132MOL   O16839730   7.281   5.533   6.110  0.4095 -1.4125  0.7005
  132MOL   C16939731   7.311   5.630   6.020  0.7920  0.5726  0.6165
  132MOL   O17039732   7.417   5.687   6.015 -0.0812  0.3013 -0.5979
  132MOL   C17139733   7.197   5.668   5.922 -0.2191 -0.5621  0.0493
  132MOL   C17239734   7.106   5.545   5.882  0.4470 -0.9742  0.5606
  132MOL   C17339735   7.278   5.543   6.350 -0.0795  0.1143  0.0894
  132MOL   H17439736   7.453   5.575   6.216 -0.0059  1.4457  0.3863
  132MOL   H17539737   7.148   5.758   5.960 -1.1047 -0.9974 -0.0781
  132MOL   H17639738   7.233   5.718   5.831  0.3026  1.0909  1.1328
  132MOL   H17739739   7.038   5.581   5.805  0.6957  1.0187  1.2592
  132MOL   H17839740   7.150   5.457   5.833 -0.9292  0.1343 -2.7860
  132MOL   H17939741   7.050   5.512   5.970 -0.2181  0.4146  0.6596
  132MOL   H18039742   7.255   5.649   6.364  1.2623  0.2423  1.5868
  132MOL   H18139743   7.181   5.494   6.344 -0.8133  1.4103  1.1709
  132MOL   C18239744   7.355   5.499   6.478 -0.4598  0.3175 -0.0408
  132MOL   O18339745   7.461   5.586   6.509 -0.4668 -0.2264 -0.3680
  132MOL   C18439746   7.575   5.545   6.564  0.1783 -0.0513  0.2164
  132MOL   O18539747   7.602   5.432   6.604 -0.3825 -0.0730  0.2617
  132MOL   C18639748   7.661   5.678   6.588  0.7837 -0.0776 -0.1328
  132MOL   C18739749   7.783   5.643   6.663 -0.1604 -0.4406 -0.5659
  132MOL   C18839750   7.270   5.503   6.603  0.4527 -0.6155  1.4076
  132MOL   H18939751   7.387   5.395   6.472 -1.8185 -0.0123 -2.0529
  132MOL   H19039752   7.671   5.728   6.491  0.7663  0.3317  0.0727
  132MOL   H19139753   7.601   5.745   6.650 -0.9685  0.7648 -2.6771
  132MOL   H19239754   7.763   5.590   6.756  1.6878  0.5645  0.4262
  132MOL   H19339755   7.851   5.574   6.612  0.9736 -0.2703  0.6985
  132MOL   H19439756   7.844   5.729   6.690  1.2205  0.1356 -5.0131
  132MOL   H19539757   7.326   5.471   6.691 -0.0114 -1.5075  1.3855
  132MOL   H19639758   7.240   5.605   6.628  0.1581 -0.6654  1.2656
  132MOL   C19739759   7.140   5.409   6.585 -0.1188  0.2555 -0.6570
  132MOL   O19839760   7.187   5.271   6.568  0.2782  0.3719 -0.6142
  132MOL   C19939761   7.135   5.187   6.481  1.4964 -0.0181  0.7650
  132MOL   O20039762   7.043   5.213   6.400  0.1020 -0.0941  0.0626
  132MOL   C20139763   7.203   5.051   6.474 -0.2880  0.7184  0.0627
  132MOL   C20239764   7.346   5.057   6.402 -0.4127  0.1369 -0.6327
  132MOL   C20339765   7.072   5.406   6.721  0.5058 -0.7127  0.6986
  132MOL   H20439766   7.074   5.441   6.505  0.2365  0.8140 -0.7285
  132MOL   H20539767   7.211   5.017   6.578  1.9320 -1.5167 -0.7769
  132MOL   H20639768   7.132   4.979   6.435 -2.3974  1.2086  2.8126
  132MOL   H20739769   7.414   5.137   6.429  0.5664 -0.9334  0.1400
  132MOL   H20839770   7.403   4.967   6.428  1.8963  2.3373  2.3277
  132MOL   H20939771   7.344   5.066   6.293  2.3062 -0.6397 -0.7822
  132MOL   H21039772   6.980   5.348   6.710  0.7843 -0.9058 -0.6974
  132MOL   H21139773   7.143   5.366   6.793  0.8264  1.8011  1.8533
  132MOL   C21239774   7.022   5.536   6.782  0.0532  0.6309  0.1024
  132MOL   O21339775   6.924   5.589   6.701 -0.1188 -0.4975  0.1886
  132MOL   C21439776   6.941   5.705   6.628 -0.1587  0.4924  0.1949
  132MOL   O21539777   7.049   5.763   6.607  0.3259  0.3080  0.0855
  132MOL   C21639778   6.809   5.771   6.579  0.5985  0.3318  0.0826
  132MOL   C21739779   6.731   5.807   6.713  0.1230 -0.3327 -0.0148
  132MOL   C21839780   6.971   5.516   6.925  0.5556 -0.2349 -0.0634
  132MOL   H21939781   7.106   5.605   6.778 -0.7589  1.6366  0.1532
  132MOL   H22039782   6.839   5.859   6.523 -0.2542  1.2885  1.0943
  132MOL   H22139783   6.752   5.701   6.519  1.8937  1.0073 -1.9639
  132MOL   H22239784   6.705   5.717   6.769 -2.7655 -0.2716 -1.1804
  132MOL   H22339785   6.793   5.880   6.766 -0.8678  1.7859 -1.6891
  132MOL   H22439786   6.637   5.859   6.694  0.5267  1.5335  2.8163
  132MOL   H22539787   6.884   5.451   6.919  0.2946  0.1254 -0.2314
  132MOL   H22639788   7.033   5.465   6.999  1.4054 -1.1453 -1.3972
  132MOL   C22739789   6.920   5.652   6.994  0.2689  0.0443  0.4639
  132MOL   O22839790   6.788   5.627   7.038  0.2255  1.1520 -0.4234
  132MOL   C22939791   6.707   5.732   7.050  1.0636  0.3024  0.4023
  132MOL   O23039792   6.736   5.845   7.015 -0.1995 -0.3226  0.5742
  132MOL   C23139793   6.572   5.699   7.114  0.4255 -0.0951 -0.4618
  132MOL   C23239794   6.498   5.825   7.160  0.3286 -0.2570  0.3783
  132MOL   C23339795   6.998   5.696   7.123  0.1193  0.6617  0.9738
  132MOL   H23439796   6.925   5.742   6.931 -2.1709  1.5881  2.3795
  132MOL   H23539797   6.517   5.646   7.036 -1.4107  1.2334 -0.0961
  132MOL   H23639798   6.584   5.625   7.193 -3.3596  0.3020  0.5908
  132MOL   H23739799   6.402   5.811   7.210 -0.0505  1.6252  0.2270
  132MOL   H23839800   6.564   5.874   7.231 -1.4575  0.7956  1.3572
  132MOL   H23939801   6.482   5.894   7.077  1.9610 -1.8125 -1.2445
  132MOL   H24039802   6.942   5.775   7.174  0.0822  1.4534 -0.2764
  132MOL   H24139803   7.003   5.613   7.194 -1.0299 -0.9738 -0.8226
  132MOL   C24239804   7.147   5.726   7.099 -0.2322 -0.6490  0.4967
  132MOL   O24339805   7.154   5.851   7.026  0.3841  0.5375 -0.4340
  132MOL   C24439806   7.222   5.863   6.918  0.2242  0.2730  0.2347
  132MOL   O24539807   7.276   5.773   6.854  0.4264 -1.0673 -0.1999
  132MOL   C24639808   7.233   6.010   6.867  0.2298  0.3751 -0.1132
  132MOL   C24739809   7.098   6.066   6.835 -0.0951  0.0349 -0.3237
  132MOL   C24839810   7.237   5.752   7.228 -0.3898 -0.0473  0.2387
  132MOL   H24939811   7.191   5.643   7.044  0.2884  1.2450 -2.0301
  132MOL   H25039812   7.287   6.071   6.940  1.5090 -2.6750  1.6046
  132MOL   H25139813   7.294   6.015   6.777 -0.1484  2.7224 -0.2676
  132MOL   H25239814   7.109   6.167   6.794  0.3467  0.6678  1.3004
  132MOL   H25339815   7.049   6.004   6.761  1.0584 -0.6896 -0.4969
  132MOL   H25439816   7.033   6.085   6.920 -0.4276  0.1732 -0.6077
  132MOL   H25539817   7.321   5.817   7.207 -1.1368  0.2109 -2.0517
  132MOL   H25639818   7.177   5.821   7.288  1.7550  1.3964  0.7643
  132MOL   C25739819   7.267   5.628   7.317 -0.3015 -0.4223  0.3393
  132MOL   O25839820   7.334   5.524   7.236 -0.3261  0.1224  0.2441
  132MOL   C25939821   7.460   5.548   7.180  0.2178  0.1534  0.1626
  132MOL   O26039822   7.533   5.649   7.202  0.0289  0.3807  0.2992
  132MOL   C26139823   7.501   5.431   7.089  0.5677  0.6364  0.4074
  132MOL   C26239824   7.582   5.325   7.162  0.2789  0.3424  0.1923
  132MOL   C26339825   7.336   5.655   7.457 -0.7103 -0.7989 -0.0859
  132MOL   H26439826   7.169   5.585   7.336 -0.0574 -1.8267 -1.4679
  132MOL   H26539827   7.413   5.373   7.059  0.2049  1.2214  0.3361
  132MOL   H26639828   7.552   5.462   6.998  2.4490 -0.5749  1.0277
  132MOL   H26739829   7.646   5.261   7.102  0.7178 -1.5840  2.6389
  132MOL   H26839830   7.646   5.369   7.239  0.4741 -0.9940  0.7999
  132MOL   H26939831   7.508   5.260   7.209  0.7455  1.2101  2.1974
  132MOL   H27039832   7.381   5.562   7.492  1.3033 -0.2722 -1.2383
  132MOL   H27139833   7.428   5.708   7.434  0.0017 -0.6488  2.9566
  132MOL   C27239834   7.249   5.733   7.559 -0.4962  0.1248 -0.5014
  132MOL   O27339835   7.144   5.648   7.599 -0.1488  0.3427  0.2094
  132MOL   C27439836   7.020   5.680   7.571  0.0362 -0.9145  0.0512
  132MOL   O27539837   6.989   5.778   7.515  0.2550  0.3722  0.8707
  132MOL   C27639838   6.916   5.580   7.611  0.2422 -0.3036 -0.5725
  132MOL   C27739839   6.813   5.549   7.508 -0.2382  0.1418  0.3226
  132MOL   C27839840   7.313   5.781   7.688 -0.4294 -0.5497  0.0388
  132MOL   H27939841   7.223   5.828   7.513 -1.6393  0.2371  0.3645
  132MOL   H28039842   6.974   5.493   7.643 -0.2345 -0.9980 -1.5367
  132MOL   H28139843   6.875   5.617   7.704  1.0539  0.5295 -0.5413
  132MOL   H28239844   6.744   5.632   7.492  0.4494  0.2330 -2.3501
  132MOL   H28339845   6.857   5.531   7.410 -2.0585  0.6861 -0.6073
  132MOL   H28439846   6.750   5.462   7.527 -1.0447 -0.5096 -4.7136
  132MOL   H28539847   7.235   5.837   7.740 -0.8525 -0.3187 -0.8198
  132MOL   H28639848   7.349   5.701   7.752  1.8814  0.5891  0.2236
  132MOL   C28739849   7.442   5.873   7.672 -0.2269 -0.3309 -0.0917
  132MOL   O28839850   7.428   5.945   7.549  0.3141 -0.0681  0.2798
  132MOL   C28939851   7.530   5.991   7.481 -0.4793  0.0414 -0.7506
  132MOL   O29039852   7.651   5.977   7.516  0.7329 -0.0957  0.0207
  132MOL   C29139853   7.494   6.069   7.348  1.0128 -0.3080  0.1723
  132MOL   C29239854   7.571   6.019   7.221  0.4020  0.0859 -0.5133
  132MOL   C29339855   7.466   5.972   7.784  0.1392 -0.1864  0.5375
  132MOL   H29439856   7.528   5.808   7.656 -0.1800  0.4012 -3.1511
  132MOL   H29539857   7.387   6.059   7.331  0.8236  1.1967  0.4457
  132MOL   H29639858   7.515   6.174   7.366  2.8586 -0.5569 -0.4495
  132MOL   H29739859   7.674   5.987   7.234  0.5211  0.3826 -0.7032
  132MOL   H29839860   7.511   5.947   7.166  0.1606  0.1180 -0.2944
  132MOL   H29939861   7.595   6.106   7.159  0.7078  0.6681  0.4015
  132MOL   H30039862   7.453   5.924   7.882 -0.8624 -1.0959 -0.0256
  132MOL   H30139863   7.558   6.028   7.771  1.0296 -1.4337  1.3832
  132MOL   H30239864   7.382   6.042   7.790 -0.3549 -0.7658  0.4208
  133MOL     C139865   2.608   1.450   4.369  0.0229  0.2313  0.7394
  133MOL     O239866   2.530   1.385   4.268  0.4943  0.4483  0.0342
  133MOL     C339867   2.396   1.384   4.283  0.0540  0.5810  0.1191
  133MOL     O439868   2.328   1.434   4.371 -0.3317  0.4301  0.6728
  133MOL     C539869   2.323   1.308   4.171 -1.3662  0.3823  0.2830
  133MOL     C639870   2.179   1.276   4.203 -0.3882  0.3298  0.3792
  133MOL     C739871   2.631   1.600   4.353  0.2626 -0.1421  0.1963
  133MOL     H839872   2.696   1.391   4.397 -0.3084 -0.2763  0.7211
  133MOL     H939873   2.338   1.366   4.080  2.7881  0.1893  0.7634
  133MOL    H1039874   2.385   1.219   4.160  0.3680  1.6612 -0.5098
  133MOL    H1139875   2.127   1.370   4.186 -1.5726 -0.2647  0.6202
  133MOL    H1239876   2.138   1.199   4.138  0.1120 -0.0598  0.5128
  133MOL    H1339877   2.176   1.234   4.304  0.5744  0.8301  0.6220
  133MOL    H1439878   2.547   1.658   4.314  0.0862  0.9449  2.0909
  133MOL    H1539879   2.642   1.638   4.455 -2.8822 -1.1577  0.9821
  133MOL    H1639880   2.554   1.439   4.463  0.6288 -1.3440  0.9170
  133MOL    C1739881   2.763   1.633   4.270 -0.6437 -0.0650 -0.1399
  133MOL    O1839882   2.774   1.551   4.154  0.2655  0.4187 -0.0471
  133MOL    C1939883   2.884   1.481   4.135 -0.4933 -0.5880  0.2467
  133MOL    O2039884   2.984   1.481   4.214 -0.2347 -0.4846 -0.0609
  133MOL    C2139885   2.871   1.381   4.017  0.2475 -0.1908 -0.4054
  133MOL    C2239886   3.004   1.304   3.993  0.5225 -0.2694  0.1245
  133MOL    C2339887   2.768   1.780   4.210 -0.5793 -0.5365 -0.1168
  133MOL    H2439888   2.852   1.626   4.333 -1.6021 -1.1252  1.1052
  133MOL    H2539889   2.792   1.319   4.060 -0.4693 -0.1683 -1.6454
  133MOL    H2639890   2.826   1.422   3.926 -0.1972 -0.1708 -0.1793
  133MOL    H2739891   3.011   1.233   3.910 -1.2428  0.0920 -0.3634
  133MOL    H2839892   3.077   1.382   3.973  2.7586 -1.9235  1.4722
  133MOL    H2939893   3.038   1.242   4.076 -0.0350 -0.4018  0.2601
  133MOL    H3039894   2.855   1.789   4.145 -1.0147 -0.5790 -0.7120
  133MOL    H3139895   2.688   1.800   4.138  0.5571  2.2998 -0.6469
  133MOL    C3239896   2.780   1.883   4.327 -0.7726  0.0714 -0.0324
  133MOL    O3339897   2.898   1.864   4.416  0.1375 -0.0216  0.1216
  133MOL    C3439898   2.889   1.864   4.547 -0.0924  0.1176 -0.0233
  133MOL    O3539899   2.786   1.885   4.610  0.4542 -0.3883 -0.2046
  133MOL    C3639900   3.021   1.817   4.614  0.6613  0.1751 -0.1704
  133MOL    C3739901   3.065   1.679   4.571  0.6243  0.3360  0.0742
  133MOL    C3839902   2.787   2.025   4.265  0.1132 -0.1164  0.2648
  133MOL    H3939903   2.699   1.882   4.400 -1.2687 -0.6038 -0.5795
  133MOL    H4039904   3.104   1.886   4.602  0.5593 -0.2195 -3.9988
  133MOL    H4139905   3.001   1.818   4.721  1.0129  0.2634 -0.1052
  133MOL    H4239906   2.984   1.620   4.529 -0.1450  1.5986 -0.2281
  133MOL    H4339907   3.135   1.679   4.487  0.1472  1.5290 -0.3322
  133MOL    H4439908   3.096   1.624   4.661  2.0760 -0.6613 -1.0014
  133MOL    H4539909   2.831   2.098   4.332 -3.4773  4.0331 -1.6647
  133MOL    H4639910   2.855   2.018   4.180  0.1616 -0.0435  0.2980
  133MOL    C4739911   2.651   2.081   4.213  0.6695 -0.1804 -0.6347
  133MOL    O4839912   2.557   2.076   4.318 -0.1718 -0.1553  0.1101
  133MOL    C4939913   2.450   1.997   4.305 -0.6596 -0.3095  0.2488
  133MOL    O5039914   2.426   1.913   4.216  0.6063 -0.6081  0.3552
  133MOL    C5139915   2.354   2.024   4.421  0.3669  0.1497  0.8669
  133MOL    C5239916   2.202   2.005   4.381 -0.7105 -0.1007  0.5795
  133MOL    C5339917   2.660   2.222   4.161 -0.0822  0.0182  0.4406
  133MOL    H5439918   2.625   2.021   4.126  3.3266 -0.9230 -0.9724
  133MOL    H5539919   2.389   1.966   4.506 -0.6566 -0.0748  1.1429
  133MOL    H5639920   2.370   2.130   4.441  1.2310 -0.2711  2.5301
  133MOL    H5739921   2.188   1.898   4.370  0.5767 -0.2826  0.5972
  133MOL    H5839922   2.146   2.065   4.452 -1.0234  0.1112  0.1581
  133MOL    H5939923   2.181   2.058   4.288  1.4116  1.7011  1.0718
  133MOL    H6039924   2.692   2.277   4.249  0.8686  1.0166 -0.5210
  133MOL    H6139925   2.744   2.232   4.093  0.0343 -1.2941  0.3777
  133MOL    C6239926   2.533   2.270   4.093  0.0892 -0.2945 -0.3556
  133MOL    O6339927   2.531   2.409   4.077 -0.0432  0.0846 -0.2444
  133MOL    C6439928   2.430   2.485   4.123 -0.2920 -0.3871  0.0358
  133MOL    O6539929   2.326   2.443   4.172  0.7870  0.4963 -0.4956
  133MOL    C6639930   2.460   2.638   4.104 -0.3833  0.1352  0.0101
  133MOL    C6739931   2.353   2.730   4.177 -0.0858 -0.1856  0.8119
  133MOL    C6839932   2.503   2.196   3.965  0.2260 -0.3324 -0.4926
  133MOL    H6939933   2.453   2.249   4.164 -1.3491  1.0205 -1.5613
  133MOL    H7039934   2.558   2.665   4.142 -1.0541  0.8715  1.2343
  133MOL    H7139935   2.458   2.656   3.996 -0.6845 -0.2644 -0.0514
  133MOL    H7239936   2.341   2.699   4.281  0.8070 -0.7424  0.7589
  133MOL    H7339937   2.393   2.830   4.163  0.9056 -0.8191 -1.1067
  133MOL    H7439938   2.253   2.719   4.137 -0.4350  0.3057  1.5325
  133MOL    H7539939   2.472   2.096   3.997  2.7525 -1.7769 -2.4033
  133MOL    H7639940   2.415   2.238   3.918 -1.3240 -0.4976  2.1152
  133MOL    C7739941   2.612   2.182   3.857  0.2457  0.1898  0.8464
  133MOL    O7839942   2.578   2.080   3.763 -0.6368 -0.3250 -0.3525
  133MOL    C7939943   2.626   1.955   3.780  0.0803  0.6511 -0.1705
  133MOL    O8039944   2.672   1.913   3.884 -0.4981 -0.9234 -0.0712
  133MOL    C8139945   2.599   1.871   3.658  0.2348 -0.1327 -0.5272
  133MOL    C8239946   2.651   1.938   3.532  0.2438 -0.1688  0.1202
  133MOL    C8339947   2.648   2.309   3.786  0.2797  0.4179 -0.1295
  133MOL    H8439948   2.707   2.151   3.900  0.4637 -0.4016 -0.0442
  133MOL    H8539949   2.648   1.775   3.675  0.1375 -0.3690 -1.5416
  133MOL    H8639950   2.493   1.850   3.650 -0.4487  2.4733  1.0858
  133MOL    H8739951   2.583   2.017   3.499  1.8583 -0.2205 -3.5348
  133MOL    H8839952   2.754   1.967   3.551  0.3799 -1.7199  1.8686
  133MOL    H8939953   2.652   1.861   3.455  1.0010  0.6825 -0.7267
  133MOL    H9039954   2.666   2.304   3.678 -1.8417  0.3104 -0.5018
  133MOL    H9139955   2.572   2.387   3.786  0.5499  0.7026 -1.6028
  133MOL    C9239956   2.773   2.378   3.846 -0.0725 -0.4135 -0.0367
  133MOL    O9339957   2.882   2.300   3.800 -0.3727  0.3747  0.0473
  133MOL    C9439958   2.960   2.245   3.892 -0.0519 -0.5510  0.1613
  133MOL    O9539959   2.959   2.256   4.010  0.5252 -0.2854 -0.4804
  133MOL    C9639960   3.064   2.159   3.823  0.3586  0.2113 -0.2705
  133MOL    C9739961   3.156   2.078   3.918 -0.4455 -0.2921  0.5801
  133MOL    C9839962   2.801   2.513   3.770  0.7556 -0.4448 -0.2587
  133MOL    H9939963   2.771   2.389   3.955 -0.5543 -1.5781  0.0730
  133MOL   H10039964   3.018   2.103   3.741  0.3560 -0.4538  0.1808
  133MOL   H10139965   3.126   2.229   3.767 -0.2443  3.3959  2.8988
  133MOL   H10239966   3.121   1.975   3.930  2.6230 -1.5348 -0.5066
  133MOL   H10339967   3.250   2.055   3.867  0.5351  1.0949  1.7215
  133MOL   H10439968   3.182   2.130   4.010  0.2585  1.4099 -0.5555
  133MOL   H10539969   2.864   2.511   3.681  0.2836  1.8108 -0.6831
  133MOL   H10639970   2.706   2.553   3.735  0.0731  0.4160  2.4210
  133MOL   C10739971   2.853   2.629   3.857  0.6467  0.4038  0.2545
  133MOL   O10839972   2.942   2.561   3.955 -0.2210 -1.0180 -0.6980
  133MOL   C10939973   2.926   2.590   4.090 -0.0309  0.8392 -0.2834
  133MOL   O11039974   2.835   2.657   4.135  0.6535 -0.6338  0.3357
  133MOL   C11139975   3.029   2.532   4.183 -0.2172  0.5327  0.2512
  133MOL   C11239976   3.104   2.633   4.265 -0.4353 -0.3416 -0.4701
  133MOL   C11339977   2.932   2.745   3.790  0.4664 -0.4169  0.5904
  133MOL   H11439978   2.764   2.660   3.911 -0.0946 -0.9469 -0.1516
  133MOL   H11539979   2.984   2.460   4.252  1.6583  2.5083  3.6673
  133MOL   H11639980   3.098   2.468   4.128 -0.1793  1.8584 -1.2843
  133MOL   H11739981   3.034   2.680   4.334 -0.7904  1.6017 -2.1144
  133MOL   H11839982   3.178   2.590   4.333 -0.2258  0.1137 -0.4116
  133MOL   H11939983   3.161   2.699   4.200 -0.8159  2.9558  2.4271
  133MOL   H12039984   2.981   2.803   3.868  0.7513  0.8173 -0.4981
  133MOL   H12139985   3.016   2.707   3.731  0.3071 -0.7430  0.5743
  133MOL   C12239986   2.847   2.835   3.696  0.3085  0.0952  0.1972
  133MOL   O12339987   2.807   2.764   3.576  0.3838  0.5794 -0.1176
  133MOL   C12439988   2.884   2.755   3.463  1.3674 -0.1127 -0.1469
  133MOL   O12539989   2.997   2.804   3.451 -0.0869 -0.6689  0.1909
  133MOL   C12639990   2.802   2.705   3.342  0.1674 -0.3672  0.7683
  133MOL   C12739991   2.847   2.763   3.204  0.1170  0.1474  0.6460
  133MOL   C12839992   2.737   2.919   3.763  0.1459  0.5965  0.7412
  133MOL   H12939993   2.918   2.904   3.651  1.1180 -0.9698 -0.1804
  133MOL   H13039994   2.810   2.597   3.347  3.5722 -0.1551  1.4847
  133MOL   H13139995   2.697   2.728   3.358  0.6072  2.4320 -0.0350
  133MOL   H13239996   2.939   2.720   3.164  1.1086  2.9729 -0.1843
  133MOL   H13339997   2.769   2.736   3.133  2.5296 -1.9250 -1.3272
  133MOL   H13439998   2.855   2.871   3.215 -0.2604  0.0571  2.0232
  133MOL   H13539999   2.651   2.923   3.696 -0.5643 -0.7818  1.5300
  133MOL   H13640000   2.692   2.863   3.846 -1.1388  0.7357  0.1523
  133MOL   C13740001   2.782   3.054   3.818  0.2227  0.3268  0.1559
  133MOL   O13840002   2.843   3.121   3.705  0.1170  0.6564  0.3342
  133MOL   C13940003   2.958   3.195   3.716  0.0709  0.3255  0.3973
  133MOL   O14040004   3.003   3.231   3.825 -0.6321 -0.3851  0.3900
  133MOL   C14140005   2.996   3.246   3.579 -1.0501 -0.5457 -0.0622
  133MOL   C14240006   3.097   3.146   3.518  0.4622  0.2949  0.0645
  133MOL   C14340007   2.667   3.142   3.875 -0.3089  0.9533 -0.2818
  133MOL   H14440008   2.858   3.036   3.894  1.7528  1.1074 -1.1589
  133MOL   H14540009   2.905   3.246   3.519 -1.4452 -1.5922  0.5235
  133MOL   H14640010   3.037   3.347   3.574 -2.0370 -0.1996 -1.3825
  133MOL   H14740011   3.121   3.058   3.577 -0.7916 -1.0573 -1.4007
  133MOL   H14840012   3.058   3.107   3.424  0.0341  0.6954  0.0756
  133MOL   H14940013   3.193   3.192   3.491  0.5773 -1.2393 -2.2939
  133MOL   H15040014   2.637   3.086   3.963 -0.6854  1.7417  0.0970
  133MOL   H15140015   2.689   3.240   3.917 -1.8975  1.2828 -0.1972
  133MOL   C15240016   2.541   3.165   3.786  0.9428 -0.4308 -0.4217
  133MOL   O15340017   2.435   3.209   3.868 -0.1683  0.6832  0.2319
  133MOL   C15440018   2.355   3.122   3.939 -0.7614  0.5726  0.7030
  133MOL   O15540019   2.383   3.004   3.951 -0.1076  0.6075 -0.3634
  133MOL   C15640020   2.227   3.181   3.998 -0.8259  0.7667 -0.2665
  133MOL   C15740021   2.122   3.187   3.888 -0.5429 -0.6785 -0.0069
  133MOL   C15840022   2.565   3.272   3.675 -0.4792 -0.2910 -0.0824
  133MOL   H15940023   2.515   3.071   3.737  2.1444 -0.6769 -0.6025
  133MOL   H16040024   2.192   3.125   4.084  0.1608 -1.0075 -1.0063
  133MOL   H16140025   2.234   3.285   4.032 -0.4160  0.7786 -0.3817
  133MOL   H16240026   2.033   3.236   3.929 -0.2128 -0.1091  0.0298
  133MOL   H16340027   2.148   3.259   3.811  1.1451 -1.6707 -0.4040
  133MOL   H16440028   2.085   3.098   3.837  1.2140 -0.9872 -0.7770
  133MOL   H16540029   2.583   3.364   3.731  0.5275 -0.3758 -0.2528
  133MOL   H16640030   2.650   3.236   3.617 -0.5188 -1.9758  0.8595
  133MOL   C16740031   2.452   3.296   3.574 -0.3609  1.2524  1.1142
  133MOL   O16840032   2.484   3.410   3.499 -0.2434  0.1813  0.3985
  133MOL   C16940033   2.395   3.510   3.485  0.2603 -0.4839 -0.2914
  133MOL   O17040034   2.277   3.515   3.521 -0.1096 -0.3408  1.1227
  133MOL   C17140035   2.450   3.625   3.402  0.5808  0.9849 -0.1186
  133MOL   C17240036   2.464   3.762   3.461 -0.3884 -0.3885 -0.5247
  133MOL   C17340037   2.430   3.179   3.480  0.3178  0.3914  0.4471
  133MOL   H17440038   2.366   3.301   3.641  0.0076 -0.8706  1.7972
  133MOL   H17540039   2.552   3.595   3.378 -0.3304 -1.4420 -1.2780
  133MOL   H17640040   2.390   3.632   3.310 -0.4570  1.8166  0.6086
  133MOL   H17740041   2.372   3.818   3.479 -0.5295 -1.0373  0.7938
  133MOL   H17840042   2.535   3.758   3.543 -1.4625  1.8286  0.5622
  133MOL   H17940043   2.517   3.836   3.401 -2.7982  2.6407  0.9070
  133MOL   H18040044   2.523   3.134   3.447 -0.1480 -0.2252 -0.0160
  133MOL   H18140045   2.385   3.110   3.551  3.0800 -0.9768  0.9321
  133MOL   C18240046   2.336   3.208   3.363 -0.6565 -0.6785  0.4415
  133MOL   O18340047   2.411   3.248   3.244 -0.1000 -0.4103  0.4437
  133MOL   C18440048   2.346   3.295   3.131 -1.0430 -0.3519  0.3952
  133MOL   O18540049   2.223   3.322   3.123 -0.7555 -0.7331 -0.5563
  133MOL   C18640050   2.439   3.340   3.014 -1.3478  0.2938  0.2179
  133MOL   C18740051   2.553   3.434   3.063  0.4819  0.0118 -0.2251
  133MOL   C18840052   2.246   3.090   3.321 -0.0319  0.4022 -0.6433
  133MOL   H18940053   2.282   3.299   3.387  2.3686  0.7591  2.1259
  133MOL   H19040054   2.473   3.246   2.971  2.2397  0.8710  1.5968
  133MOL   H19140055   2.393   3.387   2.927 -1.1046  0.8615  0.3951
  133MOL   H19240056   2.602   3.473   2.973 -0.2747  1.0650 -0.1838
  133MOL   H19340057   2.514   3.520   3.117 -1.5197 -1.7064  1.1071
  133MOL   H19440058   2.624   3.380   3.125 -1.2702 -1.7837  0.2599
  133MOL   H19540059   2.190   3.066   3.411 -0.6131  2.4474 -0.4337
  133MOL   H19640060   2.172   3.118   3.246 -0.8044  1.1150  0.3665
  133MOL   C19740061   2.325   2.957   3.279  0.0975 -0.0875 -0.0460
  133MOL   O19840062   2.298   2.855   3.370  0.4778 -0.2825 -0.2252
  133MOL   C19940063   2.392   2.819   3.455 -0.1335  0.3044 -0.5330
  133MOL   O20040064   2.494   2.881   3.482 -0.2929 -0.0203  0.1959
  133MOL   C20140065   2.348   2.694   3.538 -0.4934  0.2859 -0.1286
  133MOL   C20240066   2.437   2.675   3.659  0.7348  0.1465  0.2607
  133MOL   C20340067   2.277   2.906   3.136 -0.4269  0.4975  0.1551
  133MOL   H20440068   2.427   2.994   3.278  0.5951 -1.4209  0.3130
  133MOL   H20540069   2.246   2.704   3.574 -0.3677 -1.8329  0.9032
  133MOL   H20640070   2.357   2.604   3.476 -0.5885 -2.8794  4.1941
  133MOL   H20740071   2.540   2.665   3.625  0.2936 -1.1229 -0.7433
  133MOL   H20840072   2.445   2.755   3.732  0.1046  1.0556 -0.6612
  133MOL   H20940073   2.423   2.580   3.712  2.1643 -0.7141 -0.8372
  133MOL   H21040074   2.168   2.897   3.135 -0.2834 -2.4362  2.3612
  133MOL   H21140075   2.290   2.992   3.071 -1.7913 -0.0331 -0.8435
  133MOL   C21240076   2.326   2.767   3.069 -0.7609  0.4350  0.1427
  133MOL   O21340077   2.459   2.782   3.030 -0.2350 -0.2310  0.6403
  133MOL   C21440078   2.494   2.800   2.899  0.2297  0.2392 -0.2090
  133MOL   O21540079   2.405   2.816   2.818 -0.4813  0.0282  0.1502
  133MOL   C21640080   2.645   2.801   2.864  0.1971  0.8185 -0.4739
  133MOL   C21740081   2.723   2.925   2.918  1.2195  0.0917 -0.3935
  133MOL   C21840082   2.334   2.649   3.165  0.2412 -0.3656  0.7741
  133MOL   H21940083   2.265   2.751   2.980 -0.7024 -0.0278  0.1864
  133MOL   H22040084   2.691   2.714   2.909  0.3775  1.3211  0.3350
  133MOL   H22140085   2.653   2.802   2.756  0.1690  2.3262 -0.4841
  133MOL   H22240086   2.824   2.904   2.883  1.4333 -0.2808  0.4291
  133MOL   H22340087   2.690   3.013   2.863  2.3161 -0.7766 -2.4966
  133MOL   H22440088   2.727   2.939   3.026 -2.0452  0.5103 -0.2870
  133MOL   H22540089   2.413   2.677   3.235  1.4112  0.8298 -0.9812
  133MOL   H22640090   2.240   2.636   3.219  0.7831 -0.1462  1.8020
  133MOL   C22740091   2.365   2.516   3.095 -0.2097  0.9955 -0.1753
  133MOL   O22840092   2.407   2.421   3.190 -0.1258 -0.1270 -0.3228
  133MOL   C22940093   2.538   2.407   3.221 -0.2509 -0.1372  0.1776
  133MOL   O23040094   2.618   2.502   3.221  0.5245 -0.4776 -0.3972
  133MOL   C23140095   2.592   2.271   3.277  0.2378 -0.1472 -0.3157
  133MOL   C23240096   2.730   2.293   3.354 -0.2949 -0.0962  0.4485
  133MOL   C23340097   2.241   2.464   3.022 -0.4169 -0.7593 -0.0025
  133MOL   H23440098   2.447   2.535   3.026 -1.1908  0.9120 -1.3604
  133MOL   H23540099   2.517   2.232   3.346  1.6326 -2.0860  0.1485
  133MOL   H23640100   2.601   2.203   3.193 -0.7460  1.2810 -1.6043
  133MOL   H23740101   2.773   2.197   3.380 -1.2976 -0.9340 -0.9060
  133MOL   H23840102   2.800   2.345   3.287  0.0587  0.2615  1.0958
  133MOL   H23940103   2.712   2.352   3.443 -0.5405 -2.5060  2.0449
  133MOL   H24040104   2.153   2.457   3.085 -1.5563  1.4268 -1.2898
  133MOL   H24140105   2.212   2.541   2.951  1.0367  0.0205  0.2242
  133MOL   C24240106   2.260   2.354   2.925 -0.7570  0.8255  0.0157
  133MOL   O24340107   2.348   2.401   2.826  0.0334 -0.3009 -0.0158
  133MOL   C24440108   2.311   2.439   2.701 -0.6811 -0.1274  0.1638
  133MOL   O24540109   2.199   2.451   2.658  0.2310  0.1774  0.3394
  133MOL   C24640110   2.423   2.439   2.603 -0.3669 -0.0994 -0.1510
  133MOL   C24740111   2.391   2.488   2.460  0.3768 -0.3504  0.0784
  133MOL   C24840112   2.309   2.224   2.980  0.3055 -0.1811 -0.3875
  133MOL   H24940113   2.169   2.319   2.878 -0.9971 -3.6067  3.4597
  133MOL   H25040114   2.494   2.512   2.640  0.1448 -0.9626  0.5999
  133MOL   H25140115   2.456   2.335   2.597 -2.3513 -0.7989  0.6143
  133MOL   H25240116   2.368   2.595   2.464 -3.0109 -1.0362  1.2016
  133MOL   H25340117   2.477   2.486   2.394  0.6369  0.0930  0.4009
  133MOL   H25440118   2.309   2.442   2.405  0.0129  1.2994 -0.7857
  133MOL   H25540119   2.322   2.156   2.895  1.2638  1.5954 -1.6859
  133MOL   H25640120   2.406   2.227   3.030 -0.4904 -1.7175  1.3117
  133MOL   C25740121   2.214   2.170   3.087  0.1452 -0.4608 -0.0465
  133MOL   O25840122   2.089   2.128   3.033 -0.3349 -0.3664 -0.2037
  133MOL   C25940123   1.972   2.145   3.095 -0.2254 -0.1257  0.0323
  133MOL   O26040124   1.954   2.191   3.211  0.2797  0.0919  0.3631
  133MOL   C26140125   1.854   2.101   3.005 -0.2085 -0.0994  0.2148
  133MOL   C26240126   1.827   2.200   2.899 -0.0321 -0.1565 -0.4269
  133MOL   C26340127   2.269   2.051   3.165 -0.4545 -0.3058 -0.1617
  133MOL   H26440128   2.185   2.250   3.155  1.4778 -1.1758  1.3897
  133MOL   H26540129   1.865   2.000   2.966  2.4515  0.5013 -0.6784
  133MOL   H26640130   1.762   2.098   3.063 -0.6652  2.4415 -0.3318
  133MOL   H26740131   1.719   2.195   2.882 -0.2762  1.0486  0.6504
  133MOL   H26840132   1.867   2.301   2.912  0.7394 -0.1692 -2.5323
  133MOL   H26940133   1.879   2.157   2.814  1.6915  1.1789 -0.0783
  133MOL   H27040134   2.353   2.096   3.218  1.4240  0.6646 -3.8130
  133MOL   H27140135   2.186   2.027   3.231 -0.3149 -0.2770  0.0222
  133MOL   C27240136   2.309   1.921   3.095  0.2156  0.1654 -0.0127
  133MOL   O27340137   2.440   1.925   3.038 -0.3681 -0.1604 -0.2313
  133MOL   C27440138   2.457   1.893   2.914  0.3837  0.6221  0.5615
  133MOL   O27540139   2.380   1.828   2.848  0.6180 -0.3629 -0.0742
  133MOL   C27640140   2.596   1.938   2.856  0.4890  0.3338 -0.5215
  133MOL   C27740141   2.710   1.845   2.917 -0.3843  0.4078 -0.3528
  133MOL   C27840142   2.299   1.793   3.169  0.4516  0.5309 -0.1332
  133MOL   H27940143   2.237   1.923   3.014  0.4508 -2.2772 -0.3171
  133MOL   H28040144   2.582   1.918   2.750 -0.2083 -1.0856 -0.1791
  133MOL   H28140145   2.601   2.046   2.862  0.3760  0.5535 -3.7659
  133MOL   H28240146   2.686   1.740   2.901 -1.0593  0.5821 -0.4948
  133MOL   H28340147   2.802   1.866   2.863 -1.6443  4.0101 -1.2413
  133MOL   H28440148   2.719   1.871   3.022  0.0379 -0.6864 -0.1122
  133MOL   H28540149   2.309   1.715   3.093  1.5113  1.1693 -0.6403
  133MOL   H28640150   2.386   1.801   3.233  0.8165  0.5678 -0.6382
  133MOL   C28740151   2.170   1.755   3.241  0.2609  0.0034  0.5560
  133MOL   O28840152   2.140   1.819   3.367  0.1202 -0.1457  0.0338
  133MOL   C28940153   2.190   1.781   3.481  1.0181 -0.3440  0.6616
  133MOL   O29040154   2.265   1.686   3.499  0.2845  0.2036  0.2364
  133MOL   C29140155   2.126   1.866   3.592 -0.1725 -0.7524 -0.2802
  133MOL   C29240156   2.173   2.017   3.607 -0.1828 -0.0471  0.0232
  133MOL   C29340157   2.041   1.769   3.159  0.1056 -0.2695  0.2294
  133MOL   H29440158   2.182   1.649   3.265  0.8309  0.2162  1.2093
  133MOL   H29540159   2.017   1.870   3.583  0.0338 -0.3790 -2.9505
  133MOL   H29640160   2.142   1.821   3.690 -2.0590  0.1475  0.4790
  133MOL   H29740161   2.111   2.071   3.677  0.9246  0.8288  0.3330
  133MOL   H29840162   2.264   2.021   3.667 -0.2333 -2.8909  0.3554
  133MOL   H29940163   2.179   2.077   3.516 -0.6771  0.2900  0.2125
  133MOL   H30040164   2.024   1.867   3.115 -0.9525 -0.0269  1.1919
  133MOL   H30140165   2.043   1.701   3.074  1.0946 -0.9575  0.7893
  133MOL   H30240166   1.950   1.765   3.218  0.7289 -1.5001  1.1175
  134MOL     C140167   4.261   4.898   3.277 -0.0870 -0.2160 -0.4712
  134MOL     O240168   4.145   4.962   3.214 -0.2644 -0.0396  0.1782
  134MOL     C340169   4.082   5.056   3.279  0.2176  0.1514 -0.3385
  134MOL     O440170   4.113   5.095   3.395  0.3110 -0.3763 -0.6182
  134MOL     C540171   3.970   5.112   3.197  0.4532 -0.5347 -0.3168
  134MOL     C640172   3.915   5.247   3.251  0.4952 -0.5216 -0.3920
  134MOL     C740173   4.295   4.770   3.202  0.4650 -0.5949  0.1196
  134MOL     H840174   4.232   4.878   3.381  0.2365  0.5562 -0.2263
  134MOL     H940175   4.006   5.110   3.094 -0.4402  0.6357 -0.6690
  134MOL    H1040176   3.886   5.045   3.210 -0.2111 -0.0297 -1.8891
  134MOL    H1140177   3.989   5.327   3.262  0.0196  0.0274 -1.1243
  134MOL    H1240178   3.845   5.293   3.181 -1.3971 -2.6758  0.0406
  134MOL    H1340179   3.870   5.238   3.349 -0.9859 -1.0484 -1.1188
  134MOL    H1440180   4.215   4.700   3.227 -0.8345  0.5036 -0.9061
  134MOL    H1540181   4.286   4.802   3.098  1.8360 -1.9197 -0.4233
  134MOL    H1640182   4.341   4.972   3.271  0.0699 -0.0850  2.3405
  134MOL    C1740183   4.438   4.733   3.236 -0.4221 -0.4399  0.0336
  134MOL    O1840184   4.430   4.672   3.366 -0.2559  0.3915 -0.4199
  134MOL    C1940185   4.496   4.719   3.470 -0.1704 -0.5611 -0.0220
  134MOL    O2040186   4.583   4.804   3.471  0.0200 -0.1989 -0.2605
  134MOL    C2140187   4.460   4.650   3.600 -0.4065  0.9906 -0.2617
  134MOL    C2240188   4.466   4.494   3.576  0.6384  0.2447  0.1622
  134MOL    C2340189   4.486   4.617   3.145  0.1492 -0.0625  0.2979
  134MOL    H2440190   4.494   4.825   3.220 -1.8765  0.2332 -1.4387
  134MOL    H2540191   4.541   4.679   3.666  2.0013 -1.0756 -2.2064
  134MOL    H2640192   4.364   4.687   3.636  0.2549 -0.7440  3.5431
  134MOL    H2740193   4.373   4.451   3.538 -0.2146  1.0672  1.2742
  134MOL    H2840194   4.533   4.460   3.497  0.4685  1.5698 -0.5715
  134MOL    H2940195   4.491   4.444   3.669 -0.9213 -0.2341  0.3415
  134MOL    H3040196   4.416   4.534   3.147  3.2347 -2.7755 -0.1816
  134MOL    H3140197   4.482   4.646   3.040  1.7300  1.3337  0.5890
  134MOL    C3240198   4.622   4.570   3.183  0.3933 -0.4029 -0.4779
  134MOL    O3340199   4.645   4.443   3.123 -0.0065  0.2802  0.5850
  134MOL    C3440200   4.588   4.334   3.177  0.4189 -0.3888 -0.2103
  134MOL    O3540201   4.518   4.322   3.276 -0.7631  0.0046 -0.1385
  134MOL    C3640202   4.627   4.216   3.098 -0.6300 -0.0984  0.0430
  134MOL    C3740203   4.592   4.224   2.946  0.2268  0.3015  0.2821
  134MOL    C3840204   4.733   4.663   3.137 -0.2542  0.5249 -0.2581
  134MOL    H3940205   4.628   4.555   3.291 -0.5160  3.2116  0.1537
  134MOL    H4040206   4.735   4.204   3.109 -0.3245  2.1136 -0.3161
  134MOL    H4140207   4.580   4.130   3.147 -1.3064 -0.0795 -0.5638
  134MOL    H4240208   4.511   4.294   2.927  1.6099  1.1649 -2.6813
  134MOL    H4340209   4.671   4.282   2.897  1.0281  0.9242  2.2522
  134MOL    H4440210   4.594   4.132   2.888  2.7610  0.8836 -0.6468
  134MOL    H4540211   4.732   4.689   3.032 -1.3806 -0.3509 -0.4756
  134MOL    H4640212   4.701   4.759   3.180  0.9688  0.7259  0.2291
  134MOL    C4740213   4.866   4.640   3.204 -0.0308 -0.1151 -0.5088
  134MOL    O4840214   4.859   4.661   3.345  0.2004 -0.4405 -0.6010
  134MOL    C4940215   4.921   4.768   3.396  0.0731  0.0088 -0.1361
  134MOL    O5040216   5.000   4.852   3.342  0.4663  0.0539 -0.5398
  134MOL    C5140217   4.907   4.776   3.548  0.5479 -0.7602 -0.3380
  134MOL    C5240218   5.034   4.771   3.636  1.0139  0.3767 -0.1954
  134MOL    C5340219   4.938   4.505   3.168  0.6910 -0.7463 -0.5067
  134MOL    H5440220   4.924   4.723   3.165  0.1338  0.5689  1.1461
  134MOL    H5540221   4.837   4.859   3.555  0.5160 -0.8011 -0.1623
  134MOL    H5640222   4.863   4.683   3.583  1.1927 -1.2840 -0.9050
  134MOL    H5740223   5.088   4.680   3.610 -0.4344 -1.1430  2.0032
  134MOL    H5840224   5.099   4.855   3.610  2.0262 -0.6277 -0.9713
  134MOL    H5940225   5.011   4.769   3.742  0.3137 -1.7370 -0.3644
  134MOL    H6040226   4.892   4.427   3.228  1.2484 -0.2983  0.5272
  134MOL    H6140227   4.906   4.480   3.067 -2.0463 -0.4236  0.2423
  134MOL    C6240228   5.091   4.505   3.179  0.0194 -0.1580  0.1107
  134MOL    O6340229   5.126   4.464   3.315  0.1145  0.2019  0.0957
  134MOL    C6440230   5.226   4.520   3.380  0.6197  0.1537 -0.1568
  134MOL    O6540231   5.296   4.620   3.350  0.1336  0.0368  0.0715
  134MOL    C6640232   5.258   4.440   3.503  0.3063 -0.2182  0.5126
  134MOL    C6740233   5.324   4.304   3.463  0.0310 -0.5829 -0.1600
  134MOL    C6840234   5.164   4.405   3.087  0.3148 -0.9826  0.4221
  134MOL    H6940235   5.142   4.600   3.166 -0.5751  0.5197  2.5503
  134MOL    H7040236   5.323   4.500   3.567  1.7409 -0.6401 -0.5135
  134MOL    H7140237   5.168   4.444   3.565 -0.0540 -1.0901  0.0633
  134MOL    H7240238   5.275   4.248   3.384 -1.1673 -1.0013  0.8756
  134MOL    H7340239   5.419   4.324   3.413  0.0112  1.5898  0.5934
  134MOL    H7440240   5.349   4.249   3.554  2.8043  1.1986  0.2240
  134MOL    H7540241   5.271   4.408   3.108  0.1563 -0.4922  1.1824
  134MOL    H7640242   5.134   4.303   3.112  1.1126 -1.5406 -0.8577
  134MOL    C7740243   5.143   4.426   2.933  0.2816  0.3643 -0.1810
  134MOL    O7840244   5.210   4.538   2.886 -0.0112 -0.1232 -0.1746
  134MOL    C7940245   5.158   4.658   2.867 -0.5283 -0.1084  0.2303
  134MOL    O8040246   5.052   4.696   2.910  0.6511  0.5112  0.2763
  134MOL    C8140247   5.252   4.762   2.800  0.0437  0.0309 -0.2404
  134MOL    C8240248   5.380   4.790   2.877  0.0560  0.3660 -0.5538
  134MOL    C8340249   5.190   4.312   2.848  0.1816 -0.2932  0.7626
  134MOL    H8440250   5.038   4.447   2.913  0.1586  0.0343  0.1080
  134MOL    H8540251   5.277   4.729   2.699  2.3812  0.2109  0.2507
  134MOL    H8640252   5.183   4.846   2.788  0.0815  0.2608  1.1639
  134MOL    H8740253   5.438   4.853   2.810  0.4784  0.5323 -0.0421
  134MOL    H8840254   5.365   4.856   2.962 -0.8906 -1.0790  0.4302
  134MOL    H8940255   5.444   4.703   2.896  1.3970  1.4577 -0.0349
  134MOL    H9040256   5.287   4.331   2.802  1.4770 -1.9427  2.7104
  134MOL    H9140257   5.216   4.235   2.922  0.1402 -1.6648 -0.6253
  134MOL    C9240258   5.099   4.271   2.735  1.1493 -0.2882 -0.5175
  134MOL    O9340259   5.090   4.373   2.641  0.3723  0.5758 -0.1046
  134MOL    C9440260   4.960   4.395   2.596  0.3456 -0.2801  0.0614
  134MOL    O9540261   4.861   4.339   2.631  0.4917  0.4452 -0.5797
  134MOL    C9640262   4.955   4.500   2.480 -0.2671  0.3745 -0.2386
  134MOL    C9740263   5.026   4.438   2.357 -0.0250 -0.3192  0.3742
  134MOL    C9840264   5.132   4.148   2.657  0.1973  0.2848  0.4970
  134MOL    H9940265   5.003   4.257   2.785  0.3130 -1.9253 -2.4629
  134MOL   H10040266   4.854   4.535   2.459  0.3085  1.3488 -1.4517
  134MOL   H10140267   4.998   4.593   2.519  4.2504 -1.2470 -1.0033
  134MOL   H10240268   5.126   4.481   2.360 -0.5020  0.7360  1.5466
  134MOL   H10340269   5.028   4.329   2.354 -0.7015 -0.3066 -1.1977
  134MOL   H10440270   4.986   4.471   2.261  0.2279 -0.6303  0.1595
  134MOL   H10540271   5.046   4.121   2.595 -0.4831  0.8990  1.1568
  134MOL   H10640272   5.219   4.168   2.595 -0.7977  1.8357 -0.4416
  134MOL   C10740273   5.162   4.025   2.739 -0.4241  0.1233  0.1638
  134MOL   O10840274   5.039   3.979   2.790  0.3594 -0.5308 -0.0392
  134MOL   C10940275   5.019   3.978   2.931  0.7906 -0.4351  0.1905
  134MOL   O11040276   5.089   4.036   3.013  0.8089 -0.4748 -0.4376
  134MOL   C11140277   4.897   3.893   2.984  1.1091  0.9029  0.1187
  134MOL   C11240278   4.864   3.918   3.136  0.4999 -0.3043 -0.3832
  134MOL   C11340279   5.219   3.909   2.659 -0.2261  0.0929 -0.5028
  134MOL   H11440280   5.234   4.053   2.816 -3.0371 -1.2462  3.2385
  134MOL   H11540281   4.824   3.931   2.913  2.0643 -0.8376 -1.8129
  134MOL   H11640282   4.904   3.785   2.969 -0.0883  0.4920  2.3060
  134MOL   H11740283   4.876   4.024   3.158 -1.5051 -0.5259  1.9709
  134MOL   H11840284   4.761   3.892   3.160  0.8704 -0.3052  1.2397
  134MOL   H11940285   4.929   3.850   3.192 -0.8119 -1.4967 -0.2785
  134MOL   H12040286   5.225   3.815   2.714 -0.7621  0.1069 -0.4108
  134MOL   H12140287   5.155   3.880   2.576 -1.2141 -2.0348  0.9781
  134MOL   C12240288   5.361   3.940   2.600 -0.3632 -0.4782 -0.4226
  134MOL   O12340289   5.446   3.952   2.708 -0.0429  0.5247 -0.5003
  134MOL   C12440290   5.531   4.058   2.722 -0.4108  0.5313  0.3363
  134MOL   O12540291   5.538   4.155   2.642 -1.0879  0.3376  0.2199
  134MOL   C12640292   5.608   4.051   2.863  0.6445 -0.1019 -0.1950
  134MOL   C12740293   5.750   4.005   2.838  0.3678 -0.0478 -0.4944
  134MOL   C12840294   5.424   3.833   2.506  0.2342 -0.1435  0.0644
  134MOL   H12940295   5.361   4.035   2.547  1.3943 -1.7793 -2.8324
  134MOL   H13040296   5.597   4.149   2.908  1.7984 -0.0067 -0.1110
  134MOL   H13140297   5.548   3.984   2.926 -0.5734 -1.7838 -3.0104
  134MOL   H13240298   5.805   3.999   2.932  2.2801  0.1924 -1.5715
  134MOL   H13340299   5.762   3.917   2.775  3.3265 -0.7963  0.9932
  134MOL   H13440300   5.800   4.076   2.773 -1.3917 -1.4332 -3.4667
  134MOL   H13540301   5.532   3.847   2.505  0.3499 -1.0432 -0.7655
  134MOL   H13640302   5.403   3.733   2.544 -4.1799  0.8324  0.5331
  134MOL   C13740303   5.359   3.851   2.357 -0.9777 -0.6266 -0.0072
  134MOL   O13840304   5.427   3.953   2.288 -0.2413 -0.3911 -0.3331
  134MOL   C13940305   5.366   4.070   2.264  0.0290  0.1851 -0.0135
  134MOL   O14040306   5.256   4.100   2.303  0.7540 -0.0243 -0.0581
  134MOL   C14140307   5.459   4.166   2.199 -0.0618  0.2177  0.1737
  134MOL   C14240308   5.512   4.276   2.287  0.6410  0.0656 -0.5932
  134MOL   C14340309   5.373   3.731   2.257  0.2135  0.1326  0.7853
  134MOL   H14440310   5.252   3.872   2.358 -0.4617  2.6236 -2.4511
  134MOL   H14540311   5.542   4.130   2.138 -0.4178 -0.4288  0.0671
  134MOL   H14640312   5.407   4.217   2.119 -0.9587 -0.8551  0.0711
  134MOL   H14740313   5.588   4.333   2.234  2.9761 -0.1268  2.3731
  134MOL   H14840314   5.431   4.345   2.306  0.4438 -0.2201 -0.3969
  134MOL   H14940315   5.541   4.238   2.386 -2.1132  1.7267  0.9009
  134MOL   H15040316   5.368   3.776   2.158 -1.0469  0.4913  1.0103
  134MOL   H15140317   5.471   3.683   2.269  1.9329  2.8798 -1.7801
  134MOL   C15240318   5.281   3.614   2.287 -0.8277  0.5764  0.2257
  134MOL   O15340319   5.152   3.650   2.245 -0.1145  0.9062 -0.2787
  134MOL   C15440320   5.054   3.673   2.336 -0.0199 -0.3334 -0.0873
  134MOL   O15540321   5.059   3.635   2.454 -0.2019 -0.4238 -0.0115
  134MOL   C15640322   4.940   3.752   2.274 -0.4225  0.0080 -0.1718
  134MOL   C15740323   4.959   3.906   2.288 -0.5921  0.4374  0.5673
  134MOL   C15840324   5.319   3.492   2.200  0.2293 -0.1153  0.0586
  134MOL   H15940325   5.292   3.582   2.391  2.3429 -1.8109 -0.7520
  134MOL   H16040326   4.911   3.721   2.173 -1.2377  1.8112 -0.5063
  134MOL   H16140327   4.844   3.739   2.325 -1.2782  2.8505 -0.9971
  134MOL   H16240328   4.977   3.934   2.391  1.3029 -1.4419  0.7649
  134MOL   H16340329   5.047   3.938   2.231  0.6776 -2.4200  0.8538
  134MOL   H16440330   4.872   3.956   2.245 -1.1649 -2.0871 -1.3226
  134MOL   H16540331   5.247   3.411   2.203 -1.5980  1.3589 -2.5044
  134MOL   H16640332   5.327   3.518   2.095  0.9383  1.2715  0.4352
  134MOL   C16740333   5.455   3.422   2.236  0.0812  0.1132  0.6730
  134MOL   O16840334   5.466   3.368   2.368  0.3233  0.8893  0.2282
  134MOL   C16940335   5.547   3.423   2.463  0.3411  0.3748 -0.1476
  134MOL   O17040336   5.635   3.502   2.437 -0.3641 -0.1483  0.0670
  134MOL   C17140337   5.516   3.381   2.603 -0.5187 -0.5063 -0.2753
  134MOL   C17240338   5.425   3.478   2.681 -0.8309 -0.8785 -0.3212
  134MOL   C17340339   5.479   3.305   2.128 -0.5492 -0.2937 -0.6265
  134MOL   H17440340   5.535   3.495   2.223  0.8397 -0.3921  2.3519
  134MOL   H17540341   5.465   3.285   2.598 -2.4485  0.5147 -0.6608
  134MOL   H17640342   5.614   3.355   2.644 -0.4384  1.9939  1.2292
  134MOL   H17740343   5.485   3.567   2.702 -0.2866 -1.2535 -0.2755
  134MOL   H17840344   5.327   3.497   2.637 -1.1023 -1.1342  0.1702
  134MOL   H17940345   5.399   3.447   2.782 -1.5785 -3.0286 -1.1499
  134MOL   H18040346   5.413   3.218   2.138  0.9941 -1.3802  0.4620
  134MOL   H18140347   5.464   3.327   2.022 -1.1628  0.7275 -0.3291
  134MOL   C18240348   5.624   3.247   2.136  0.6461  0.3814 -0.5058
  134MOL   O18340349   5.634   3.121   2.071  0.1338  0.2216  0.7980
  134MOL   C18440350   5.750   3.046   2.076  0.3288 -0.4895  0.4317
  134MOL   O18540351   5.863   3.076   2.114  0.3790  0.4033  0.0818
  134MOL   C18640352   5.713   2.904   2.022  0.1119 -0.1466 -0.6786
  134MOL   C18740353   5.760   2.803   2.124  1.1334  0.1449 -0.6443
  134MOL   C18840354   5.723   3.355   2.086  0.1730  0.3860  0.1257
  134MOL   H18940355   5.644   3.226   2.241  1.0144 -0.6365 -0.7719
  134MOL   H19040356   5.611   2.891   1.986  0.4792 -2.2883 -1.0084
  134MOL   H19140357   5.764   2.874   1.930  0.4427 -0.2765 -0.4531
  134MOL   H19240358   5.739   2.705   2.080 -0.6476  0.9698 -1.6727
  134MOL   H19340359   5.864   2.827   2.147  1.0681 -0.8077  0.6991
  134MOL   H19440360   5.700   2.815   2.214 -0.4982  0.8712 -1.8066
  134MOL   H19540361   5.725   3.456   2.126  2.2885  0.4164 -0.0096
  134MOL   H19640362   5.825   3.335   2.117 -0.8301 -1.5845  2.3270
  134MOL   C19740363   5.726   3.389   1.935  0.1507  0.1259  0.0603
  134MOL   O19840364   5.721   3.532   1.923 -0.0213 -0.3344  0.4064
  134MOL   C19940365   5.595   3.594   1.910 -0.0444 -0.7850 -0.7385
  134MOL   O20040366   5.481   3.540   1.912 -0.1628 -0.1135  0.3353
  134MOL   C20140367   5.603   3.748   1.895 -0.0162 -0.2321  0.3716
  134MOL   C20240368   5.673   3.817   2.015  0.0691  0.2129  0.0597
  134MOL   C20340369   5.857   3.347   1.864 -0.3755 -0.1908  0.1915
  134MOL   H20440370   5.643   3.344   1.880  0.4653 -1.8683  1.1598
  134MOL   H20540371   5.653   3.761   1.799 -0.5538  1.4224  0.3057
  134MOL   H20640372   5.499   3.776   1.884 -0.0176 -0.6586 -0.7779
  134MOL   H20740373   5.608   3.883   2.071 -0.0432 -0.9812  1.3550
  134MOL   H20840374   5.719   3.743   2.081  1.7189  0.8104 -0.3958
  134MOL   H20940375   5.757   3.870   1.969  0.6194 -1.2992 -0.7291
  134MOL   H21040376   5.938   3.385   1.927  1.5178 -0.3581 -2.1038
  134MOL   H21140377   5.872   3.239   1.857  1.5968 -0.0392  1.6456
  134MOL   C21240378   5.868   3.402   1.718  0.1354  0.0074  0.1656
  134MOL   O21340379   6.003   3.369   1.684 -0.1084  1.0948  0.1710
  134MOL   C21440380   6.102   3.453   1.676 -0.0183 -0.5731  0.5043
  134MOL   O21540381   6.096   3.571   1.714  0.4541  0.1847  0.0741
  134MOL   C21640382   6.219   3.382   1.619 -0.1856  0.7489 -0.6044
  134MOL   C21740383   6.313   3.486   1.546 -0.0836  0.7008 -0.6234
  134MOL   C21840384   5.772   3.345   1.613 -0.3057  0.0251 -0.1736
  134MOL   H21940385   5.850   3.510   1.715  1.8687  0.2838 -1.5307
  134MOL   H22040386   6.271   3.336   1.704  0.5857  1.0547 -0.9012
  134MOL   H22140387   6.191   3.306   1.547  0.0085  0.5838 -0.5067
  134MOL   H22240388   6.416   3.453   1.551 -0.6958 -1.3136 -1.0277
  134MOL   H22340389   6.263   3.502   1.450 -0.1214  0.2185 -0.6836
  134MOL   H22440390   6.298   3.574   1.608  0.7367  1.1817 -1.1007
  134MOL   H22540391   5.753   3.238   1.617  0.4572 -0.0952  0.2491
  134MOL   H22640392   5.673   3.381   1.642 -0.7359  0.6493 -2.3070
  134MOL   C22740393   5.801   3.378   1.468 -0.2075 -0.2786  0.0072
  134MOL   O22840394   5.898   3.285   1.419 -0.1930  0.6892 -0.3179
  134MOL   C22940395   5.997   3.327   1.332 -0.2752 -0.1916 -0.3044
  134MOL   O23040396   6.016   3.443   1.289 -0.2698  0.5192 -0.0270
  134MOL   C23140397   6.089   3.205   1.302  0.2813  0.0771 -0.3432
  134MOL   C23240398   6.042   3.122   1.182 -0.1061 -0.4479  0.0993
  134MOL   C23340399   5.681   3.365   1.379  0.2999  0.2982 -0.0951
  134MOL   H23440400   5.842   3.479   1.458 -0.2623 -0.2109  0.4624
  134MOL   H23540401   6.192   3.240   1.301 -0.3969  2.1764  0.3223
  134MOL   H23640402   6.083   3.143   1.391 -1.3832  2.9944  1.6878
  134MOL   H23740403   5.936   3.096   1.192 -0.1401  0.3421  2.0991
  134MOL   H23840404   6.054   3.187   1.096 -0.7355  0.7955  0.9459
  134MOL   H23940405   6.097   3.028   1.175 -1.1631 -1.2077  1.6473
  134MOL   H24040406   5.715   3.347   1.277  0.4969 -2.0050  0.3667
  134MOL   H24140407   5.624   3.278   1.412 -1.8559  1.8076  0.2935
  134MOL   C24240408   5.588   3.487   1.393 -0.5415  0.1848 -0.0758
  134MOL   O24340409   5.654   3.613   1.382 -0.7419  0.4635  0.7454
  134MOL   C24440410   5.644   3.700   1.484  0.0654  0.1706 -0.4514
  134MOL   O24540411   5.569   3.695   1.581 -0.3106  0.3882  0.1009
  134MOL   C24640412   5.758   3.801   1.479 -0.1098  0.7244  0.6651
  134MOL   C24740413   5.871   3.753   1.569  0.2121  0.0829 -0.0923
  134MOL   C24840414   5.469   3.493   1.293  0.7909 -0.1260 -0.3299
  134MOL   H24940415   5.559   3.472   1.497 -1.5170 -0.9863 -0.4953
  134MOL   H25040416   5.793   3.814   1.376 -2.1983  2.2515  0.1105
  134MOL   H25140417   5.727   3.900   1.511  1.3806  1.1684  0.7768
  134MOL   H25240418   5.849   3.733   1.674 -2.0909 -1.9362 -0.9144
  134MOL   H25340419   5.916   3.659   1.537  2.3005  0.4086  1.7438
  134MOL   H25440420   5.955   3.822   1.562 -0.8409  1.5005  1.0290
  134MOL   H25540421   5.387   3.562   1.315  0.9814  0.1438 -0.4681
  134MOL   H25640422   5.499   3.520   1.192 -2.7970  0.4215 -1.3182
  134MOL   C25740423   5.394   3.351   1.285  0.3632 -0.0573 -0.1938
  134MOL   O25840424   5.328   3.341   1.417 -0.2528 -0.0623  0.4459
  134MOL   C25940425   5.329   3.228   1.488 -0.2714 -0.0833  0.5751
  134MOL   O26040426   5.375   3.118   1.450  0.9405 -0.3528 -0.7768
  134MOL   C26140427   5.265   3.242   1.627 -0.3656  0.3707  0.5938
  134MOL   C26240428   5.353   3.318   1.718 -0.7051  0.0970 -0.2260
  134MOL   C26340429   5.293   3.332   1.171  0.2390  0.9717 -0.4182
  134MOL   H26440430   5.468   3.270   1.282 -0.9574 -1.2930  0.2438
  134MOL   H26540431   5.168   3.288   1.612  0.6470  2.7207  1.0460
  134MOL   H26640432   5.235   3.146   1.669 -1.5124  0.4820  0.0519
  134MOL   H26740433   5.447   3.263   1.724 -0.0804  1.1641 -0.2136
  134MOL   H26840434   5.364   3.419   1.679 -0.3892  0.0152 -0.3464
  134MOL   H26940435   5.300   3.323   1.814 -0.2020  0.0183  0.0556
  134MOL   H27040436   5.259   3.228   1.175  0.8521  0.7858  0.2596
  134MOL   H27140437   5.209   3.401   1.179  0.6943  1.5214 -0.3408
  134MOL   C27240438   5.355   3.366   1.035  0.3154 -0.4112  0.5141
  134MOL   O27340439   5.479   3.290   1.021 -0.0515 -0.2744  0.5502
  134MOL   C27440440   5.606   3.355   0.988  1.0454 -0.6410 -0.2554
  134MOL   O27540441   5.616   3.465   0.939 -0.2752  0.0358 -0.2039
  134MOL   C27640442   5.725   3.275   1.039 -0.0713  0.0367  0.0218
  134MOL   C27740443   5.785   3.179   0.945  0.1643 -0.2036 -0.2534
  134MOL   C27840444   5.267   3.341   0.914 -0.3330 -0.0149 -0.0392
  134MOL   H27940445   5.379   3.472   1.031 -2.0267  0.1048 -1.1360
  134MOL   H28040446   5.797   3.354   1.063  0.0125 -0.5973  2.0027
  134MOL   H28140447   5.675   3.237   1.129 -1.5238  1.7060 -0.0442
  134MOL   H28240448   5.738   3.080   0.947 -0.2267 -0.0109  1.4077
  134MOL   H28340449   5.765   3.210   0.842  1.1531  2.0763  0.2136
  134MOL   H28440450   5.893   3.165   0.953  0.4155  1.6135 -0.3556
  134MOL   H28540451   5.329   3.365   0.828 -0.5611 -1.8162 -0.7303
  134MOL   H28640452   5.250   3.234   0.905  0.3195 -0.0415 -0.9756
  134MOL   C28740453   5.133   3.416   0.907  0.3511 -0.4235  0.2445
  134MOL   O28840454   5.153   3.558   0.887 -0.7775 -0.6579 -0.0838
  134MOL   C28940455   5.121   3.643   0.995 -0.1051  0.2796  0.9462
  134MOL   O29040456   5.072   3.608   1.095  0.5337  0.2822 -0.3842
  134MOL   C29140457   5.158   3.789   0.965 -0.0946  0.2848 -0.2732
  134MOL   C29240458   5.068   3.857   0.860  0.3970  0.2662  0.3715
  134MOL   C29340459   5.040   3.352   0.803 -0.2698  0.6298  1.1454
  134MOL   H29440460   5.085   3.398   1.003 -1.2759  0.1553 -0.4380
  134MOL   H29540461   5.156   3.840   1.061 -1.1279  0.9492 -0.6391
  134MOL   H29640462   5.260   3.788   0.926  0.4404 -0.2406  1.1283
  134MOL   H29740463   5.099   3.953   0.819  0.1489 -0.4792 -1.5706
  134MOL   H29840464   5.050   3.797   0.771  1.3392 -0.7593  0.8612
  134MOL   H29940465   4.970   3.884   0.898 -0.1146 -1.9200  0.7004
  134MOL   H30040466   5.054   3.246   0.786  4.3141  1.3471 -0.0547
  134MOL   H30140467   4.932   3.365   0.820 -1.2665 -0.4462 -3.7264
  134MOL   H30240468   5.067   3.402   0.710  2.0034 -1.6072  0.5517
  135MOL     C140469   1.236   1.631   5.720  0.8487  0.4119 -0.5610
  135MOL     O240470   1.164   1.519   5.667  0.6321  0.6967 -0.1799
  135MOL     C340471   1.121   1.421   5.748 -0.9771  0.2550  0.4863
  135MOL     O440472   1.166   1.395   5.864 -0.1714  0.0303 -0.0942
  135MOL     C540473   1.012   1.330   5.695 -0.7909 -0.3973  0.6156
  135MOL     C640474   0.983   1.213   5.786 -0.3450 -0.6594 -0.3888
  135MOL     C740475   1.221   1.755   5.640 -0.1297 -0.6466 -0.0393
  135MOL     H840476   1.343   1.609   5.732  0.8148 -0.9616 -2.5293
  135MOL     H940477   0.920   1.381   5.666 -0.3436 -1.1078 -2.1894
  135MOL    H1040478   1.043   1.289   5.599  0.1230 -0.4530  0.9304
  135MOL    H1140479   0.912   1.143   5.740 -2.5457  0.5854  0.9899
  135MOL    H1240480   1.061   1.140   5.807  1.1490  0.5048 -1.8132
  135MOL    H1340481   0.937   1.244   5.880 -0.2310  1.7687 -1.1153
  135MOL    H1440482   1.205   1.721   5.538 -1.7972  0.2112 -0.0848
  135MOL    H1540483   1.134   1.815   5.669 -0.6420 -1.3934 -0.0325
  135MOL    H1640484   1.199   1.658   5.819  0.4017  1.2765 -0.9598
  135MOL    C1740485   1.345   1.850   5.640  0.6319  0.5958  1.0361
  135MOL    O1840486   1.379   1.921   5.756  0.1261 -0.3773  0.7398
  135MOL    C1940487   1.299   2.024   5.798  0.2602 -0.0911 -0.4390
  135MOL    O2040488   1.200   2.074   5.744  0.3505 -0.3016  0.3126
  135MOL    C2140489   1.347   2.091   5.928  0.1002  0.0990  0.1046
  135MOL    C2240490   1.474   2.176   5.906  0.3880 -1.0254  0.1096
  135MOL    C2340491   1.485   1.777   5.590  0.0371 -0.9209 -0.3115
  135MOL    H2440492   1.324   1.930   5.569 -2.4029 -0.3862  0.7833
  135MOL    H2540493   1.264   2.145   5.975  0.0573 -0.5579  0.7888
  135MOL    H2640494   1.379   2.009   5.993 -1.4446 -0.6985 -0.1248
  135MOL    H2740495   1.501   2.238   5.992 -0.0756  2.7082 -2.3501
  135MOL    H2840496   1.555   2.112   5.872  1.5338 -1.1054  2.8321
  135MOL    H2940497   1.449   2.240   5.822  0.9493 -1.4300 -0.3632
  135MOL    H3040498   1.533   1.737   5.679  1.2687  0.9710 -0.0964
  135MOL    H3140499   1.446   1.696   5.528 -0.2967 -1.0606  0.0726
  135MOL    C3240500   1.565   1.877   5.506  0.2189 -0.3346  0.0446
  135MOL    O3340501   1.628   1.965   5.593 -0.1192 -0.3312  0.2077
  135MOL    C3440502   1.648   2.092   5.551  0.2014 -0.7926 -0.0886
  135MOL    O3540503   1.597   2.142   5.451 -0.2111  0.0081 -0.1333
  135MOL    C3640504   1.730   2.177   5.644 -0.1950 -0.0185  0.9498
  135MOL    C3740505   1.846   2.088   5.703 -0.8677  0.4183  0.1213
  135MOL    C3840506   1.681   1.813   5.430 -0.4084 -0.6586  0.0619
  135MOL    H3940507   1.495   1.927   5.439 -0.4283 -0.7644  0.3962
  135MOL    H4040508   1.772   2.259   5.585 -2.3276  1.0169  0.8268
  135MOL    H4140509   1.664   2.227   5.714 -2.6245  0.0737 -1.3012
  135MOL    H4240510   1.801   2.004   5.756  1.9290 -0.0731  1.8337
  135MOL    H4340511   1.898   2.037   5.621 -0.7234  0.1631  0.3667
  135MOL    H4440512   1.914   2.145   5.766  0.9100 -0.8271 -0.6103
  135MOL    H4540513   1.735   1.894   5.381 -0.0032 -1.7222 -1.2883
  135MOL    H4640514   1.743   1.768   5.508  1.5549  0.4597 -0.8056
  135MOL    C4740515   1.653   1.711   5.314  0.2329 -0.3732 -0.4584
  135MOL    O4840516   1.611   1.582   5.368  0.2851  0.8200 -0.2049
  135MOL    C4940517   1.652   1.466   5.322  0.0920  0.7263 -0.4226
  135MOL    O5040518   1.750   1.457   5.247 -0.4487  0.1820 -0.6303
  135MOL    C5140519   1.583   1.346   5.392  0.2108 -0.0758 -0.3122
  135MOL    C5240520   1.437   1.373   5.434  0.4267  0.4490  0.2702
  135MOL    C5340521   1.529   1.743   5.228  0.0678 -0.1280 -0.4281
  135MOL    H5440522   1.739   1.711   5.246  0.0953 -0.9943 -0.6305
  135MOL    H5540523   1.581   1.265   5.319  0.8604 -1.3941  1.1245
  135MOL    H5640524   1.653   1.322   5.471 -0.2076  1.0713  0.4242
  135MOL    H5740525   1.402   1.294   5.501 -0.3185  0.5135 -0.0379
  135MOL    H5840526   1.421   1.465   5.489  0.2718  0.2680  0.5340
  135MOL    H5940527   1.374   1.378   5.345  1.0502  1.1751 -0.1312
  135MOL    H6040528   1.514   1.655   5.166  0.7394 -0.3707 -0.2417
  135MOL    H6140529   1.444   1.752   5.296  0.4172  3.1823 -0.3072
  135MOL    C6240530   1.544   1.861   5.126 -0.4320  0.4202  0.9089
  135MOL    O6340531   1.650   1.836   5.034  0.3142 -0.1811  0.2556
  135MOL    C6440532   1.744   1.927   4.994  0.2713  0.0546  0.3506
  135MOL    O6540533   1.765   2.042   5.032 -0.4228  0.0666 -0.0742
  135MOL    C6640534   1.848   1.866   4.890  0.3720  0.0774 -0.3364
  135MOL    C6740535   1.814   1.911   4.750  0.1896 -0.8305  0.2813
  135MOL    C6840536   1.416   1.867   5.028 -0.5141 -0.9329  0.4868
  135MOL    H6940537   1.556   1.955   5.179  0.2020  0.1544  1.2425
  135MOL    H7040538   1.947   1.907   4.910 -0.4875  0.9860  2.3382
  135MOL    H7140539   1.846   1.757   4.897 -2.4331  0.0990 -0.4579
  135MOL    H7240540   1.893   1.912   4.675  2.2458  1.2445  2.3962
  135MOL    H7340541   1.727   1.857   4.713 -1.4032 -0.3593  3.1826
  135MOL    H7440542   1.787   2.017   4.750  2.4179 -0.2364 -0.1895
  135MOL    H7540543   1.447   1.932   4.947 -0.4322  0.0686  1.3105
  135MOL    H7640544   1.392   1.764   5.001 -1.1285 -0.9370  1.0219
  135MOL    C7740545   1.297   1.936   5.096  0.1657  0.3000 -0.4187
  135MOL    O7840546   1.233   1.845   5.192 -0.5168 -0.1510 -0.0528
  135MOL    C7940547   1.136   1.764   5.146  0.0402  0.5507  0.3552
  135MOL    O8040548   1.086   1.743   5.037  0.0493  0.6113  0.5293
  135MOL    C8140549   1.096   1.679   5.263  0.0529 -0.5155  0.8699
  135MOL    C8240550   1.200   1.570   5.294  0.3681 -0.0326  0.1241
  135MOL    C8340551   1.334   2.068   5.166 -0.1175  0.2335 -0.2811
  135MOL    H8440552   1.222   1.961   5.020  1.2863  0.5519 -1.4758
  135MOL    H8540553   1.066   1.740   5.347 -2.3117 -0.0490 -0.2838
  135MOL    H8640554   1.015   1.612   5.234 -2.1349  0.7405  3.8121
  135MOL    H8740555   1.166   1.506   5.375  1.2613 -2.0420 -1.0563
  135MOL    H8840556   1.234   1.510   5.209  0.3183 -2.3334  1.6875
  135MOL    H8940557   1.298   1.612   5.318  0.5084  0.5148 -1.3731
  135MOL    H9040558   1.393   2.039   5.253  0.0650  0.2591 -0.3953
  135MOL    H9140559   1.408   2.122   5.107 -3.1374  1.2868 -3.2510
  135MOL    C9240560   1.224   2.161   5.226 -0.7304  0.2408  0.0919
  135MOL    O9340561   1.292   2.279   5.274 -0.3582 -0.2806 -0.2563
  135MOL    C9440562   1.331   2.291   5.405 -0.6538  0.2631 -0.0029
  135MOL    O9540563   1.299   2.209   5.488  0.4364  0.2751  0.2306
  135MOL    C9640564   1.415   2.414   5.433  0.2037 -0.5949 -0.3253
  135MOL    C9740565   1.440   2.441   5.583  0.0041 -0.1093 -0.2039
  135MOL    C9840566   1.113   2.197   5.127  0.3267  0.3081 -0.0944
  135MOL    H9940567   1.175   2.100   5.302 -0.7887 -0.9510 -0.8736
  135MOL   H10040568   1.512   2.414   5.383  1.1754 -0.6679  1.5089
  135MOL   H10140569   1.362   2.502   5.399  1.0735 -0.1607 -0.5621
  135MOL   H10240570   1.524   2.510   5.594 -0.2636  0.1117  0.4629
  135MOL   H10340571   1.361   2.483   5.644  0.5065 -2.1264  1.9328
  135MOL   H10440572   1.473   2.354   5.640 -0.7511  0.0283  0.4390
  135MOL   H10540573   1.058   2.106   5.105  0.2968 -0.2420  2.1914
  135MOL   H10640574   1.028   2.246   5.174  0.5409  0.0032  0.6024
  135MOL   C10740575   1.151   2.263   4.991 -0.2218  0.1325  0.0772
  135MOL   O10840576   1.292   2.249   4.961 -0.1056  0.7039  0.3469
  135MOL   C10940577   1.358   2.352   4.913 -0.5828 -0.7014 -0.0107
  135MOL   O11040578   1.310   2.465   4.886  0.1514 -0.2581 -0.3495
  135MOL   C11140579   1.505   2.309   4.887  0.0998  0.2861 -0.4304
  135MOL   C11240580   1.582   2.323   5.022  0.2645  0.3821  0.7536
  135MOL   C11340581   1.082   2.202   4.872  0.3925 -0.4599 -0.0933
  135MOL   H11440582   1.132   2.369   5.006  2.3940  0.7232 -0.6059
  135MOL   H11540583   1.488   2.206   4.856  2.8636 -1.1464  2.4705
  135MOL   H11640584   1.548   2.365   4.804 -1.3845  1.0477 -0.6875
  135MOL   H11740585   1.522   2.341   5.112 -0.1794 -0.1164  0.5561
  135MOL   H11840586   1.636   2.230   5.037 -2.3656 -1.2909  0.1458
  135MOL   H11940587   1.657   2.402   5.014 -0.0447  0.5973 -0.0496
  135MOL   H12040588   1.101   2.254   4.778 -1.4257  2.8525  1.2803
  135MOL   H12140589   1.105   2.096   4.860 -0.8436 -0.5810 -1.4794
  135MOL   C12240590   0.930   2.215   4.874  0.1496 -1.0136 -0.1746
  135MOL   O12340591   0.887   2.345   4.823  0.2698 -0.4733  0.1957
  135MOL   C12440592   0.860   2.444   4.917 -0.0429  0.5413  0.2501
  135MOL   O12540593   0.863   2.433   5.040  0.1210 -0.7117 -0.1268
  135MOL   C12640594   0.834   2.579   4.853 -0.1272  0.5765  0.7742
  135MOL   C12740595   0.772   2.682   4.947  0.1096 -0.1001  0.2514
  135MOL   C12840596   0.856   2.122   4.783  0.7327  0.3805 -0.5773
  135MOL   H12940597   0.900   2.200   4.978  0.2251  1.1070  0.1715
  135MOL   H13040598   0.933   2.607   4.818 -0.5988 -0.0021 -1.1116
  135MOL   H13140599   0.792   2.558   4.755 -0.2794 -3.0997  1.5667
  135MOL   H13240600   0.680   2.629   4.970  0.1033 -1.0469 -1.8594
  135MOL   H13340601   0.834   2.699   5.034 -0.6932  0.8066  0.6581
  135MOL   H13440602   0.749   2.776   4.895 -0.0386 -1.3752 -2.0709
  135MOL   H13540603   0.753   2.158   4.772  0.9497  1.1750  0.0312
  135MOL   H13640604   0.899   2.113   4.683  1.2107 -2.4122 -0.1660
  135MOL   C13740605   0.835   1.976   4.836 -0.4464 -0.8540 -0.3426
  135MOL   O13840606   0.734   1.985   4.931 -0.1145  0.0776 -0.5221
  135MOL   C13940607   0.754   1.943   5.060 -0.4507  0.6574  0.4714
  135MOL   O14040608   0.859   1.915   5.108  0.0428 -0.3966 -0.1407
  135MOL   C14140609   0.619   1.932   5.139  0.4344 -0.4036  0.1775
  135MOL   C14240610   0.565   2.067   5.175 -0.6296 -1.2170  0.3321
  135MOL   C14340611   0.829   1.863   4.732  0.1003  0.4835  0.0622
  135MOL   H14440612   0.917   1.955   4.905 -1.3999 -1.3542  0.6449
  135MOL   H14540613   0.544   1.880   5.080  1.3568 -0.4808 -0.9379
  135MOL   H14640614   0.626   1.868   5.227  1.7022  0.4422  0.7111
  135MOL   H14740615   0.641   2.141   5.149 -1.6586 -0.1907  0.2410
  135MOL   H14840616   0.470   2.086   5.125 -1.3337 -1.2985  1.6271
  135MOL   H14940617   0.543   2.079   5.281  1.6131 -0.6778  0.7561
  135MOL   H15040618   0.886   1.901   4.647  0.6059  1.4441  0.8145
  135MOL   H15140619   0.877   1.773   4.771 -1.4461 -1.0602 -1.5259
  135MOL   C15240620   0.690   1.832   4.659  0.2541  0.3215  0.3462
  135MOL   O15340621   0.730   1.784   4.534 -0.1576 -0.5788 -0.0874
  135MOL   C15440622   0.658   1.817   4.418 -0.0065  0.5489  0.1825
  135MOL   O15540623   0.554   1.887   4.413  0.7763 -0.2338  0.4227
  135MOL   C15640624   0.723   1.760   4.291  0.0471  0.0246  0.2106
  135MOL   C15740625   0.750   1.611   4.308 -0.0362  0.4948 -0.3233
  135MOL   C15840626   0.613   1.723   4.739  0.2964 -0.9463 -0.2527
  135MOL   H15940627   0.626   1.921   4.652 -2.6583 -1.6178  1.6109
  135MOL   H16040628   0.642   1.770   4.219  1.9278 -1.0366 -2.1412
  135MOL   H16140629   0.806   1.823   4.260  1.7931 -2.4836 -0.3874
  135MOL   H16240630   0.748   1.561   4.211 -0.5803 -2.4552  1.1695
  135MOL   H16340631   0.840   1.572   4.356 -0.0770  1.6559  0.7171
  135MOL   H16440632   0.657   1.571   4.348 -1.1815  2.0719 -1.3326
  135MOL   H16540633   0.666   1.628   4.747  2.1352  0.1699  1.3227
  135MOL   H16640634   0.601   1.760   4.841 -0.2431 -2.6235  0.3062
  135MOL   C16740635   0.469   1.696   4.676 -0.8028  0.1572 -0.1040
  135MOL   O16840636   0.411   1.584   4.731  0.2910 -0.4727 -0.3409
  135MOL   C16940637   0.428   1.463   4.683 -0.8419  0.0331  0.6418
  135MOL   O17040638   0.522   1.437   4.610 -0.2255 -0.2331 -0.4294
  135MOL   C17140639   0.341   1.359   4.745  0.7546 -0.2270 -0.5898
  135MOL   C17240640   0.397   1.293   4.870  0.3211 -0.5197  0.1448
  135MOL   C17340641   0.374   1.814   4.682 -0.1777  0.2263  0.1567
  135MOL   H17440642   0.490   1.672   4.572  0.4956 -0.7736  0.3585
  135MOL   H17540643   0.241   1.395   4.768  1.4053  1.2640  0.0045
  135MOL   H17640644   0.337   1.278   4.673  2.3986  0.1909 -1.1777
  135MOL   H17740645   0.372   1.346   4.962 -0.1454  0.5661 -0.5935
  135MOL   H17840646   0.364   1.190   4.875  0.5585 -0.5408  1.3338
  135MOL   H17940647   0.506   1.293   4.876  0.4216  0.0678 -1.3249
  135MOL   H18040648   0.355   1.828   4.789 -0.2492  2.7903 -0.1625
  135MOL   H18140649   0.424   1.901   4.641 -1.0570  0.7387  0.1574
  135MOL   C18240650   0.246   1.792   4.594  0.2642 -0.2337 -0.3423
  135MOL   O18340651   0.140   1.729   4.664 -0.4639 -0.6400  0.5887
  135MOL   C18440652   0.070   1.644   4.590 -0.7000  0.5492 -0.4444
  135MOL   O18540653   0.082   1.634   4.467 -0.3075 -0.3253  0.3676
  135MOL   C18640654   7.906   1.565   4.668 -0.2074 -0.7058 -0.3765
  135MOL   C18740655   7.894   1.423   4.613  0.0678 -0.5445 -0.7179
  135MOL   C18840656   0.202   1.924   4.528 -1.1070  0.3828 -0.1037
  135MOL   H18940657   0.285   1.726   4.517 -1.9277 -0.8252 -0.9966
  135MOL   H19040658   7.921   1.553   4.775 -0.0929  2.2715 -0.0213
  135MOL   H19140659   7.817   1.627   4.660 -0.0708 -0.4068  0.4373
  135MOL   H19240660   0.041   1.370   4.638  1.4079  1.6829 -0.7778
  135MOL   H19340661   7.809   1.379   4.666 -0.3717  2.3459  1.0346
  135MOL   H19440662   7.874   1.418   4.506 -0.8613  0.8198 -0.6116
  135MOL   H19540663   0.291   1.968   4.484 -0.5802 -1.7398 -1.2305
  135MOL   H19640664   0.141   1.896   4.441  0.5114 -1.2586 -0.7473
  135MOL   C19740665   0.136   2.018   4.633  0.3193 -1.0199 -0.3888
  135MOL   O19840666   0.236   2.120   4.657 -0.5305  0.1420  0.1452
  135MOL   C19940667   0.270   2.147   4.796  0.0557 -0.1252 -0.1049
  135MOL   O20040668   0.227   2.088   4.893  0.0688  0.3964  0.0328
  135MOL   C20140669   0.359   2.266   4.802 -0.8119 -0.4679  0.5600
  135MOL   C20240670   0.508   2.226   4.807 -0.5202  0.6115 -0.1615
  135MOL   C20340671   0.009   2.086   4.573  0.3811  0.9014  0.4296
  135MOL   H20440672   0.100   1.973   4.725  2.9768 -0.2586  1.0856
  135MOL   H20540673   0.341   2.340   4.723  0.2998  0.8264  1.4848
  135MOL   H20640674   0.334   2.318   4.894 -1.3463 -0.6892  0.5372
  135MOL   H20740675   0.562   2.318   4.830  0.2726  0.7372 -2.4733
  135MOL   H20840676   0.525   2.149   4.883 -1.6322 -0.8697 -1.3937
  135MOL   H20940677   0.537   2.167   4.721 -3.3845  2.1864 -2.2798
  135MOL   H21040678   7.940   2.169   4.642  1.4226 -1.8606  4.0943
  135MOL   H21140679   0.030   2.115   4.470 -1.1842 -4.6298 -1.6243
  135MOL   C21240680   7.828   1.994   4.576  0.1770  0.2627  0.2201
  135MOL   O21340681   7.804   1.957   4.711  0.3420 -0.2876 -0.5070
  135MOL   C21440682   7.701   1.871   4.740 -0.7239  0.2555 -0.0325
  135MOL   O21540683   7.632   1.811   4.662 -0.1900 -0.1721  0.0889
  135MOL   C21640684   7.696   1.849   4.895  0.5082  0.0224 -0.1346
  135MOL   C21740685   7.646   1.703   4.929  0.2723 -0.5839  0.2588
  135MOL   C21840686   7.705   2.064   4.509  0.7024 -0.0769  0.3969
  135MOL   H21940687   7.842   1.902   4.520  0.0747  1.7030 -2.2590
  135MOL   H22040688   7.795   1.872   4.932  0.4110 -0.1163  0.2162
  135MOL   H22140689   7.631   1.931   4.925 -0.1701 -0.5215 -0.0776
  135MOL   H22240690   7.656   1.686   5.037 -0.1881 -2.5332  0.0068
  135MOL   H22340691   7.544   1.685   4.898 -0.8194  1.8764  2.2195
  135MOL   H22440692   7.715   1.635   4.879 -0.2847 -0.6419 -0.4247
  135MOL   H22540693   7.615   2.003   4.512  0.6652 -0.0696 -0.3569
  135MOL   H22640694   7.698   2.167   4.543  1.4739 -1.0400  3.6108
  135MOL   C22740695   7.724   2.087   4.358  0.2392  0.4854 -0.6001
  135MOL   O22840696   7.716   1.960   4.298  0.4192 -0.2129 -0.0257
  135MOL   C22940697   7.817   1.909   4.223  0.3575 -0.3723  0.4760
  135MOL   O23040698   7.926   1.968   4.198  0.2536 -0.1448 -0.1052
  135MOL   C23140699   7.791   1.757   4.197 -0.5430 -0.1035  0.4893
  135MOL   C23240700   7.920   1.680   4.174 -0.5634  0.1989 -0.0841
  135MOL   C23340701   7.618   2.182   4.299 -0.3756 -0.4679 -0.1611
  135MOL   H23440702   7.824   2.127   4.341  0.2786  0.0053 -1.5360
  135MOL   H23540703   7.747   1.719   4.289  1.0820  0.2833  1.4313
  135MOL   H23640704   7.721   1.740   4.114 -0.0673 -0.6654  0.2003
  135MOL   H23740705   7.911   1.571   4.184 -0.8152  0.1561 -0.7416
  135MOL   H23840706   0.014   1.695   4.073  0.5995  0.4081  0.3956
  135MOL   H23940707   0.058   1.702   4.240  0.5075  0.7341 -1.5781
  135MOL   H24040708   7.598   2.164   4.193 -1.2282  1.3374 -0.3147
  135MOL   H24140709   7.528   2.160   4.356  0.7964 -1.0610  1.5078
  135MOL   C24240710   7.658   2.332   4.303 -0.3546 -0.2310  0.0346
  135MOL   O24340711   7.777   2.356   4.227  0.2039  0.2303 -0.3655
  135MOL   C24440712   7.895   2.389   4.282  0.5037  0.3733 -0.6952
  135MOL   O24540713   7.917   2.403   4.400  0.5323  0.7211  0.0463
  135MOL   C24640714   0.060   2.408   4.180 -0.3352 -0.0177 -0.8353
  135MOL   C24740715   0.153   2.290   4.168  0.1935  0.6704 -0.3401
  135MOL   C24840716   7.542   2.427   4.245 -0.7942 -0.1660 -0.5554
  135MOL   H24940717   7.665   2.354   4.410 -0.0552 -0.2969  0.0282
  135MOL   H25040718   0.021   2.429   4.080  1.6333  1.1152 -1.4107
  135MOL   H25140719   0.119   2.497   4.204  0.8341 -0.8397 -0.6175
  135MOL   H25240720   0.239   2.305   4.233  0.5022  1.0325 -0.8283
  135MOL   H25340721   0.099   2.196   4.182 -0.9319  0.9775 -2.4624
  135MOL   H25440722   0.195   2.286   4.068  0.8098  3.2988 -0.2299
  135MOL   H25540723   7.546   2.405   4.138 -0.4701  0.9846 -0.7915
  135MOL   H25640724   7.444   2.389   4.274 -0.6016 -0.5356 -0.3923
  135MOL   C25740725   7.565   2.579   4.266 -0.3428 -0.5496 -0.2957
  135MOL   O25840726   7.470   2.641   4.175 -0.5942  0.1166  0.7332
  135MOL   C25940727   7.529   2.681   4.059 -0.2626  0.4132  0.6863
  135MOL   O26040728   7.647   2.692   4.032  0.1142 -0.0916 -0.5284
  135MOL   C26140729   7.416   2.705   3.953  0.2782  0.9381 -1.2650
  135MOL   C26240730   7.350   2.575   3.904 -0.4801  0.8694  0.5504
  135MOL   C26340731   7.534   2.633   4.404  0.3566  0.0030 -0.4979
  135MOL   H26440732   7.664   2.612   4.238 -0.9022  1.6124  0.1773
  135MOL   H26540733   7.344   2.775   3.996  1.2501  2.2059 -1.6724
  135MOL   H26640734   7.457   2.747   3.861  0.7575  1.8701 -0.6263
  135MOL   H26740735   7.300   2.542   3.995 -1.7480 -1.9189 -1.0957
  135MOL   H26840736   7.275   2.598   3.828 -0.9868  0.1702  0.8349
  135MOL   H26940737   7.424   2.509   3.858 -0.3018  0.4170  1.4818
  135MOL   H27040738   7.433   2.605   4.433  0.2525 -1.0010 -1.7607
  135MOL   H27140739   7.601   2.579   4.472 -1.7185 -1.7232  0.2310
  135MOL   C27240740   7.557   2.782   4.430  0.5743  0.0645  0.0453
  135MOL   O27340741   7.438   2.843   4.365 -0.4538 -0.3105 -0.3742
  135MOL   C27440742   7.446   2.953   4.288 -0.4267 -0.3305 -0.5656
  135MOL   O27540743   7.551   3.014   4.267  0.0150 -0.0599 -0.4904
  135MOL   C27640744   7.319   2.985   4.216  0.7835  0.3704 -0.4130
  135MOL   C27740745   7.207   2.992   4.323  0.0748  0.1839 -0.2880
  135MOL   C27840746   7.543   2.824   4.577  0.3000 -0.4344 -0.2797
  135MOL   H27940747   7.657   2.804   4.394  0.3179 -1.7471 -1.8886
  135MOL   H28040748   7.332   3.078   4.160  0.0657  0.1629 -0.9296
  135MOL   H28140749   7.292   2.909   4.143  0.6877  1.2739 -1.3289
  135MOL   H28240750   7.181   2.902   4.380  0.4796  0.7081  0.7339
  135MOL   H28340751   7.249   3.063   4.394 -1.2899  1.4655 -0.7461
  135MOL   H28440752   7.115   3.032   4.282 -0.0280  0.6082  0.3547
  135MOL   H28540753   7.582   2.924   4.594  0.1940 -0.3984 -0.2500
  135MOL   H28640754   7.436   2.829   4.600  1.0818  1.0269  3.3395
  135MOL   C28740755   7.614   2.732   4.684 -0.7230  0.2424  0.2986
  135MOL   O28840756   7.751   2.724   4.653 -0.1559  0.1602  0.2130
  135MOL   C28940757   7.816   2.607   4.671  0.5449 -0.4544 -0.3093
  135MOL   O29040758   7.765   2.494   4.679 -0.4444 -0.3629  0.1772
  135MOL   C29140759   0.021   2.620   4.677 -0.7491  0.4102  0.1326
  135MOL   C29240760   0.074   2.693   4.554 -0.2746 -0.5547  0.7033
  135MOL   C29340761   7.592   2.800   4.821  0.1906  0.1019  0.4905
  135MOL   H29440762   7.576   2.630   4.683 -2.5252  0.8890  0.5449
  135MOL   H29540763   0.042   2.675   4.769  0.8710  0.9945 -0.5666
  135MOL   H29640764   0.064   2.520   4.673  0.9175  1.0780  1.1371
  135MOL   H29740765   0.032   2.659   4.459 -2.2945 -1.1447  1.7877
  135MOL   H29840766   0.059   2.801   4.552  0.7042 -0.3937  1.6370
  135MOL   H29940767   0.183   2.684   4.551 -0.2953 -0.8864  0.9885
  135MOL   H30040768   7.656   2.779   4.906  0.5523 -3.2842 -0.5301
  135MOL   H30140769   7.599   2.907   4.805  0.7382 -0.3777 -2.9174
  135MOL   H30240770   7.490   2.781   4.855 -0.0743 -0.3276 -0.4957
  136MOL     C140771   7.726   5.975   5.173  0.5847  0.1433  0.0411
  136MOL     O240772   7.701   5.907   5.051 -0.2346 -0.0300 -0.1621
  136MOL     C340773   7.810   5.844   4.991 -0.3123 -0.3540  0.3501
  136MOL     O440774   7.931   5.862   5.011  0.3032 -0.2464 -0.3771
  136MOL     C540775   7.768   5.750   4.874 -0.5503  0.8236 -0.3388
  136MOL     C640776   7.882   5.707   4.785 -0.3490  0.0664 -0.4291
  136MOL     C740777   7.746   6.130   5.145  0.1511  0.0146 -0.1650
  136MOL     H840778   7.818   5.931   5.214  1.5219  0.3440 -1.7657
  136MOL     H940779   7.725   5.663   4.923  0.4947  0.5381  0.0699
  136MOL    H1040780   7.699   5.806   4.811  0.6599  0.6867 -1.8173
  136MOL    H1140781   7.857   5.630   4.713  1.8547 -1.4903  0.4234
  136MOL    H1240782   7.921   5.792   4.728  0.4656 -1.3605 -2.0239
  136MOL    H1340783   0.029   5.679   4.837 -0.0238 -1.0463 -1.5934
  136MOL    H1440784   7.827   6.168   5.207  0.9091 -0.7506 -0.6717
  136MOL    H1540785   7.772   6.134   5.039 -2.0807 -1.1887 -0.7882
  136MOL    H1640786   7.640   5.969   5.239  1.1307  0.4036  0.7865
  136MOL    C1740787   7.612   6.200   5.153  0.6872  0.1831  0.1559
  136MOL    O1840788   7.588   6.222   5.293  0.2845  0.1891 -0.0145
  136MOL    C1940789   7.477   6.194   5.355 -0.3191 -0.3449 -0.1007
  136MOL    O2040790   7.388   6.128   5.312 -0.4101  0.0323 -0.0246
  136MOL    C2140791   7.475   6.245   5.495  0.5250 -0.2580 -0.5335
  136MOL    C2240792   7.333   6.273   5.537 -0.2944 -0.7105  0.2733
  136MOL    C2340793   7.610   6.333   5.067 -0.4919 -0.7035  0.3226
  136MOL    H2440794   7.538   6.130   5.113  1.5077 -1.7890  2.0569
  136MOL    H2540795   7.511   6.173   5.569 -1.7758 -0.5193  0.3890
  136MOL    H2640796   7.540   6.332   5.490  0.7568 -0.3031  1.2313
  136MOL    H2740797   7.276   6.186   5.572 -1.2983 -0.0712  0.2374
  136MOL    H2840798   7.345   6.355   5.608  0.6547  2.0105 -2.9434
  136MOL    H2940799   7.277   6.311   5.452 -0.7577 -1.0101  0.4437
  136MOL    H3040800   7.517   6.384   5.091 -1.4389 -1.5576 -1.4039
  136MOL    H3140801   7.701   6.387   5.094 -0.4618 -0.5620 -0.0523
  136MOL    C3240802   7.605   6.313   4.915  0.1677 -0.4591 -0.8609
  136MOL    O3340803   7.483   6.259   4.867 -0.4263 -0.1240  0.0654
  136MOL    C3440804   7.471   6.127   4.845 -0.9304  0.6944  0.0538
  136MOL    O3540805   7.560   6.048   4.829  0.2721  0.3318 -0.2717
  136MOL    C3640806   7.321   6.085   4.847 -0.0051  0.4813  0.3437
  136MOL    C3740807   7.290   6.020   4.987  0.9220  0.5570 -0.1227
  136MOL    C3840808   7.644   6.446   4.836 -0.7878 -0.2881  1.0183
  136MOL    H3940809   7.680   6.243   4.879  0.5256 -0.0581 -0.8905
  136MOL    H4040810   7.266   6.178   4.829 -0.3009  0.2323 -0.0344
  136MOL    H4140811   7.302   6.019   4.763  0.4078 -0.6201  1.1105
  136MOL    H4240812   7.318   6.080   5.075  0.4353  1.6113 -0.6769
  136MOL    H4340813   7.183   6.004   4.995  0.9516 -0.4400 -1.6427
  136MOL    H4440814   7.345   5.927   5.001  0.0612  0.1712  0.7425
  136MOL    H4540815   7.607   6.418   4.738 -1.3545  0.8406  0.9044
  136MOL    H4640816   7.573   6.527   4.856  0.3564  0.6575  1.3796
  136MOL    C4740817   7.793   6.494   4.837  0.5067 -0.5427  0.1653
  136MOL    O4840818   7.899   6.416   4.772 -0.1025  0.1905 -0.7851
  136MOL    C4940819   0.017   6.321   4.836 -0.2474  0.2680 -0.0043
  136MOL    O5040820   0.009   6.304   4.958 -0.5102 -0.9084  0.1899
  136MOL    C5140821   0.103   6.226   4.753 -0.2650 -0.5699 -0.0411
  136MOL    C5240822   0.052   6.084   4.760  0.4542  0.6507  0.5701
  136MOL    C5340823   7.803   6.634   4.776 -0.7924  0.1577  0.2642
  136MOL    H5440824   7.808   6.508   4.944  1.6137 -0.3999  0.0025
  136MOL    H5540825   0.103   6.271   4.654 -2.1289 -1.0261 -0.2734
  136MOL    H5640826   0.204   6.223   4.793 -0.1174 -3.1924 -0.5086
  136MOL    H5740827   7.932   6.059   4.845  0.8059 -1.8954  0.1337
  136MOL    H5840828   7.937   6.049   4.676  1.6498 -1.7617  0.6895
  136MOL    H5940829   0.127   6.006   4.757 -1.0038 -0.7846  0.4532
  136MOL    H6040830   7.846   6.633   4.676  0.7622 -3.4992  0.9148
  136MOL    H6140831   7.699   6.668   4.771 -1.0602 -0.7718 -0.8718
  136MOL    C6240832   7.886   6.735   4.864  0.1891 -0.2796  0.2524
  136MOL    O6340833   0.073   6.690   4.839  0.1665  0.0641  0.0698
  136MOL    C6440834   0.162   6.681   4.941  0.7388 -0.8272  0.3850
  136MOL    O6540835   0.141   6.708   5.063 -0.7910  0.0598 -0.0122
  136MOL    C6640836   0.301   6.645   4.900 -0.4836 -0.8457  0.0574
  136MOL    C6740837   0.403   6.753   4.952  0.0530 -0.3606  0.3936
  136MOL    C6840838   7.859   6.879   4.818 -0.6399  0.0616  0.7024
  136MOL    H6940839   7.863   6.729   4.970  3.0111 -1.2412  0.8629
  136MOL    H7040840   0.314   6.542   4.931  0.5667 -0.6845  0.1917
  136MOL    H7140841   0.316   6.641   4.792  0.8915 -0.8637  0.2366
  136MOL    H7240842   0.383   6.851   4.909 -0.4800 -1.6323 -2.3236
  136MOL    H7340843   0.392   6.764   5.060 -0.9574  2.7736  0.0167
  136MOL    H7440844   0.508   6.725   4.947  0.6384  1.8348 -0.1644
  136MOL    H7540845   7.917   6.946   4.881  0.8329  0.8995 -1.4997
  136MOL    H7640846   7.902   6.896   4.720  1.8025  2.8105  2.1603
  136MOL    C7740847   7.716   6.938   4.832 -0.8546 -0.0965  0.9690
  136MOL    O7840848   7.690   6.951   4.970 -0.0340 -0.1961  0.7799
  136MOL    C7940849   7.638   6.843   5.034  0.2409 -0.2601 -0.0973
  136MOL    O8040850   7.601   6.739   4.981 -0.2506 -0.1215 -0.1075
  136MOL    C8140851   7.630   6.872   5.180 -0.4454  0.7447 -1.0876
  136MOL    C8240852   7.666   6.757   5.268 -0.3124 -0.0722  0.0129
  136MOL    C8340853   7.699   7.070   4.748  0.0375  0.8565 -1.0554
  136MOL    H8440854   7.644   6.874   4.781 -0.9565 -0.6444  1.8096
  136MOL    H8540855   7.708   6.947   5.191  0.1203 -0.0522  0.4455
  136MOL    H8640856   7.533   6.910   5.213 -1.9352 -3.7531  0.0732
  136MOL    H8740857   7.750   6.711   5.216 -0.7216  0.6033 -1.2700
  136MOL    H8840858   7.710   6.779   5.366 -1.7542  0.7192  0.4967
  136MOL    H8940859   7.577   6.696   5.278 -1.5189  1.7578  0.8344
  136MOL    H9040860   7.769   7.140   4.793  0.9380 -0.7464  0.0799
  136MOL    H9140861   7.733   7.054   4.645  0.2231 -0.1248 -0.8497
  136MOL    C9240862   7.551   7.117   4.752  0.0426 -0.5750  0.1682
  136MOL    O9340863   7.538   7.198   4.870  0.7196 -0.1960  0.2534
  136MOL    C9440864   7.427   7.180   4.945 -0.1208  0.7689  0.2342
  136MOL    O9540865   7.341   7.106   4.913 -0.1654  0.6622  0.5636
  136MOL    C9640866   7.424   7.261   5.075  0.8983  0.5736  0.6240
  136MOL    C9740867   7.536   7.228   5.172  0.2765 -0.1478 -0.3981
  136MOL    C9840868   7.510   7.194   4.622  0.2581  0.1694  0.2913
  136MOL    H9940869   7.485   7.030   4.754 -0.4293 -0.1968  2.9000
  136MOL   H10040870   7.423   7.367   5.048 -1.7068  0.6275  0.8165
  136MOL   H10140871   7.333   7.239   5.131  0.9972 -1.4137  0.0351
  136MOL   H10240872   7.544   7.317   5.234 -1.3722 -0.2042 -0.0976
  136MOL   H10340873   7.504   7.146   5.237 -1.0291  0.4047 -0.3331
  136MOL   H10440874   7.630   7.199   5.124  0.7499  0.9966 -0.1713
  136MOL   H10540875   7.556   7.293   4.617 -0.6499  0.6200  0.5362
  136MOL   H10640876   7.536   7.145   4.529 -1.8065  2.1149 -1.3747
  136MOL   C10740877   7.361   7.215   4.615 -0.0943  0.0833  0.0132
  136MOL   O10840878   7.344   7.306   4.510  0.0350 -0.4534 -0.1966
  136MOL   C10940879   7.245   7.406   4.502 -0.1081  0.1348  0.0698
  136MOL   O11040880   7.140   7.411   4.567 -0.0586 -0.2126  0.1629
  136MOL   C11140881   7.283   7.505   4.400 -0.8862 -0.0664  0.1137
  136MOL   C11240882   7.206   7.635   4.396  0.0659  0.2111 -0.1754
  136MOL   C11340883   7.272   7.080   4.611  0.7423 -0.5440  0.0902
  136MOL   H11440884   7.321   7.271   4.699 -0.8341  1.0478 -0.9687
  136MOL   H11540885   7.391   7.515   4.411 -0.9537  3.9818 -1.8079
  136MOL   H11640886   7.275   7.454   4.303 -1.0389 -0.7070  0.4618
  136MOL   H11740887   7.191   7.666   4.499 -1.0828  1.0403 -0.5826
  136MOL   H11840888   7.266   7.713   4.350  0.1756  0.3145  0.1429
  136MOL   H11940889   7.110   7.635   4.343 -0.1084  1.2502  0.1338
  136MOL   H12040890   7.259   7.032   4.708 -3.3536  2.8785  1.3936
  136MOL   H12140891   7.170   7.107   4.585  0.7533  0.0817  0.6867
  136MOL   C12240892   7.334   6.971   4.514 -0.3980 -0.2507 -0.3586
  136MOL   O12340893   7.270   6.844   4.529  0.1909 -0.1365  0.1948
  136MOL   C12440894   7.329   6.751   4.606 -0.2338  0.3149  0.5996
  136MOL   O12540895   7.434   6.762   4.667  0.7041 -0.5386 -0.1295
  136MOL   C12640896   7.251   6.616   4.612 -0.0532 -0.0677  0.1253
  136MOL   C12740897   7.273   6.523   4.740 -0.3910 -0.2972 -0.6531
  136MOL   C12840898   7.319   7.011   4.368 -0.2259  0.5721  0.4107
  136MOL   H12940899   7.439   6.955   4.539 -0.6420 -0.6209  0.4439
  136MOL   H13040900   7.144   6.636   4.607  0.0613  0.5351  0.1230
  136MOL   H13140901   7.286   6.560   4.525  1.9410 -0.7115  1.2955
  136MOL   H13240902   7.381   6.505   4.744 -0.6792 -2.1411 -0.7627
  136MOL   H13340903   7.237   6.569   4.831  1.7291  0.8833 -0.3809
  136MOL   H13440904   7.228   6.428   4.714  0.4115 -1.4422  1.9855
  136MOL   H13540905   7.229   6.967   4.323  0.1276 -1.1343  1.3156
  136MOL   H13640906   7.293   7.116   4.357  0.6203  0.5264 -2.1811
  136MOL   C13740907   7.447   6.975   4.282  0.9349 -0.3042 -0.6929
  136MOL   O13840908   7.479   6.836   4.309  0.0252 -0.0055 -0.2913
  136MOL   C13940909   7.599   6.800   4.351  0.6210 -0.2010  0.1254
  136MOL   O14040910   7.683   6.875   4.397 -0.0404  0.1477  0.1713
  136MOL   C14140911   7.622   6.653   4.327  0.0692 -0.6061 -0.1821
  136MOL   C14240912   7.589   6.568   4.449 -0.4366 -0.1033  0.6377
  136MOL   C14340913   7.435   6.984   4.129  0.2853  0.5027 -0.6233
  136MOL   H14440914   7.526   7.039   4.321  0.1606  1.3485 -1.7901
  136MOL   H14540915   7.556   6.619   4.248  0.6016 -1.9264 -0.0865
  136MOL   H14640916   7.723   6.624   4.295  1.3028  2.7437  0.4614
  136MOL   H14740917   7.606   6.468   4.408 -0.7490  0.2671 -0.4224
  136MOL   H14840918   7.649   6.588   4.537 -0.4916  1.3169  0.3693
  136MOL   H14940919   7.484   6.585   4.473 -0.7048  1.7836 -1.7221
  136MOL   H15040920   7.516   6.925   4.086 -0.0071 -0.8879  0.6903
  136MOL   H15140921   7.348   6.937   4.083 -0.1361  0.7728 -0.1146
  136MOL   C15240922   7.435   7.138   4.089  0.3990 -0.0035 -1.0953
  136MOL   O15340923   7.565   7.179   4.103 -0.3991  0.6957  0.0910
  136MOL   C15440924   7.595   7.271   4.192  0.0904 -0.1046 -0.1174
  136MOL   O15540925   7.514   7.339   4.255  0.4074 -0.7291 -0.0485
  136MOL   C15640926   7.746   7.292   4.210 -0.3004 -0.4949  0.3274
  136MOL   C15740927   7.795   7.201   4.324  0.2418  0.7138  0.2358
  136MOL   C15840928   7.369   7.160   3.956  0.0598 -0.3392 -0.3772
  136MOL   H15940929   7.363   7.185   4.155 -1.5624 -1.7766 -1.9030
  136MOL   H16040930   7.797   7.256   4.120 -1.8464 -0.2346 -0.6874
  136MOL   H16140931   7.774   7.396   4.227 -2.7127 -0.1839  2.5910
  136MOL   H16240932   7.787   7.094   4.304  1.5990  1.0570 -2.4574
  136MOL   H16340933   7.898   7.225   4.350 -0.5324  2.3351  1.9103
  136MOL   H16440934   7.738   7.206   4.417 -1.2519 -1.7377 -0.4990
  136MOL   H16540935   7.436   7.144   3.871  2.8566  0.0361  1.6839
  136MOL   H16640936   7.303   7.076   3.940 -1.2244  0.2896  1.4205
  136MOL   C16740937   7.279   7.287   3.953  0.5815 -0.0758 -0.5053
  136MOL   O16840938   7.360   7.403   3.963  0.2456  0.4797 -0.0469
  136MOL   C16940939   7.314   7.516   4.024  1.3291 -0.4690  0.1987
  136MOL   O17040940   7.198   7.534   4.053  0.6986 -0.5948  0.5416
  136MOL   C17140941   7.419   7.619   4.049 -0.3334  0.1614 -0.2809
  136MOL   C17240942   7.414   7.742   3.953  0.0804 -0.7030  0.1705
  136MOL   C17340943   7.191   7.303   3.821  0.5498  0.9521  0.5482
  136MOL   H17440944   7.214   7.279   4.040  0.3823  0.1634 -0.6320
  136MOL   H17540945   7.393   7.661   4.146  0.4553 -0.0452  0.0224
  136MOL   H17640946   7.519   7.577   4.056  0.4701  1.7772 -1.5216
  136MOL   H17740947   7.464   7.827   3.998  0.0983  0.4603 -1.9558
  136MOL   H17840948   7.470   7.705   3.866  1.5514 -2.2044  1.6992
  136MOL   H17940949   7.314   7.770   3.921  0.5747 -1.1112 -1.8352
  136MOL   H18040950   7.165   7.407   3.801  1.1797  1.0008 -0.0501
  136MOL   H18140951   7.245   7.263   3.734  0.0853 -1.7280  1.4415
  136MOL   C18240952   7.058   7.218   3.839  0.5871 -0.6961 -0.6084
  136MOL   O18340953   6.996   7.280   3.955  0.3254  0.0467  0.0014
  136MOL   C18440954   6.954   7.200   4.058 -0.7859 -0.0522  0.7299
  136MOL   O18540955   6.955   7.079   4.058  0.4268  0.4586 -0.3882
  136MOL   C18640956   6.896   7.283   4.179 -0.0234  0.2336  0.1495
  136MOL   C18740957   6.990   7.272   4.300 -0.0513 -0.1974  0.1233
  136MOL   C18840958   6.963   7.216   3.717 -0.0139  0.3774  0.5633
  136MOL   H18940959   7.098   7.122   3.870 -0.8129 -0.8285  0.8037
  136MOL   H19040960   6.885   7.385   4.143 -1.7021 -0.7803 -2.4213
  136MOL   H19140961   6.799   7.236   4.195 -0.9385  0.5239 -3.8588
  136MOL   H19240962   7.022   7.177   4.342  0.7030  0.8607  1.9843
  136MOL   H19340963   7.077   7.335   4.282 -1.1665  1.4929  0.5958
  136MOL   H19440964   6.941   7.319   4.385 -0.5604  0.1343 -0.3541
  136MOL   H19540965   6.907   7.309   3.704 -1.7800 -0.7917 -0.1658
  136MOL   H19640966   7.021   7.190   3.628 -2.7988  1.4840 -1.6342
  136MOL   C19740967   6.847   7.108   3.740  0.4472  0.6733 -0.0536
  136MOL   O19840968   6.756   7.142   3.633 -0.4645 -0.4891 -0.1832
  136MOL   C19940969   6.641   7.198   3.659 -0.7192 -0.0849 -0.5945
  136MOL   O20040970   6.595   7.231   3.769 -0.2729 -0.1027  0.2505
  136MOL   C20140971   6.576   7.258   3.537  0.2487  0.1763  0.1170
  136MOL   C20240972   6.668   7.353   3.458  0.0956  0.5741 -0.4558
  136MOL   C20340973   6.889   6.964   3.739 -0.2552  0.5534 -0.2275
  136MOL   H20440974   6.809   7.132   3.839  0.3875 -1.9030  0.5890
  136MOL   H20540975   6.536   7.177   3.476 -1.7494  1.1793  0.0598
  136MOL   H20640976   6.484   7.304   3.574  0.4550  0.6234  0.0701
  136MOL   H20740977   6.616   7.384   3.368  0.5175  1.5223 -0.3799
  136MOL   H20840978   6.720   7.438   3.503  0.3982 -0.1152  0.5171
  136MOL   H20940979   6.754   7.295   3.425  0.5172  1.9533 -1.8320
  136MOL   H21040980   6.916   6.948   3.634  0.2061 -2.8839  0.3346
  136MOL   H21140981   6.974   6.963   3.807 -0.7948 -0.7216  0.4550
  136MOL   C21240982   6.788   6.857   3.784  0.0488  0.4337  0.9459
  136MOL   O21340983   6.672   6.867   3.700  0.0484 -0.6254 -0.4165
  136MOL   C21440984   6.550   6.818   3.740  0.6337 -0.3638  0.6724
  136MOL   O21540985   6.516   6.740   3.833 -0.0689 -0.6967  0.0910
  136MOL   C21640986   6.445   6.846   3.629 -0.4926 -0.1797  0.3328
  136MOL   C21740987   6.302   6.883   3.684  0.1530  0.1280 -0.3975
  136MOL   C21840988   6.847   6.707   3.770 -0.4910  0.3552  0.4008
  136MOL   H21940989   6.761   6.878   3.888 -1.8968 -1.1059  0.7858
  136MOL   H22040990   6.464   6.936   3.569 -2.8000  1.6244  2.2239
  136MOL   H22140991   6.444   6.767   3.554 -1.3065  0.0736  0.0676
  136MOL   H22240992   6.305   6.956   3.765  0.3174  0.1407 -0.4164
  136MOL   H22340993   6.230   6.921   3.612 -1.4186 -0.3379  0.8831
  136MOL   H22440994   6.265   6.794   3.736  1.5688 -0.7971 -0.9383
  136MOL   H22540995   6.779   6.632   3.809 -0.4255  0.0900  0.0113
  136MOL   H22640996   6.847   6.687   3.663 -1.3295  0.9674  0.2850
  136MOL   C22740997   6.994   6.688   3.821  0.0731  0.5052 -0.3641
  136MOL   O22840998   6.995   6.692   3.962  0.3883 -0.1759 -0.6062
  136MOL   C22940999   7.066   6.780   4.028 -0.2835 -0.1310 -1.3380
  136MOL   O23041000   7.128   6.878   3.977  0.6589 -0.4452  0.1202
  136MOL   C23141001   7.070   6.767   4.184 -1.0447  0.1580  0.4943
  136MOL   C23241002   7.164   6.657   4.228  0.0611 -0.0511 -1.2121
  136MOL   C23341003   7.050   6.540   3.781  0.5279  0.9917  0.1967
  136MOL   H23441004   7.070   6.755   3.780  2.6362 -2.3218 -0.4797
  136MOL   H23541005   7.100   6.867   4.217  0.7819  0.1644 -1.1297
  136MOL   H23641006   6.970   6.745   4.222 -1.4970  2.1655  0.5510
  136MOL   H23741007   7.138   6.555   4.199 -0.1815 -0.4193  0.2978
  136MOL   H23841008   7.261   6.681   4.183  0.8012 -1.3378 -0.3532
  136MOL   H23941009   7.174   6.651   4.336 -0.4238  0.1973 -1.1525
  136MOL   H24041010   7.136   6.527   3.847 -0.1461 -0.6545  0.7775
  136MOL   H24141011   6.979   6.462   3.807  0.9604  1.1924  2.0790
  136MOL   C24241012   7.089   6.526   3.632 -0.5948 -0.0001 -0.5754
  136MOL   O24341013   7.198   6.621   3.609 -0.1556 -0.1993 -0.1174
  136MOL   C24441014   7.178   6.720   3.521 -0.3232 -0.3618 -0.0326
  136MOL   O24541015   7.088   6.743   3.451  0.1302 -0.4826  0.5853
  136MOL   C24641016   7.298   6.813   3.533  0.4676  1.0887 -0.3273
  136MOL   C24741017   7.255   6.944   3.597 -0.2181  0.1968  0.4253
  136MOL   C24841018   7.140   6.385   3.598  0.3307 -0.1073  0.3220
  136MOL   H24941019   6.998   6.532   3.573 -1.2147 -0.1833  0.3584
  136MOL   H25041020   7.382   6.755   3.571  0.3199  1.3356  0.3709
  136MOL   H25141021   7.335   6.848   3.436  0.9135 -0.7924 -0.8543
  136MOL   H25241022   7.337   7.016   3.595  0.9801 -1.0788  1.6870
  136MOL   H25341023   7.182   6.998   3.538 -1.3855 -0.8990  0.8424
  136MOL   H25441024   7.210   6.927   3.695  0.6418  1.4242  1.0435
  136MOL   H25541025   7.183   6.387   3.498  1.1230  0.3272  0.6673
  136MOL   H25641026   7.220   6.359   3.667 -0.2215  0.1495  1.0769
  136MOL   C25741027   7.031   6.279   3.591 -0.1002 -0.4495  0.3000
  136MOL   O25841028   6.940   6.322   3.490  0.0299  0.2562  0.3344
  136MOL   C25941029   6.809   6.312   3.509  0.1863  0.4619  1.2535
  136MOL   O26041030   6.753   6.231   3.581  0.7174  0.3649  0.0293
  136MOL   C26141031   6.733   6.420   3.443  0.5271 -0.0880  0.1767
  136MOL   C26241032   6.610   6.466   3.519 -0.2609 -0.6043  0.0969
  136MOL   C26341033   7.095   6.143   3.555  0.0453  0.2002 -0.3175
  136MOL   H26441034   6.987   6.260   3.689  0.6775 -1.9655  0.3724
  136MOL   H26541035   6.804   6.499   3.418  1.4016 -0.4988  1.3029
  136MOL   H26641036   6.699   6.379   3.348 -3.8873  1.0639  1.1397
  136MOL   H26741037   6.571   6.561   3.482 -0.8046 -1.0257 -0.4145
  136MOL   H26841038   6.519   6.405   3.516 -0.1723 -0.9404  2.8877
  136MOL   H26941039   6.638   6.479   3.624 -0.2444 -0.9773  0.1399
  136MOL   H27041040   7.148   6.144   3.460  0.0866  2.4413 -0.2842
  136MOL   H27141041   7.165   6.120   3.635 -0.7300  0.8540  0.5600
  136MOL   C27241042   6.996   6.030   3.550  0.7178 -0.8127  0.3612
  136MOL   O27341043   7.083   5.922   3.527 -0.1617  0.6160  1.0018
  136MOL   C27441044   7.078   5.847   3.412  1.2111  0.1086  0.3099
  136MOL   O27541045   7.018   5.865   3.308 -0.3034 -0.5135 -0.2269
  136MOL   C27641046   7.187   5.742   3.419 -0.4570  0.5052  0.4811
  136MOL   C27741047   7.184   5.645   3.303  0.2911  0.0947 -0.9681
  136MOL   C27841048   6.933   5.996   3.683 -0.3389  0.5316 -0.1269
  136MOL   H27941049   6.917   6.034   3.475 -1.8870 -1.3140  2.9886
  136MOL   H28041050   7.284   5.788   3.439 -0.3635  0.9640 -0.9599
  136MOL   H28141051   7.160   5.674   3.499  1.0392  0.4273  0.9323
  136MOL   H28241052   7.082   5.619   3.278 -0.2122  1.5256 -0.4588
  136MOL   H28341053   7.232   5.689   3.215  0.3024  1.3084 -0.3674
  136MOL   H28441054   7.237   5.553   3.326  1.2597  1.0827  0.8444
  136MOL   H28541055   7.013   5.955   3.746  0.9163 -0.7390 -2.5042
  136MOL   H28641056   6.887   6.078   3.738 -0.1352 -0.5622  1.7302
  136MOL   C28741057   6.824   5.883   3.671  0.5059 -0.4621  0.5277
  136MOL   O28841058   6.808   5.843   3.806 -0.8990  0.3076  0.7764
  136MOL   C28941059   6.873   5.741   3.854 -0.1850  0.2863 -0.5284
  136MOL   O29041060   6.971   5.687   3.805  0.3978  0.1984  0.2053
  136MOL   C29141061   6.805   5.692   3.982 -0.4088  0.0247 -0.3039
  136MOL   C29241062   6.896   5.645   4.079 -0.3998  0.1779  0.0154
  136MOL   C29341063   6.684   5.935   3.627  0.1110 -0.1453 -0.1021
  136MOL   H29441064   6.860   5.794   3.619 -0.2562 -1.1924  1.2312
  136MOL   H29541065   6.740   5.767   4.026  0.3571  0.2936  0.3897
  136MOL   H29641066   6.746   5.606   3.954 -0.8519 -0.7199  2.7442
  136MOL   H29741067   6.950   5.733   4.113  0.6061  0.4248 -2.1149
  136MOL   H29841068   6.844   5.600   4.163  1.8283 -2.5929  0.0068
  136MOL   H29941069   6.966   5.567   4.047 -0.6060  0.6871 -1.7349
  136MOL   H30041070   6.601   5.866   3.641 -0.8120  1.3507  2.1613
  136MOL   H30141071   6.649   6.023   3.681 -1.6939  1.2233 -3.3985
  136MOL   H30241072   6.681   5.976   3.527 -3.5921  0.1667  0.0446
  137MOL     C141073   3.722   4.809   7.617 -0.7261 -0.5923  0.3661
  137MOL     O241074   3.865   4.804   7.599  0.1791  0.0696  0.1793
  137MOL     C341075   3.938   4.912   7.574  0.6881  0.1496  0.3169
  137MOL     O441076   3.880   5.019   7.558  0.3554  0.4354 -0.5877
  137MOL     C541077   4.092   4.896   7.558  0.6040  0.1034 -0.9559
  137MOL     C641078   4.164   4.839   7.684  1.0655 -0.1000  0.8592
  137MOL     C741079   3.696   4.838   7.760 -0.1380 -0.3921  0.3408
  137MOL     H841080   3.660   4.729   7.577 -1.2340  0.1075 -0.2545
  137MOL     H941081   4.120   4.834   7.473  0.7416 -3.3833  1.5507
  137MOL    H1041082   4.123   5.000   7.541 -0.2391  0.1831 -2.0382
  137MOL    H1141083   4.125   4.869   7.781 -0.3392  1.0429 -0.0377
  137MOL    H1241084   4.146   4.732   7.673  0.4049 -0.0299  1.2443
  137MOL    H1341085   4.271   4.856   7.677  0.7361  1.4746 -0.9932
  137MOL    H1441086   3.732   4.754   7.819  1.5904 -0.9074 -1.3944
  137MOL    H1541087   3.770   4.913   7.788  0.1748 -0.6309  0.1574
  137MOL    H1641088   3.691   4.898   7.562  0.2137 -1.1120 -1.0382
  137MOL    C1741089   3.553   4.888   7.796  0.4548 -0.2313  0.6533
  137MOL    O1841090   3.549   5.024   7.755 -0.2983 -0.6348  0.1227
  137MOL    C1941091   3.455   5.110   7.810 -0.7689 -0.4784 -0.3331
  137MOL    O2041092   3.359   5.078   7.878  0.5427  0.0136 -0.1793
  137MOL    C2141093   3.487   5.259   7.791 -0.6387  0.7926  0.4563
  137MOL    C2241094   3.369   5.351   7.821 -0.1951  0.0902 -0.1169
  137MOL    C2341095   3.439   4.807   7.728 -0.2920 -0.2398 -0.2502
  137MOL    H2441096   3.533   4.872   7.902 -1.1794 -0.3681  0.3409
  137MOL    H2541097   3.561   5.274   7.870 -0.6287 -0.0415  0.6133
  137MOL    H2641098   3.535   5.280   7.696 -1.5284  2.9236  0.4470
  137MOL    H2741099   3.413   5.447   7.849  0.0765 -0.4208  1.2589
  137MOL    H2841100   3.301   5.354   7.736  0.8163  2.2122 -0.8809
  137MOL    H2941101   3.302   5.325   7.903  0.9319  1.4251  1.2695
  137MOL    H3041102   3.352   4.861   7.768  1.9494  2.7513  0.7608
  137MOL    H3141103   3.441   4.813   7.619 -1.5660 -2.4829 -0.4332
  137MOL    C3241104   3.435   4.662   7.766 -0.6734  0.5211  0.6187
  137MOL    O3341105   3.386   4.646   7.900  0.0654  0.0348  0.4297
  137MOL    C3441106   3.463   4.606   0.053 -0.2347 -0.0985 -0.0998
  137MOL    O3541107   3.574   4.567   0.042  0.0073 -0.2462  0.8240
  137MOL    C3641108   3.397   4.611   0.187  0.4003  0.3560 -0.2878
  137MOL    C3741109   3.480   4.567   0.305  1.1326 -0.1153 -0.6519
  137MOL    C3841110   3.345   4.574   7.675 -0.6688 -0.0764 -0.8457
  137MOL    H3941111   3.539   4.630   7.755 -1.4351 -1.4370 -1.3174
  137MOL    H4041112   3.367   4.715   0.197  1.5526  0.6491  0.2069
  137MOL    H4141113   3.305   4.554   0.174  0.6703 -0.7742  2.3835
  137MOL    H4241114   3.584   4.540   0.292  1.4323  1.5849 -1.9045
  137MOL    H4341115   3.488   4.648   0.378  0.8567 -0.7107  0.0540
  137MOL    H4441116   3.432   4.483   0.356  0.8994  0.6644  0.4346
  137MOL    H4541117   3.300   4.497   7.738  2.7543 -2.0882 -0.7396
  137MOL    H4641118   3.257   4.626   7.637  1.4630  2.6468 -2.1966
  137MOL    C4741119   3.426   4.510   7.557  0.2283 -0.0196  0.2619
  137MOL    O4841120   3.507   4.414   7.614  0.1013 -0.5108  0.1514
  137MOL    C4941121   3.642   4.427   7.595 -0.0843  0.0586  0.3782
  137MOL    O5041122   3.712   4.492   7.512 -0.0329 -0.2628  0.4119
  137MOL    C5141123   3.717   4.332   7.695 -0.4399  0.2715  0.1729
  137MOL    C5241124   3.863   4.309   7.667  0.1636 -0.1601  0.0267
  137MOL    C5341125   3.330   4.427   7.467 -0.2577 -0.5637  0.2041
  137MOL    H5441126   3.485   4.586   7.505 -0.5843  0.8510  0.6037
  137MOL    H5541127   3.709   4.385   7.790 -2.2549  1.4763 -0.6129
  137MOL    H5641128   3.664   4.237   7.704  0.4596 -0.0287  2.3848
  137MOL    H5741129   3.923   4.400   7.663  0.6549 -0.5269 -1.2727
  137MOL    H5841130   3.906   4.248   7.747  0.3081 -0.4323 -0.2552
  137MOL    H5941131   3.873   4.263   7.568 -0.4422  0.0362 -0.1255
  137MOL    H6041132   3.273   4.357   7.529 -0.9488 -0.4529 -0.2985
  137MOL    H6141133   3.269   4.502   7.416  2.6548  0.4259 -1.9472
  137MOL    C6241134   3.392   4.354   7.344 -0.3057  0.1302 -0.1557
  137MOL    O6341135   3.287   4.287   7.281 -0.0559 -0.4196  0.2711
  137MOL    C6441136   3.282   4.153   7.242 -0.9634  0.6950  0.3534
  137MOL    O6541137   3.370   4.068   7.267 -0.0884  0.2706 -0.2318
  137MOL    C6641138   3.163   4.112   7.160  0.1341 -0.8383  0.5813
  137MOL    C6741139   3.191   4.156   7.011  1.2666 -0.6413 -1.0406
  137MOL    C6841140   3.475   4.438   7.243  0.0758 -0.0158 -0.5525
  137MOL    H6941141   3.462   4.286   7.393 -0.7328 -0.7422 -0.7395
  137MOL    H7041142   3.156   4.005   7.179 -1.8260 -1.0960 -1.3680
  137MOL    H7141143   3.070   4.152   7.200  0.6594  0.6173  0.3786
  137MOL    H7241144   3.207   4.263   7.020 -2.4437 -0.0188 -1.0885
  137MOL    H7341145   3.278   4.109   6.966  0.9319 -2.5479  0.2528
  137MOL    H7441146   3.099   4.153   6.953  0.9273  1.8459 -0.6644
  137MOL    H7541147   3.410   4.497   7.179  0.1056 -0.5599 -1.0932
  137MOL    H7641148   3.522   4.514   7.305 -1.3785 -0.8553  1.6431
  137MOL    C7741149   3.572   4.366   7.156  0.6312  0.6613 -0.3270
  137MOL    O7841150   3.605   4.458   7.052 -0.1027  0.0159  0.1029
  137MOL    C7941151   3.556   4.444   6.931 -0.2057  0.4386  0.5897
  137MOL    O8041152   3.488   4.352   6.893 -0.0202 -0.1611 -0.4485
  137MOL    C8141153   3.586   4.556   6.837  0.3127 -0.0262 -0.3259
  137MOL    C8241154   3.623   4.690   6.914  0.2124 -0.4542  0.4378
  137MOL    C8341155   3.705   4.321   7.236 -0.7529  0.0815  0.0416
  137MOL    H8441156   3.521   4.273   7.129  1.1859  0.1732  0.2794
  137MOL    H8541157   3.669   4.531   6.771 -1.5233 -0.9766 -2.3280
  137MOL    H8641158   3.495   4.588   6.787  1.0991  2.7322 -0.1052
  137MOL    H8741159   3.708   4.673   6.980  0.9433  0.3641 -0.2812
  137MOL    H8841160   3.649   4.762   6.837 -0.5271 -1.2145 -0.5372
  137MOL    H8941161   3.542   4.735   6.972 -1.0662 -0.1622 -1.5328
  137MOL    H9041162   3.761   4.412   7.257  0.1683  0.5995 -4.2269
  137MOL    H9141163   3.675   4.296   7.338 -0.9344  0.2421  0.0283
  137MOL    C9241164   3.791   4.204   7.174  0.4801  0.3475  0.7472
  137MOL    O9341165   3.849   4.260   7.054  0.2912 -0.5003 -0.8121
  137MOL    C9441166   3.919   4.188   6.970  0.4268 -0.6133  0.4406
  137MOL    O9541167   3.941   4.066   6.987 -0.3323 -0.4439 -0.3999
  137MOL    C9641168   4.004   4.269   6.871 -0.4695 -0.2348  0.3934
  137MOL    C9741169   4.107   4.185   6.798 -0.3974 -0.1349  0.2243
  137MOL    C9841170   3.888   4.134   7.272  1.0271 -0.1725  0.0191
  137MOL    H9941171   3.720   4.134   7.129 -1.6473  1.7464  1.8207
  137MOL   H10041172   3.949   4.327   6.796  0.5591  2.0420  1.3676
  137MOL   H10141173   4.062   4.337   6.933 -0.4701  0.4216 -0.3172
  137MOL   H10241174   4.168   4.250   6.736 -0.8963  0.4877  0.3868
  137MOL   H10341175   4.176   4.148   6.874 -1.0312 -1.8102  0.0032
  137MOL   H10441176   4.067   4.097   6.746 -0.1290  0.5460 -1.1540
  137MOL   H10541177   3.847   4.106   7.369  0.2830  2.8644  0.6416
  137MOL   H10641178   3.924   4.042   7.228  0.4115  0.5108 -1.9936
  137MOL   C10741179   4.015   4.212   7.314 -0.1030 -0.7464  0.7036
  137MOL   O10841180   3.989   4.348   7.345 -0.1387 -0.5306  0.0458
  137MOL   C10941181   4.086   4.443   7.336  0.5165 -0.8439 -0.2008
  137MOL   O11041182   4.198   4.431   7.280 -0.3865  0.5439 -0.2515
  137MOL   C11141183   4.049   4.576   7.395  0.3047 -1.4852  0.5837
  137MOL   C11241184   3.998   4.661   7.278  0.4743  0.5968 -0.0836
  137MOL   C11341185   4.094   4.146   7.425  0.3676 -0.1972 -1.0466
  137MOL   H11441186   4.083   4.201   7.229  0.1797 -0.3721  0.8813
  137MOL   H11541187   3.962   4.564   7.460  0.0125  0.1271  0.5011
  137MOL   H11641188   4.130   4.620   7.453 -0.2197 -2.3837  2.0282
  137MOL   H11741189   4.079   4.680   7.207  1.0187  0.5700  0.5190
  137MOL   H11841190   3.915   4.621   7.220  0.9398 -0.7333  0.1522
  137MOL   H11941191   3.975   4.761   7.314  0.1450  0.0616  1.2015
  137MOL   H12041192   4.172   4.214   7.459 -2.5417  1.9469  1.6294
  137MOL   H12141193   4.032   4.114   7.509 -2.2225 -0.0115 -2.8129
  137MOL   C12241194   4.174   4.028   7.367  0.4907 -0.4173 -0.0881
  137MOL   O12341195   4.305   4.072   7.322 -0.1750 -0.7681  0.7972
  137MOL   C12441196   4.351   4.034   7.197 -0.3414  0.4963 -0.1060
  137MOL   O12541197   4.301   3.939   7.139  0.6656  0.4852  0.5316
  137MOL   C12641198   4.467   4.116   7.155 -0.2833 -0.5574 -0.8675
  137MOL   C12741199   4.415   4.248   7.095  0.0313 -0.3755 -0.2552
  137MOL   C12841200   4.201   3.906   7.457 -0.1596  0.0055 -0.0438
  137MOL   H12941201   4.128   3.989   7.277 -0.3158 -1.7551  0.8854
  137MOL   H13041202   4.539   4.127   7.237  0.2475 -2.3982 -1.0745
  137MOL   H13141203   4.510   4.053   7.078  0.5074 -0.0935 -0.8190
  137MOL   H13241204   4.348   4.218   7.015  0.4336  2.8490 -1.8819
  137MOL   H13341205   4.366   4.313   7.168 -1.4501 -0.7535 -0.9132
  137MOL   H13441206   4.496   4.306   7.052  0.9297 -0.4707  1.2663
  137MOL   H13541207   4.289   3.857   7.415 -1.0576 -2.2477  0.6355
  137MOL   H13641208   4.232   3.942   7.555  1.2162 -3.1438  0.7627
  137MOL   C13741209   4.081   3.809   7.486  0.7702 -0.3531  0.3230
  137MOL   O13841210   3.981   3.877   7.567 -0.1645 -0.3368  0.1363
  137MOL   C13941211   3.955   3.832   7.689 -1.0837 -0.8182  0.5933
  137MOL   O14041212   4.000   3.720   7.731  0.6478  0.7692 -0.2594
  137MOL   C14141213   3.860   3.928   7.768 -0.2108 -0.1501  0.1597
  137MOL   C14241214   3.787   3.837   7.869 -0.0833 -0.3579 -0.6265
  137MOL   C14341215   4.017   3.754   7.351 -0.2502 -0.3350 -0.6254
  137MOL   H14441216   4.123   3.720   7.533  0.7841 -1.0808 -1.0228
  137MOL   H14541217   3.904   4.018   7.810  0.3485 -0.0094 -0.7143
  137MOL   H14641218   3.790   3.958   7.690  0.0728  1.5290  0.5217
  137MOL   H14741219   3.830   3.849   0.023  1.7665 -1.1517 -1.3239
  137MOL   H14841220   3.683   3.869   7.876  0.1568  0.1995  0.4501
  137MOL   H14941221   3.793   3.729   7.854  0.7867 -0.1562 -1.8425
  137MOL   H15041222   3.944   3.678   7.379 -1.3588  0.5615 -1.0961
  137MOL   H15141223   3.956   3.830   7.303  1.1484  0.4288 -1.2365
  137MOL   C15241224   4.117   3.692   7.248 -1.2067  0.2828  0.4056
  137MOL   O15341225   4.134   3.556   7.286 -0.6896 -0.7915  0.0164
  137MOL   C15441226   4.255   3.504   7.318 -0.0791 -0.7975  0.2203
  137MOL   O15541227   4.366   3.556   7.316  0.0071 -0.3049  0.2786
  137MOL   C15641228   4.239   3.359   7.374  0.3002  0.8269  0.5216
  137MOL   C15741229   4.348   3.259   7.333 -0.5504 -0.2263 -0.3083
  137MOL   C15841230   4.079   3.709   7.102  0.1026  0.1941 -0.5619
  137MOL   H15941231   4.217   3.734   7.257 -0.4399 -1.1074 -1.3211
  137MOL   H16041232   4.228   3.368   7.481 -0.7242  0.8545  0.4104
  137MOL   H16141233   4.145   3.327   7.329  0.3204 -1.1724  1.8524
  137MOL   H16241234   4.358   3.276   7.226 -0.7521 -0.6104 -0.3882
  137MOL   H16341235   4.444   3.288   7.375  1.1856 -1.8174 -3.0064
  137MOL   H16441236   4.321   3.155   7.351  0.5488 -0.4138  0.2850
  137MOL   H16541237   3.983   3.663   7.077  0.0215 -0.2797  0.5975
  137MOL   H16641238   4.051   3.814   7.092  1.0738  0.5808  0.6762
  137MOL   C16741239   4.187   3.679   7.000 -0.1649 -0.9672  0.7355
  137MOL   O16841240   4.185   3.537   6.980 -0.1413 -1.0179  0.6978
  137MOL   C16941241   4.295   3.456   6.946  0.3186  0.3112  0.3053
  137MOL   O17041242   4.410   3.498   6.930  0.2923 -0.0517 -0.4764
  137MOL   C17141243   4.265   3.312   6.923  0.0405 -0.1249 -0.1922
  137MOL   C17241244   4.174   3.291   6.795 -0.3389 -0.0052 -0.1142
  137MOL   C17341245   4.166   3.754   6.870 -0.2487 -0.4788 -0.3563
  137MOL   H17441246   4.284   3.700   7.046 -0.5542 -2.6286  2.3406
  137MOL   H17541247   4.355   3.252   6.912 -0.3398 -0.6450 -0.4952
  137MOL   H17641248   4.219   3.267   7.011 -2.1008  1.4833 -0.4491
  137MOL   H17741249   4.071   3.291   6.831 -1.4637  0.1147 -3.1535
  137MOL   H17841250   4.194   3.367   6.720 -0.8753  0.9193  0.6667
  137MOL   H17941251   4.198   3.192   6.757 -1.5388 -0.3227 -0.0713
  137MOL   H18041252   4.079   3.710   6.822 -1.3135 -0.2885  1.3402
  137MOL   H18141253   4.143   3.858   6.892 -0.0020  0.0543 -2.5533
  137MOL   C18241254   4.287   3.753   6.770  0.2702  0.0487 -0.5319
  137MOL   O18341255   4.252   3.830   6.658  0.3958 -0.2589  0.1954
  137MOL   C18441256   4.220   3.779   6.532  0.4157 -0.4344 -0.4522
  137MOL   O18541257   4.235   3.667   6.491 -0.3251  0.1890  0.2979
  137MOL   C18641258   4.193   3.896   6.440 -0.6194  1.0665  0.2066
  137MOL   C18741259   4.185   3.859   6.294 -0.5473  0.5220 -0.1449
  137MOL   C18841260   4.413   3.814   6.831  0.7765 -0.7692 -0.4702
  137MOL   H18941261   4.306   3.651   6.739  0.4728 -0.2264  0.4765
  137MOL   H19041262   4.102   3.944   6.475 -1.0452  0.0421  0.5069
  137MOL   H19141263   4.280   3.960   6.460 -0.4282  0.8071  0.2139
  137MOL   H19241264   4.172   3.954   6.241  1.8866  1.1945  0.4065
  137MOL   H19341265   4.265   3.799   6.251  0.3341  1.7961 -0.3026
  137MOL   H19441266   4.091   3.811   6.265 -1.3535  1.9458  0.0500
  137MOL   H19541267   4.391   3.918   6.851  2.1381 -0.6809  0.6124
  137MOL   H19641268   4.442   3.769   6.926 -2.6597  0.0389  1.0525
  137MOL   C19741269   4.531   3.818   6.734 -0.1677  0.2331  0.4750
  137MOL   O19841270   4.614   3.925   6.773  0.2439 -0.1631 -0.0865
  137MOL   C19941271   4.652   4.021   6.687  0.5568 -0.1485  0.1737
  137MOL   O20041272   4.615   4.033   6.570 -0.2753  0.3112  0.0674
  137MOL   C20141273   4.751   4.124   6.749 -0.0979  0.3921  0.1500
  137MOL   C20241274   4.841   4.071   6.856 -0.2641 -0.1972 -0.6213
  137MOL   C20341275   4.619   3.685   6.733 -0.2446  0.2680  0.1171
  137MOL   H20441276   4.500   3.832   6.630 -1.6464 -1.0687  0.7221
  137MOL   H20541277   4.800   4.172   6.664 -1.0233 -0.2305 -0.7632
  137MOL   H20641278   4.681   4.196   6.790 -2.5006 -1.4511 -0.5439
  137MOL   H20741279   4.782   4.025   6.935 -2.0464  0.8407 -1.3331
  137MOL   H20841280   4.900   3.988   6.817 -2.2489 -2.6038  1.2988
  137MOL   H20941281   4.913   4.144   6.894  0.5039 -1.0624 -0.3815
  137MOL   H21041282   4.671   3.676   6.828 -0.2591 -0.5588  0.0506
  137MOL   H21141283   4.550   3.601   6.737 -0.4552  0.5413  3.6773
  137MOL   C21241284   4.722   3.677   6.611  0.1532  0.1576 -0.0059
  137MOL   O21341285   4.834   3.594   6.648  0.4414 -0.0324  0.2331
  137MOL   C21441286   4.947   3.635   6.700 -0.6304 -1.1932 -0.0851
  137MOL   O21541287   4.974   3.750   6.722 -0.1022 -0.4351  0.7121
  137MOL   C21641288   5.040   3.527   6.755  0.1222  0.4235  0.5754
  137MOL   C21741289   5.066   3.542   6.909  0.4088  0.0347  0.4586
  137MOL   C21841290   4.652   3.626   6.481  0.2294  0.2218 -0.2663
  137MOL   H21941291   4.755   3.779   6.596 -0.1048  0.2852  0.2985
  137MOL   H22041292   4.995   3.430   6.737 -1.7347  1.1587  1.1937
  137MOL   H22141293   5.141   3.523   6.712 -0.3145  1.7912 -0.5932
  137MOL   H22241294   5.161   3.592   6.928  0.6308 -0.7675  1.4876
  137MOL   H22341295   4.988   3.592   6.966 -0.0734 -0.8042  0.5380
  137MOL   H22441296   5.088   3.444   6.950 -1.9464 -0.2296  1.1660
  137MOL   H22541297   4.643   3.518   6.491 -0.1969  0.1097 -1.6487
  137MOL   H22641298   4.555   3.675   6.473 -0.0563  0.1313  2.3607
  137MOL   C22741299   4.734   3.649   6.354 -0.1321  0.7117  0.3063
  137MOL   O22841300   4.656   3.584   6.252  0.1013  0.4115 -0.2188
  137MOL   C22941301   4.718   3.528   6.146  0.2241  0.2984  0.4591
  137MOL   O23041302   4.837   3.536   6.119 -0.3740 -0.4856 -0.5859
  137MOL   C23141303   4.626   3.440   6.059  0.1053  0.7549  0.2381
  137MOL   C23241304   4.571   3.324   6.142 -0.0373  0.1774 -0.2219
  137MOL   C23341305   4.751   3.801   6.320 -0.4113 -0.1278  0.1164
  137MOL   H23441306   4.835   3.609   6.366 -0.2311  0.5893  0.7687
  137MOL   H23541307   4.540   3.498   6.026  0.8015  0.4422 -2.2203
  137MOL   H23641308   4.673   3.394   5.972  0.0408  1.3521 -0.1083
  137MOL   H23741309   4.490   3.357   6.207 -0.2092 -1.4076  0.4099
  137MOL   H23841310   4.537   3.245   6.074  0.8357 -0.1606 -0.2720
  137MOL   H23941311   4.657   3.280   6.193  1.2968  1.1396 -1.6249
  137MOL   H24041312   4.724   3.817   6.215  2.8128 -2.4364 -1.1397
  137MOL   H24141313   4.692   3.868   6.383  1.0117 -0.1272  1.4840
  137MOL   C24241314   4.894   3.852   6.339  0.2544  0.3231  0.2308
  137MOL   O24341315   4.982   3.781   6.248  0.1385 -0.1733  0.3039
  137MOL   C24441316   5.081   3.709   6.291 -0.6697 -0.5163  0.3782
  137MOL   O24541317   5.104   3.684   6.414  0.5677 -0.5314 -0.4363
  137MOL   C24641318   5.176   3.655   6.184  0.8765 -0.1110 -0.2535
  137MOL   C24741319   5.275   3.762   6.148  0.4409 -0.9803  0.2184
  137MOL   C24841320   4.917   4.004   6.309 -0.4136 -0.1132  0.4557
  137MOL   H24941321   4.913   3.826   6.443  3.0168 -4.6475 -1.3252
  137MOL   H25041322   5.232   3.571   6.225 -1.8738 -1.3671  1.0287
  137MOL   H25141323   5.116   3.612   6.103 -0.8298 -3.3323  2.6136
  137MOL   H25241324   5.213   3.837   6.099 -0.9728 -1.1865  1.6691
  137MOL   H25341325   5.337   3.801   6.229 -2.1227 -0.2198  1.8616
  137MOL   H25441326   5.348   3.710   6.085  1.5237  1.2409 -0.4109
  137MOL   H25541327   4.898   4.019   6.203 -1.8179  2.8746  1.0712
  137MOL   H25641328   4.834   4.065   6.346 -0.5103 -0.5538  0.9800
  137MOL   C25741329   5.054   4.063   6.357  0.2726  0.1476  0.2516
  137MOL   O25841330   5.071   4.199   6.313 -0.1173 -0.0415 -0.5245
  137MOL   C25941331   5.105   4.233   6.192 -0.0342  0.2221 -0.1817
  137MOL   O26041332   5.112   4.153   6.093  0.0907 -0.2218 -0.2937
  137MOL   C26141333   5.131   4.375   6.180 -0.4636  0.1670 -0.2207
  137MOL   C26241334   5.139   4.407   6.034 -0.2494  0.0996  0.1550
  137MOL   C26341335   5.088   4.049   6.510 -0.0937 -0.1009  0.4737
  137MOL   H26441336   5.119   4.006   6.291 -1.5787 -1.2308 -0.4206
  137MOL   H26541337   5.060   4.432   6.241  0.9587  0.6844  0.9683
  137MOL   H26641338   5.230   4.397   6.219  0.3952  1.4346 -3.0145
  137MOL   H26741339   5.212   4.351   5.974  1.7248  0.7351  1.9092
  137MOL   H26841340   5.037   4.388   6.000 -1.5006  2.6763  2.2666
  137MOL   H26941341   5.146   4.515   6.020  0.2473 -0.0995 -1.2733
  137MOL   H27041342   5.032   4.128   6.560 -0.2813 -0.2561  0.5063
  137MOL   H27141343   5.043   3.959   6.551  0.7132  0.7515  3.3601
  137MOL   C27241344   5.236   4.062   6.543  0.0946  0.5739 -0.0052
  137MOL   O27341345   5.249   4.114   6.676 -0.4749 -0.2923  0.0041
  137MOL   C27441346   5.251   4.245   6.695 -0.1454  0.2027 -0.2593
  137MOL   O27541347   5.240   4.329   6.604 -0.3444 -0.3805  0.7103
  137MOL   C27641348   5.260   4.289   6.843  0.5167  0.0571  0.2824
  137MOL   C27741349   5.175   4.411   6.875  0.4920 -0.1082 -0.5694
  137MOL   C27841350   5.302   3.921   6.528 -0.1434  0.2901 -0.0799
  137MOL   H27941351   5.293   4.135   6.486  0.4050  1.5414  1.5145
  137MOL   H28041352   5.228   4.205   6.904 -1.3517 -0.9924 -2.1102
  137MOL   H28141353   5.366   4.302   6.868  0.7215 -0.7232 -0.1605
  137MOL   H28241354   5.175   4.486   6.796 -2.3478  1.3786  0.7363
  137MOL   H28341355   5.066   4.402   6.871  0.2327  2.6055 -0.8212
  137MOL   H28441356   5.200   4.453   6.972  1.8665 -0.7291 -0.6349
  137MOL   H28541357   5.253   3.870   6.611 -0.3725 -1.1690 -1.1010
  137MOL   H28641358   5.283   3.858   6.441  1.5330  2.2115 -1.9008
  137MOL   C28741359   5.453   3.917   6.576 -0.3314  0.0907  0.9210
  137MOL   O28841360   5.489   3.790   6.634 -0.2641 -0.1810 -0.4439
  137MOL   C28941361   5.449   3.754   6.752  0.0697  0.1087  0.0351
  137MOL   O29041362   5.380   3.819   6.827  0.0492  0.2033  0.1727
  137MOL   C29141363   5.521   3.628   6.796  0.2480 -0.1254 -0.2091
  137MOL   C29241364   5.419   3.510   6.791  0.1479 -0.9146 -0.1638
  137MOL   C29341365   5.556   3.935   6.462  1.3502 -0.0992  0.2681
  137MOL   H29441366   5.464   3.992   6.656 -0.2156 -0.4912  1.4536
  137MOL   H29541367   5.596   3.596   6.723 -0.2290 -0.0807 -0.7236
  137MOL   H29641368   5.573   3.644   6.890  0.1726  1.1065 -0.3747
  137MOL   H29741369   5.478   3.421   6.813  2.4999  0.8200  0.8922
  137MOL   H29841370   5.342   3.521   6.867  2.3123  1.3688  1.8200
  137MOL   H29941371   5.385   3.505   6.688  3.8584 -0.2730 -1.4887
  137MOL   H30041372   5.548   3.858   6.386  0.1946 -1.2387  1.5377
  137MOL   H30141373   5.541   4.033   6.415  2.7563  0.1343  0.2615
  137MOL   H30241374   5.661   3.938   6.492  1.3083 -0.1532  0.4189
  138MOL     C141375   5.877   6.417   7.285  0.0864  0.2632 -0.1415
  138MOL     O241376   5.810   6.333   7.193 -0.4767  0.0542 -0.5365
  138MOL     C341377   5.678   6.307   7.203  0.2396 -0.0608  0.1097
  138MOL     O441378   5.609   6.332   7.305  0.5120 -0.2374 -0.2222
  138MOL     C541379   5.632   6.217   7.090 -0.5876  1.0098 -0.8058
  138MOL     C641380   5.536   6.113   7.118 -0.7277 -0.2881 -0.4472
  138MOL     C741381   5.846   6.564   7.267  0.1871 -0.1445  0.3245
  138MOL     H841382   5.985   6.405   7.281  0.3327  1.6528  1.5709
  138MOL     H941383   5.594   6.282   7.011  0.0933  0.2800 -1.7389
  138MOL    H1041384   5.722   6.161   7.064 -0.6669  0.2230  0.5527
  138MOL    H1141385   5.540   6.044   7.034  0.5849 -1.8309  0.8276
  138MOL    H1241386   5.564   6.051   7.204 -0.4396  0.4162 -0.0305
  138MOL    H1341387   5.437   6.153   7.138 -0.6455 -1.0204  1.5849
  138MOL    H1441388   5.899   6.601   7.179  0.6020 -0.5977  0.3832
  138MOL    H1541389   5.743   6.578   7.233  0.0729 -4.2799 -1.3950
  138MOL    H1641390   5.839   6.399   7.385 -0.9282 -0.4381 -0.6516
  138MOL    C1741391   5.866   6.648   7.392  0.2479 -0.6340  1.3608
  138MOL    O1841392   6.006   6.656   7.408 -0.0888  0.3077 -0.0256
  138MOL    C1941393   6.068   6.581   7.499  0.1237  0.3509 -0.0834
  138MOL    O2041394   6.022   6.486   7.560 -0.3144  0.0622  0.3541
  138MOL    C2141395   6.213   6.619   7.506 -0.1542 -0.1522  0.2184
  138MOL    C2241396   6.308   6.503   7.532  0.3330  0.0474  0.6074
  138MOL    C2341397   5.809   6.794   7.381 -0.7111  0.5341 -0.0905
  138MOL    H2441398   5.821   6.592   7.474 -1.4811 -0.2980  0.6694
  138MOL    H2541399   6.245   6.678   7.420  1.9653  0.2753  1.2620
  138MOL    H2641400   6.234   6.681   7.594  2.4512  2.2227 -1.9593
  138MOL    H2741401   6.381   6.504   7.451  1.2947  2.1260  1.4934
  138MOL    H2841402   6.359   6.512   7.627  0.6004 -2.5809  0.7591
  138MOL    H2941403   6.261   6.404   7.529  1.8626 -0.6637 -0.9719
  138MOL    H3041404   5.831   6.843   7.286 -0.2639 -1.7695 -1.2043
  138MOL    H3141405   5.701   6.779   7.392 -0.1436 -1.4020  3.5198
  138MOL    C3241406   5.838   6.901   7.485  0.1530 -0.2112 -0.1814
  138MOL    O3341407   5.777   7.025   7.451  0.1407 -0.4844  0.3146
  138MOL    C3441408   5.851   7.101   7.374  0.3124 -0.4571  0.6505
  138MOL    O3541409   5.968   7.076   7.335  0.0992  0.0506  0.0537
  138MOL    C3641410   5.788   7.234   7.339  0.7035 -0.0238  0.0697
  138MOL    C3741411   5.878   7.333   7.269  0.2600 -0.2071  0.2367
  138MOL    C3841412   5.805   6.864   7.630  0.0787  0.1939 -0.5960
  138MOL    H3941413   5.946   6.915   7.490  0.1734 -1.0792  2.8889
  138MOL    H4041414   5.685   7.225   7.303  0.3701 -0.3954  1.1004
  138MOL    H4141415   5.773   7.269   7.441 -1.9082  0.2723 -0.3787
  138MOL    H4241416   5.827   7.429   7.258  1.5709  0.4693 -0.1279
  138MOL    H4341417   5.960   7.351   7.339 -0.4825  1.8327  0.6136
  138MOL    H4441418   5.921   7.300   7.174  0.0226  1.1958 -0.3724
  138MOL    H4541419   5.700   6.842   7.647  0.1267 -0.1176 -0.7188
  138MOL    H4641420   5.855   6.768   7.633 -2.2975 -1.0407  1.1891
  138MOL    C4741421   5.867   6.957   7.742  0.1814  0.0325 -0.2147
  138MOL    O4841422   5.801   7.080   7.754  0.0495 -0.2114  0.2271
  138MOL    C4941423   5.874   7.201   7.773  0.9212  0.1215  0.2401
  138MOL    O5041424   5.994   7.213   7.782 -0.7428 -0.2826  0.2791
  138MOL    C5141425   5.779   7.322   7.773  0.3796  0.0985 -0.2761
  138MOL    C5241426   5.852   7.457   7.753 -0.6064  0.1037 -0.1709
  138MOL    C5341427   5.871   6.882   7.876  0.5059  0.8167  0.7554
  138MOL    H5441428   5.964   6.985   7.701  1.1072 -1.6755  0.7846
  138MOL    H5541429   5.706   7.306   7.693 -0.8209 -2.3385  1.2495
  138MOL    H5641430   5.733   7.326   7.871  1.2736 -0.5593  0.1663
  138MOL    H5741431   5.793   7.544   7.725  1.2981  0.4348 -3.3775
  138MOL    H5841432   5.912   7.479   7.841 -1.8293 -0.5674  0.8501
  138MOL    H5941433   5.924   7.445   7.672  0.1961 -0.3155  0.5960
  138MOL    H6041434   5.766   6.876   7.905  0.3797  0.4728  0.2319
  138MOL    H6141435   5.914   6.786   7.847 -2.5084 -0.4928  0.4230
  138MOL    C6241436   5.952   6.939   0.045  0.3211  0.2359 -0.6228
  138MOL    O6341437   5.926   6.873   0.173  0.9661  0.4621 -0.1640
  138MOL    C6441438   5.819   6.915   0.242  0.4058 -0.1909 -0.5172
  138MOL    O6541439   5.737   7.000   0.205  0.2298 -0.3906  0.6542
  138MOL    C6641440   5.812   6.848   0.382 -0.0339  0.1896 -0.5322
  138MOL    C6741441   5.804   6.689   0.379 -0.5677 -0.0927  0.0513
  138MOL    C6841442   6.098   6.941   0.013  0.3221  0.0780  0.1535
  138MOL    H6941443   5.911   7.040   0.056  0.5489  0.2541  0.0710
  138MOL    H7041444   5.891   6.890   0.444 -1.6529  1.9201  0.3781
  138MOL    H7141445   5.720   6.881   0.428  1.0844 -0.4393  2.2777
  138MOL    H7241446   5.886   6.644   0.324  1.4463  2.1082  1.2032
  138MOL    H7341447   5.805   6.638   0.475 -0.5124  0.2511  0.2325
  138MOL    H7441448   5.713   6.653   0.330 -0.0629 -1.8516  0.3948
  138MOL    H7541449   6.136   6.840   0.020 -0.3490 -0.1804  0.1566
  138MOL    H7641450   6.111   6.969   7.854  0.6337 -0.9668 -0.0946
  138MOL    C7741451   6.187   7.024   0.107 -0.7563 -0.1203  0.3627
  138MOL    O7841452   6.321   6.988   0.104  0.0578  0.1857 -0.5927
  138MOL    C7941453   6.375   6.895   0.182  0.1552 -0.0860 -0.3222
  138MOL    O8041454   6.307   6.818   0.243 -0.1249 -0.3161  0.2474
  138MOL    C8141455   6.528   6.898   0.185 -0.1899 -0.2533  0.2445
  138MOL    C8241456   6.586   6.811   0.303 -0.7069  0.1835  0.0841
  138MOL    C8341457   6.178   7.174   0.093 -0.6568  0.5118  0.2468
  138MOL    H8441458   6.148   7.000   0.206  0.0699  0.8247  0.9309
  138MOL    H8541459   6.562   6.857   0.090  1.5157 -0.6806  1.0274
  138MOL    H8641460   6.557   7.002   0.201  0.8774 -0.7873  1.8519
  138MOL    H8741461   6.533   6.837   0.395 -0.3535  2.4314 -0.3154
  138MOL    H8841462   6.566   6.704   0.305 -0.5503  0.1251 -1.2580
  138MOL    H8941463   6.690   6.821   0.332 -1.6642  2.2009  3.0229
  138MOL    H9041464   6.209   7.212   7.940 -2.7960  0.0453 -0.6284
  138MOL    H9141465   6.074   7.203   0.107 -0.4696  1.4820 -0.2799
  138MOL    C9241466   6.254   7.263   0.188 -0.9628 -0.0401 -0.7142
  138MOL    O9341467   6.198   7.228   0.314 -0.4463 -0.1171 -0.8501
  138MOL    C9441468   6.159   7.332   0.397  0.2972  0.1542 -0.2732
  138MOL    O9541469   6.181   7.449   0.370 -0.1517 -0.1501 -0.9413
  138MOL    C9641470   6.092   7.287   0.526 -0.2012 -0.0503  0.6745
  138MOL    C9741471   6.164   7.171   0.594  0.0025 -0.1102 -0.1502
  138MOL    C9841472   6.406   7.257   0.194  0.7129  0.1287 -0.4518
  138MOL    H9941473   6.227   7.365   0.158 -1.6166 -0.1379 -0.4558
  138MOL   H10041474   6.073   7.375   0.588 -4.3872 -1.1430  1.0793
  138MOL   H10141475   5.989   7.258   0.502  0.1797  0.0288 -1.1304
  138MOL   H10241476   6.162   7.177   0.703  0.5680  2.1772 -0.2369
  138MOL   H10341477   6.125   7.076   0.559 -0.1144 -0.3959  0.7240
  138MOL   H10441478   6.269   7.166   0.568 -0.1686  0.2059 -0.9080
  138MOL   H10541479   6.449   7.184   0.263 -0.4426  1.1012  1.3372
  138MOL   H10641480   6.449   7.247   0.095 -0.7009  0.7181 -1.1463
  138MOL   C10741481   6.466   7.384   0.250  0.1861 -0.0042  0.0812
  138MOL   O10841482   6.577   7.362   0.328  0.1695  0.1096  0.3192
  138MOL   C10941483   6.573   7.347   0.456 -0.5505 -0.9651  0.2752
  138MOL   O11041484   6.471   7.325   0.522  0.5770  0.0688 -0.2071
  138MOL   C11141485   6.712   7.336   0.513  0.3627  0.5862  0.6777
  138MOL   C11241486   6.766   7.198   0.492 -0.2872  0.7691  0.0698
  138MOL   C11341487   6.520   7.483   0.133 -0.0177  0.2088  0.0117
  138MOL   H11441488   6.394   7.446   0.303  1.2629  0.9046  0.5006
  138MOL   H11541489   6.779   7.403   0.459  1.6765 -0.9442  0.3739
  138MOL   H11641490   6.710   7.355   0.620 -2.5609 -1.9235  1.1492
  138MOL   H11741491   6.839   7.170   0.568  0.3345 -3.3851 -1.8988
  138MOL   H11841492   6.692   7.118   0.501  1.9582 -1.1683  2.0016
  138MOL   H11941493   6.816   7.202   0.395  1.5237  1.1241  0.9886
  138MOL   H12041494   6.564   7.575   0.172 -1.6948  0.9141  0.2808
  138MOL   H12141495   6.608   7.431   0.095  1.4963  0.8043  2.6242
  138MOL   C12241496   6.427   7.532   0.021 -0.7425 -0.1953  0.7702
  138MOL   O12341497   6.344   7.638   0.070 -0.3065 -0.5340  0.1305
  138MOL   C12441498   6.217   7.632   0.064  0.2614  0.2487 -0.5630
  138MOL   O12541499   6.154   7.562   7.928  0.2007  0.2128 -0.2673
  138MOL   C12641500   6.141   7.730   0.154 -0.2631 -0.4330  0.3598
  138MOL   C12741501   6.085   7.840   0.065  0.1828  0.2121 -0.7142
  138MOL   C12841502   6.507   7.572   7.841  0.1363 -0.4362 -0.3445
  138MOL   H12941503   6.366   7.451   7.927  1.1823  0.2592 -3.4401
  138MOL   H13041504   6.058   7.681   0.206 -0.2960  1.1480  1.8745
  138MOL   H13141505   6.213   7.752   0.233  0.6172  0.2972 -0.6336
  138MOL   H13241506   6.164   7.885   0.004 -0.2571 -0.9145 -2.1364
  138MOL   H13341507   6.007   7.794   0.006 -1.8320  0.1568  1.8924
  138MOL   H13441508   6.040   7.919   0.125 -1.5194 -0.0677 -1.6055
  138MOL   H13541509   6.442   7.632   7.777  0.4176 -0.1156 -0.3345
  138MOL   H13641510   6.591   7.635   7.870  0.8445 -1.0055 -1.1185
  138MOL   C13741511   6.556   7.453   7.754 -0.2785  0.1358 -0.1294
  138MOL   O13841512   6.437   7.402   7.694 -0.4835  0.2280 -0.2444
  138MOL   C13941513   6.416   7.267   7.675 -0.0683  1.1562  0.3665
  138MOL   O14041514   6.491   7.170   7.700 -0.4422  0.2972 -0.0681
  138MOL   C14141515   6.281   7.237   7.620  0.2526 -0.0897  0.5315
  138MOL   C14241516   6.252   7.091   7.619 -0.5869 -0.3155  0.2245
  138MOL   C14341517   6.656   7.495   7.651  0.3043 -0.3781  0.9044
  138MOL   H14441518   6.592   7.384   7.830  0.0147 -1.7947 -1.9702
  138MOL   H14541519   6.196   7.285   7.669 -0.3218  1.3510 -1.8104
  138MOL   H14641520   6.282   7.287   7.523 -0.3101 -1.5947 -0.2508
  138MOL   H14741521   6.167   7.072   7.552  0.4279  2.4395 -1.9267
  138MOL   H14841522   6.335   7.034   7.577 -0.1797 -0.9453  1.8609
  138MOL   H14941523   6.226   7.062   7.720 -1.1760 -0.5610  0.0064
  138MOL   H15041524   6.649   7.442   7.556  1.9097 -0.0274  0.5760
  138MOL   H15141525   6.644   7.601   7.630 -0.2757 -0.4464  0.8945
  138MOL   C15241526   6.797   7.464   7.699  0.4782 -0.2057  0.1592
  138MOL   O15341527   6.835   7.323   7.696 -0.3050 -0.7585 -0.3371
  138MOL   C15441528   6.833   7.250   7.806 -0.4921  0.4663  0.0210
  138MOL   O15541529   6.809   7.283   7.926 -0.5146 -0.9589  0.0295
  138MOL   C15641530   6.870   7.109   7.765 -0.5742 -0.1767 -0.2204
  138MOL   C15741531   6.782   7.015   7.847  0.1098  0.1445  0.1600
  138MOL   C15841532   6.896   7.548   7.604  0.0348  0.5709 -0.2842
  138MOL   H15941533   6.801   7.506   7.799 -1.8833 -1.2352  0.7259
  138MOL   H16041534   6.866   7.099   7.656  0.6241 -0.4890 -0.2494
  138MOL   H16141535   6.975   7.099   7.793 -1.0984 -1.2810  1.4071
  138MOL   H16241536   6.812   6.913   7.821  1.1773  0.7650 -1.0424
  138MOL   H16341537   6.793   7.031   0.009 -0.7444 -0.7485  0.3919
  138MOL   H16441538   6.678   7.039   7.825  0.8546  2.9878 -0.4150
  138MOL   H16541539   6.894   7.512   7.501  0.1366 -2.2346  0.6713
  138MOL   H16641540   6.872   7.655   7.607 -0.5303  0.4402 -0.0669
  138MOL   C16741541   7.048   7.526   7.646 -0.1176  0.1116 -0.1717
  138MOL   O16841542   7.140   7.586   7.554  0.5760  0.2431  0.1611
  138MOL   C16941543   7.265   7.539   7.539 -0.4672  0.1907 -0.1082
  138MOL   O17041544   7.302   7.429   7.574 -0.5785  0.1281 -0.1268
  138MOL   C17141545   7.345   7.635   7.459  0.2507  0.1749 -1.4132
  138MOL   C17241546   7.423   7.726   7.552 -0.4730 -0.4190 -0.3779
  138MOL   C17341547   7.079   7.571   7.791  0.3417  0.0967  0.9636
  138MOL   H17441548   7.064   7.419   7.637  0.3633  0.0763  1.0873
  138MOL   H17541549   7.413   7.578   7.396  0.9625 -2.6556  1.7764
  138MOL   H17641550   7.276   7.703   7.409 -0.5984  1.0259  0.8700
  138MOL   H17741551   7.508   7.667   7.587 -1.9212 -2.9179 -0.9289
  138MOL   H17841552   7.457   7.815   7.499  0.6118 -0.5606  0.0626
  138MOL   H17941553   7.356   7.757   7.632 -0.1588  1.9896 -1.0262
  138MOL   H18041554   7.111   7.675   7.790  0.4843  0.0696  2.0579
  138MOL   H18141555   6.989   7.580   7.853  0.1985  1.2604  0.5815
  138MOL   C18241556   7.190   7.485   7.861  0.4041 -0.0736  0.1552
  138MOL   O18341557   7.217   7.558   0.044 -0.1516 -0.6322 -0.1165
  138MOL   C18441558   7.307   7.659   0.043  0.1850 -0.7252  0.1871
  138MOL   O18541559   7.380   7.682   7.886 -0.0755  0.8109 -0.0503
  138MOL   C18641560   7.323   7.736   0.175 -0.3307  0.0288 -1.1370
  138MOL   C18741561   7.459   7.712   0.231  0.2476 -0.3169  0.0885
  138MOL   C18841562   7.149   7.341   7.895  0.4911  0.0287 -0.5992
  138MOL   H18941563   7.283   7.479   7.804  0.7941 -0.8705  0.8597
  138MOL   H19041564   7.314   7.844   0.168  0.8199  0.2315  0.2989
  138MOL   H19141565   7.251   7.691   0.243 -0.6146 -0.5748 -1.8276
  138MOL   H19241566   7.471   7.764   0.326 -1.8241 -0.3962  0.4082
  138MOL   H19341567   7.470   7.606   0.257  0.7918 -0.1020  0.7612
  138MOL   H19441568   7.543   7.733   0.165  1.8083 -3.5355  0.9577
  138MOL   H19541569   7.061   7.333   0.013  0.2390 -0.7742 -1.0439
  138MOL   H19641570   7.129   7.310   7.792  2.7617 -1.8606 -0.5200
  138MOL   C19741571   7.266   7.253   0.005 -0.3161 -0.0090  0.1835
  138MOL   O19841572   7.206   7.127   0.047 -0.5340  1.2467  0.2497
  138MOL   C19941573   7.252   7.058   0.151  0.7388 -0.0537 -0.6001
  138MOL   O20041574   7.352   7.084   0.219 -0.6100 -0.2644  0.0883
  138MOL   C20141575   7.148   6.966   0.207 -0.1945  0.1493 -0.3139
  138MOL   C20241576   7.117   6.854   0.109 -0.1340 -0.0908 -0.0865
  138MOL   C20341577   7.372   7.235   7.840 -0.1143  0.1247  0.4866
  138MOL   H20441578   7.304   7.307   0.093  0.7548 -0.1259 -0.1968
  138MOL   H20541579   7.189   6.914   0.294 -0.3751  1.6678  0.7046
  138MOL   H20641580   7.057   7.019   0.232 -0.7670 -0.4192 -1.1750
  138MOL   H20741581   7.084   6.759   0.152 -0.8682 -0.0234 -0.4870
  138MOL   H20841582   7.036   6.887   0.044 -0.0976  0.6152  0.2194
  138MOL   H20941583   7.203   6.827   0.048 -1.1888  0.8011 -2.0133
  138MOL   H21041584   7.398   7.130   7.840  1.5733  0.5223  2.1500
  138MOL   H21141585   7.333   7.252   7.739  2.4441  0.8108 -0.4558
  138MOL   C21241586   7.508   7.302   7.874  0.5370 -0.3867 -0.2919
  138MOL   O21341587   7.546   7.263   0.055 -0.7134  0.1023  0.1580
  138MOL   C21441588   7.599   7.339   0.146  0.0659  0.0115 -0.0828
  138MOL   O21541589   7.633   7.455   0.127  0.1830 -0.4009 -0.2696
  138MOL   C21641590   7.636   7.263   0.268 -0.5612 -0.3524  0.3667
  138MOL   C21741591   7.775   7.313   0.316  0.6940  0.0745  0.6399
  138MOL   C21841592   7.616   7.272   7.767  0.3071  0.2733 -0.1327
  138MOL   H21941593   7.485   7.408   7.873 -1.3878 -0.7815  0.4952
  138MOL   H22041594   7.559   7.275   0.345 -1.8458 -1.3406 -0.7592
  138MOL   H22141595   7.643   7.157   0.248  0.6865 -0.5768  1.8822
  138MOL   H22241596   7.852   7.288   0.243 -0.5020 -1.4450 -0.1379
  138MOL   H22341597   7.780   7.419   0.342 -1.2559  0.5461 -0.7703
  138MOL   H22441598   7.812   7.255   0.400 -2.0284  1.1089  2.6455
  138MOL   H22541599   7.639   7.166   7.759 -1.2780 -0.2072  1.4146
  138MOL   H22641600   7.561   7.299   7.677  0.3033 -0.9041 -0.4853
  138MOL   C22741601   7.743   7.366   7.778 -0.3046 -0.5469  0.2440
  138MOL   O22841602   7.838   7.340   7.679 -0.2114 -0.1646  0.0779
  138MOL   C22941603   7.910   7.227   7.674 -0.3912 -0.5728  0.2304
  138MOL   O23041604   7.902   7.134   7.749 -0.0731  0.5207 -0.3863
  138MOL   C23141605   0.044   7.223   7.541  0.1518 -0.4464 -0.0129
  138MOL   C23241606   0.185   7.170   7.557 -0.0328  0.5133 -0.5579
  138MOL   C23341607   7.721   7.520   7.765  0.1026  0.0127  1.0211
  138MOL   H23441608   7.792   7.352   7.874 -1.2457  1.1019  0.9877
  138MOL   H23541609   0.002   7.163   7.459 -0.2781 -0.3937  0.1654
  138MOL   H23641610   0.051   7.324   7.502  0.5526 -0.2148  0.6612
  138MOL   H23741611   0.171   7.069   7.596  1.4677  0.6273  0.3094
  138MOL   H23841612   0.236   7.143   7.465  0.9068 -0.2019  0.1631
  138MOL   H23941613   0.247   7.227   7.626 -1.1397  3.3458 -1.8389
  138MOL   H24041614   7.683   7.536   7.664  2.4564  1.4581  0.3340
  138MOL   H24141615   7.645   7.552   7.837 -0.5209  0.1309  0.3207
  138MOL   C24241616   7.837   7.611   7.780 -0.2307  0.3019  0.6780
  138MOL   O24341617   7.792   7.728   7.707 -0.6353  0.2887 -0.2437
  138MOL   C24441618   7.882   7.822   7.664  0.0231 -0.0102  0.1077
  138MOL   O24541619   0.061   7.821   7.676 -0.4747 -0.3564  0.1568
  138MOL   C24641620   7.813   7.915   7.569 -0.3624  0.1631  0.0711
  138MOL   C24741621   7.887   7.939   7.435 -0.1174  0.1588  0.5074
  138MOL   C24841622   7.873   7.663   7.921 -0.0402 -0.2311 -1.3394
  138MOL   H24941623   7.928   7.569   7.737 -0.2553 -1.3737  2.1866
  138MOL   H25041624   7.712   7.881   7.548 -1.3200  3.2502 -0.4619
  138MOL   H25141625   7.797   0.069   7.612 -0.0073  0.6233 -0.8415
  138MOL   H25241626   7.814   0.017   7.357 -1.0479 -2.9654  0.3990
  138MOL   H25341627   0.012   0.077   7.449 -0.8016  1.2934 -2.3206
  138MOL   H25441628   7.936   7.845   7.410 -0.6427 -0.2132  0.8701
  138MOL   H25541629   7.932   7.754   7.915  0.2026 -0.3596 -0.9286
  138MOL   H25641630   7.784   7.702   0.026 -0.8799 -2.3598 -1.1095
  138MOL   C25741631   7.938   7.560   0.075  0.1159  0.3695 -0.6000
  138MOL   O25841632   0.122   7.521   0.015 -0.5640  0.6929  0.3812
  138MOL   C25941633   0.171   7.395   0.010 -0.1701  0.2125 -0.5912
  138MOL   O26041634   0.105   7.294   0.045  0.6401 -0.3044  0.7767
  138MOL   C26141635   0.296   7.378   7.876 -0.3901  0.5096 -1.1865
  138MOL   C26241636   0.425   7.439   7.927 -0.1850 -0.2541 -0.5333
  138MOL   C26341637   0.008   7.612   0.218 -0.1732  0.1612  0.2484
  138MOL   H26441638   7.882   7.467   0.083 -0.0178  0.5197  0.2272
  138MOL   H26541639   0.305   7.272   7.851  0.2518  0.8822 -2.6168
  138MOL   H26641640   0.282   7.427   7.779 -0.1359  1.8097 -0.5724
  138MOL   H26741641   0.458   7.396   0.077  0.7523 -1.0316 -1.2099
  138MOL   H26841642   0.504   7.430   7.853  0.1628 -0.7234 -0.1058
  138MOL   H26941643   0.394   7.540   0.009 -1.3349 -0.5430 -0.7558
  138MOL   H27041644   7.852   7.627   0.258  0.3148  0.2009  1.5091
  138MOL   H27141645   0.044   7.526   0.275  2.8738  0.6169 -0.9084
  138MOL   C27241646   0.101   7.739   0.236 -0.0288 -0.1170  0.2071
  138MOL   O27341647   0.056   7.826   0.349  0.1026 -0.1391  0.0066
  138MOL   C27441648   7.909   7.926   0.343  0.3654  0.0847 -0.0521
  138MOL   O27541649   7.863   0.028   0.233  0.2800  0.1218 -0.0487
  138MOL   C27641650   7.874   0.053   0.479  0.0414  0.1308 -0.1986
  138MOL   C27741651   7.832   7.891   0.582 -0.3802 -0.5199  0.1694
  138MOL   C27841652   0.245   7.710   0.272 -0.0818  0.1037  0.4228
  138MOL   H27941653   0.097   7.796   0.143  0.1832  1.1698  0.9770
  138MOL   H28041654   0.015   0.112   0.511  0.7559 -0.3239 -1.2419
  138MOL   H28141655   7.793   0.123   0.461  0.0175  0.4722  1.1689
  138MOL   H28241656   7.764   7.925   0.661 -1.4310  1.9104 -1.7081
  138MOL   H28341657   7.804   7.799   0.532  0.8091  0.0280 -1.5515
  138MOL   H28441658   7.919   7.861   0.641 -0.9758  0.8611  1.8188
  138MOL   H28541659   0.254   7.673   0.374  1.0523 -1.6498 -0.3027
  138MOL   H28641660   0.281   7.632   0.205 -2.8750  1.3135 -2.6288
  138MOL   C28741661   0.353   7.822   0.259 -0.0376 -0.4671  0.1967
  138MOL   O28841662   0.485   7.781   0.299 -0.1567 -0.1317  0.7502
  138MOL   C28941663   0.567   7.869   0.347 -0.0906 -0.7713 -0.2526
  138MOL   O29041664   0.545   0.046   0.350  0.3532  0.0045  0.2200
  138MOL   C29141665   0.689   7.814   0.412 -0.0832 -0.0315  0.0245
  138MOL   C29241666   0.725   7.885   0.544  0.7854  0.4955  0.4607
  138MOL   C29341667   0.361   7.863   0.108  0.4122  0.4224 -0.3112
  138MOL   H29441668   0.315   7.900   0.325 -0.1298  0.0481 -0.4565
  138MOL   H29541669   0.686   7.707   0.434  2.5795 -0.0070  0.7623
  138MOL   H29641670   0.766   7.825   0.335  0.0829  0.7341  0.3001
  138MOL   H29741671   0.832   7.877   0.565  0.6672 -1.1493  0.4823
  138MOL   H29841672   0.697   0.046   0.538 -1.8850 -0.2127 -0.0853
  138MOL   H29941673   0.673   7.848   0.632  0.2916 -1.3131 -0.5823
  138MOL   H30041674   0.358   7.784   0.033 -0.3379  0.3791 -0.2403
  138MOL   H30141675   0.273   7.927   0.097  0.5447  0.9910  1.7219
  138MOL   H30241676   0.446   7.927   0.087  1.8222 -1.7004 -1.2031
  139MOL     C141677   3.175   5.129   7.594  0.6922  0.1623 -0.3416
  139MOL     O241678   3.282   5.061   7.530  0.2902 -0.4958 -0.1850
  139MOL     C341679   3.282   5.057   7.397  0.8347  0.1356 -0.5762
  139MOL     O441680   3.192   5.094   7.320  0.2186  0.5656 -0.3052
  139MOL     C541681   3.406   4.996   7.335  0.5823 -0.3483  0.0184
  139MOL     C641682   3.542   5.067   7.367 -0.0643 -0.3853 -0.5286
  139MOL     C741683   3.055   5.030   7.624  0.2749 -0.1960  0.0955
  139MOL     H841684   3.147   5.229   7.560 -0.2482  1.5234  4.1394
  139MOL     H941685   3.406   4.902   7.390  1.1896  0.6701  1.7927
  139MOL    H1041686   3.389   4.977   7.229 -0.0486 -2.2527  0.4585
  139MOL    H1141687   3.567   5.157   7.310 -4.3154 -0.2889 -2.4497
  139MOL    H1241688   3.547   5.102   7.470  0.2683 -1.8588 -0.0427
  139MOL    H1341689   3.630   5.003   7.364 -1.9863 -3.0581 -2.5026
  139MOL    H1441690   3.000   5.017   7.531  0.8063  1.2048 -0.4433
  139MOL    H1541691   3.109   4.938   7.644 -3.1272 -2.2158  0.1968
  139MOL    H1641692   3.201   5.154   7.696 -0.3596  0.7895 -0.2171
  139MOL    C1741693   2.972   5.069   7.749  0.2516 -0.1596  0.9818
  139MOL    O1841694   2.855   4.980   7.752 -0.3362 -0.0040  0.3964
  139MOL    C1941695   2.747   5.004   7.670  0.1000 -0.6592  0.2201
  139MOL    O2041696   2.736   5.099   7.587 -0.7238 -0.4471  0.2162
  139MOL    C2141697   2.624   4.916   7.685 -0.3643  0.0403 -0.1671
  139MOL    C2241698   2.607   4.866   7.827  0.3857  0.1449  0.0867
  139MOL    C2341699   3.060   5.050   7.879 -0.3871 -0.3734 -0.0676
  139MOL    H2441700   2.949   5.174   7.735  1.5111 -0.0031 -0.1234
  139MOL    H2541701   2.538   4.976   7.655 -0.7693 -0.7800 -0.6873
  139MOL    H2641702   2.633   4.835   7.612  0.7073  0.7122 -0.7918
  139MOL    H2741703   2.624   4.946   7.899  1.2049  0.0712 -0.0137
  139MOL    H2841704   2.516   4.808   7.842  0.5822 -0.7117 -1.8841
  139MOL    H2941705   2.685   4.792   7.847  2.0688  1.2982 -2.0297
  139MOL    H3041706   3.115   4.957   7.868 -1.2228 -1.2095  2.3583
  139MOL    H3141707   3.141   5.123   7.875 -0.1315 -0.7045 -0.8727
  139MOL    C3241708   2.995   5.066   0.076 -0.5156 -0.7911 -0.6052
  139MOL    O3341709   3.086   5.050   0.176 -0.0998  0.1248 -0.0019
  139MOL    C3441710   3.125   4.919   0.218 -0.1219 -1.3617  0.5445
  139MOL    O3541711   3.084   4.814   0.166  0.0960 -0.3486 -0.0491
  139MOL    C3641712   3.234   4.933   0.319 -0.1638 -0.3993  0.5315
  139MOL    C3741713   3.226   4.822   0.425 -0.6743 -0.0249 -0.0495
  139MOL    C3841714   2.946   5.211   0.095  0.3307  0.2427 -0.2750
  139MOL    H3941715   2.914   4.995   0.093 -1.5633  0.2729 -1.0659
  139MOL    H4041716   3.324   4.950   0.260 -1.5384 -2.6216 -2.3880
  139MOL    H4141717   3.217   5.023   0.377  0.3042  0.0176  0.0254
  139MOL    H4241718   3.215   4.728   0.371 -1.7747  1.2397 -2.1059
  139MOL    H4341719   3.321   4.829   0.477 -0.9905  1.2743  0.3772
  139MOL    H4441720   3.136   4.823   0.486 -0.1119  0.7836  0.7732
  139MOL    H4541721   3.039   5.265   0.115  0.7598 -0.1624 -1.1270
  139MOL    H4641722   2.900   5.248   0.003  0.4848 -1.7833 -1.1876
  139MOL    C4741723   2.848   5.225   0.219 -0.1178 -0.8358 -0.1515
  139MOL    O4841724   2.916   5.220   0.339  0.3915 -0.0680 -0.0114
  139MOL    C4941725   2.863   5.147   0.436 -0.3217 -0.0055  0.2245
  139MOL    O5041726   2.741   5.126   0.451 -0.2388 -0.2584 -0.1615
  139MOL    C5141727   2.960   5.125   0.550 -0.1155  0.0091  0.3314
  139MOL    C5241728   2.963   5.262   0.627 -0.0222  0.2821  0.1965
  139MOL    C5341729   2.777   5.363   0.216 -0.0509 -0.3489  0.5124
  139MOL    H5441730   2.767   5.152   0.218  1.0466 -2.1787  1.8309
  139MOL    H5541731   2.923   5.049   0.618 -1.9342  0.0582 -0.5867
  139MOL    H5641732   3.060   5.092   0.524  1.0020  4.3962 -1.4096
  139MOL    H5741733   2.867   5.291   0.668 -1.1969 -1.2600 -1.3867
  139MOL    H5841734   3.031   5.243   0.711  0.2315  0.9760  0.1499
  139MOL    H5941735   3.003   5.335   0.557  0.0268  0.1790  0.1161
  139MOL    H6041736   2.709   5.381   0.299  1.3660  0.7787  1.4376
  139MOL    H6141737   2.842   5.447   0.239  0.7507 -0.0708 -2.5183
  139MOL    C6241738   2.696   5.397   0.085  0.0263 -0.7011 -0.8950
  139MOL    O6341739   2.579   5.316   0.087 -0.3037 -0.2115 -0.1352
  139MOL    C6441740   2.507   5.291   7.915 -0.3586 -0.0866  0.0794
  139MOL    O6541741   2.520   5.355   7.806  0.2247 -0.2614  0.1054
  139MOL    C6641742   2.404   5.181   7.934 -0.0473  0.5404 -0.5463
  139MOL    C6741743   2.320   5.153   7.817  0.2921 -0.2741  0.3602
  139MOL    C6841744   2.671   5.544   0.084 -0.2350 -0.6533  0.6481
  139MOL    H6941745   2.748   5.377   7.937  0.2486 -0.0595 -0.9132
  139MOL    H7041746   2.467   5.093   0.007 -1.8232 -0.7114 -0.2444
  139MOL    H7141747   2.350   5.214   0.078 -1.2161 -1.2988 -0.5351
  139MOL    H7241748   2.241   5.084   7.847  0.4455 -0.3741  0.5296
  139MOL    H7341749   2.268   5.245   7.789  1.8490  0.0782 -1.4270
  139MOL    H7441750   2.380   5.121   7.732 -0.0101  3.5279 -1.3955
  139MOL    H7541751   2.601   5.560   0.002  1.7206 -0.8901 -1.1317
  139MOL    H7641752   2.608   5.572   0.168 -2.1576 -2.1876 -0.2358
  139MOL    C7741753   2.788   5.644   0.070 -0.6435 -0.0049  0.2676
  139MOL    O7841754   2.858   5.617   7.889 -0.1318  0.4011 -0.0364
  139MOL    C7941755   2.990   5.584   7.884 -0.3246  0.7031  0.2096
  139MOL    O8041756   3.055   5.533   0.030 -0.2138 -0.1905  0.5537
  139MOL    C8141757   3.039   5.592   7.736 -0.2409  0.0820  0.1077
  139MOL    C8241758   3.034   5.452   7.682 -0.4202  0.2952 -0.4734
  139MOL    C8341759   2.741   5.793   0.059  0.4723 -0.3838  0.5186
  139MOL    H8441760   2.854   5.622   0.154 -0.6213 -0.4549  0.1346
  139MOL    H8541761   2.990   5.659   7.665  3.8484  2.3767 -0.7111
  139MOL    H8641762   3.144   5.620   7.750 -0.0930 -0.8469  0.8619
  139MOL    H8741763   3.064   5.453   7.577  0.6602  1.2536 -0.1706
  139MOL    H8841764   3.089   5.375   7.737  0.7794  1.0557 -0.6043
  139MOL    H8941765   2.933   5.411   7.688  0.5705 -2.1496  0.4164
  139MOL    H9041766   2.825   5.849   0.018 -0.5310  0.7002 -0.0860
  139MOL    H9141767   2.667   5.815   7.927  0.5563 -0.6932  0.3477
  139MOL    C9241768   2.675   5.854   0.185  0.7597  0.1321 -0.2716
  139MOL    O9341769   2.712   5.991   0.222  0.5133 -0.6362 -0.2982
  139MOL    C9441770   2.753   6.025   0.343 -0.6059  0.0040  0.4768
  139MOL    O9541771   2.748   5.949   0.440 -0.2340 -0.3426 -0.0352
  139MOL    C9641772   2.812   6.165   0.359  0.4664 -0.2251 -0.5087
  139MOL    C9741773   2.706   6.283   0.327 -0.4533  0.2291 -0.3300
  139MOL    C9841774   2.522   5.858   0.154 -0.6643  0.4599 -0.4893
  139MOL    H9941775   2.701   5.786   0.266  2.4899  0.5171 -0.4925
  139MOL   H10041776   2.860   6.178   0.456 -1.6314 -0.5428  0.6006
  139MOL   H10141777   2.888   6.174   0.282  1.3972 -1.5264  0.2398
  139MOL   H10241778   2.667   6.268   0.227 -1.6683 -0.1486  0.1870
  139MOL   H10341779   2.625   6.271   0.399 -0.0723  0.4867  0.1444
  139MOL   H10441780   2.752   6.381   0.340 -0.5049  0.1314  0.6943
  139MOL   H10541781   2.500   5.929   0.074 -0.2331 -1.5066 -2.4343
  139MOL   H10641782   2.496   5.758   0.118  0.2434  0.5626 -1.4477
  139MOL   C10741783   2.449   5.906   0.279 -0.2558 -0.2239  0.1750
  139MOL   O10841784   2.317   5.954   0.251 -0.5508 -0.0213  0.3516
  139MOL   C10941785   2.300   6.085   0.226 -0.0649  0.2837 -0.0667
  139MOL   O11041786   2.387   6.171   0.250  0.3417 -0.0738 -0.7699
  139MOL   C11141787   2.158   6.121   0.177 -1.0257 -0.0540  0.4398
  139MOL   C11241788   2.055   6.136   0.283 -0.1000  0.0748  0.1622
  139MOL   C11341789   2.420   5.787   0.378  0.7579 -0.3589 -0.1467
  139MOL   H11441790   2.507   5.982   0.332  0.8038 -1.4917  0.8625
  139MOL   H11541791   2.166   6.219   0.129 -0.9704  0.0573  0.6726
  139MOL   H11641792   2.128   6.062   0.091  0.5905  1.5914 -1.3105
  139MOL   H11741793   2.086   6.209   0.358  3.1934 -1.1513  0.0699
  139MOL   H11841794   1.963   6.175   0.240 -0.2433  0.4584  0.7989
  139MOL   H11941795   2.042   6.042   0.336  0.0289  1.1552  2.1744
  139MOL   H12041796   2.363   5.712   0.322 -2.2440 -0.4472  2.9146
  139MOL   H12141797   2.517   5.747   0.406 -0.6911 -4.2509 -0.2471
  139MOL   C12241798   2.344   5.822   0.511  0.2467  0.5298 -0.3006
  139MOL   O12341799   2.295   5.703   0.572  0.0423  0.0932 -0.0754
  139MOL   C12441800   2.179   5.705   0.637  0.2873  0.3518  0.4389
  139MOL   O12541801   2.096   5.794   0.619  0.0204  0.2885 -0.3147
  139MOL   C12641802   2.144   5.587   0.726 -0.0150 -0.9593 -0.0508
  139MOL   C12741803   2.250   5.562   0.835  0.0570 -0.1744  0.0258
  139MOL   C12841804   2.440   5.892   0.606 -0.1376 -0.3963 -0.6691
  139MOL   H12941805   2.263   5.891   0.486 -0.9620 -1.4211 -1.9123
  139MOL   H13041806   2.044   5.605   0.763  1.7627  1.9793  3.6628
  139MOL   H13141807   2.135   5.510   0.649 -0.4594 -0.0563 -0.9206
  139MOL   H13241808   2.206   5.489   0.903 -2.0908  1.9214  0.9718
  139MOL   H13341809   2.353   5.538   0.810  0.4100 -0.4816  1.7173
  139MOL   H13441810   2.266   5.650   0.897  0.1506  0.1516 -0.4587
  139MOL   H13541811   2.493   5.818   0.666 -1.4378  1.0886  2.4437
  139MOL   H13641812   2.504   5.962   0.554  0.0118 -0.5101 -0.6383
  139MOL   C13741813   2.363   5.978   0.709  0.8362 -0.3036 -0.3675
  139MOL   O13841814   2.473   6.009   0.798 -0.6817  0.1809 -0.2888
  139MOL   C13941815   2.485   5.956   0.926 -0.1708 -0.7604  1.0442
  139MOL   O14041816   2.422   5.858   0.964 -0.5025 -0.3572  0.3984
  139MOL   C14141817   2.580   6.020   1.025  0.6460  0.2114 -0.3443
  139MOL   C14241818   2.518   6.126   1.108 -0.5751  0.2385 -0.5948
  139MOL   C14341819   2.297   6.103   0.654 -0.7497 -0.3161 -0.7438
  139MOL   H14441820   2.290   5.928   0.773 -0.1024  2.3589  0.7255
  139MOL   H14541821   2.642   5.950   1.081  0.6018  1.1141  0.8442
  139MOL   H14641822   2.666   6.061   0.973  0.3420 -1.4254 -2.2009
  139MOL   H14741823   2.446   6.090   1.182  0.6435  0.8213  0.9061
  139MOL   H14841824   2.593   6.155   1.182 -0.8099  0.4345 -0.4343
  139MOL   H14941825   2.485   6.212   1.051 -1.4971  1.0025  1.0648
  139MOL   H15041826   2.363   6.169   0.598  1.2553 -3.5967 -2.4145
  139MOL   H15141827   2.215   6.076   0.586 -0.2940  0.1465 -1.4797
  139MOL   C15241828   2.243   6.198   0.766 -0.2080  0.1507  0.2291
  139MOL   O15341829   2.231   6.338   0.718 -0.3273 -0.5691  0.3977
  139MOL   C15441830   2.276   6.441   0.790 -0.2790 -0.6206  0.2423
  139MOL   O15541831   2.325   6.431   0.903  0.0357  0.9115  0.2225
  139MOL   C15641832   2.271   6.575   0.723  0.1429 -0.6783  0.1414
  139MOL   C15741833   2.383   6.581   0.615 -0.2844 -0.0615  0.6217
  139MOL   C15841834   2.102   6.163   0.826 -0.2123 -0.5947  0.7611
  139MOL   H15941835   2.317   6.210   0.846 -0.2304  0.0163  0.2703
  139MOL   H16041836   2.168   6.583   0.688 -0.8655  1.5503  3.3783
  139MOL   H16141837   2.282   6.648   0.803 -0.4166 -0.3362 -0.0886
  139MOL   H16241838   2.369   6.668   0.550  0.9660  1.1959  1.9808
  139MOL   H16341839   2.473   6.591   0.676 -0.9795  2.4870  1.3096
  139MOL   H16441840   2.375   6.498   0.545 -2.4809 -0.3637  1.1934
  139MOL   H16541841   2.034   6.218   0.760  1.2075  0.3237  0.0437
  139MOL   H16641842   2.084   6.056   0.818 -1.5109 -0.6138  3.4130
  139MOL   C16741843   2.077   6.182   0.978  0.1070 -0.2286  0.6395
  139MOL   O16841844   1.935   6.156   1.007 -0.0999  0.1061  0.6247
  139MOL   C16941845   1.857   6.233   1.078  0.7485  0.5816  0.2816
  139MOL   O17041846   1.883   6.351   1.100  0.4242  0.1639  0.7298
  139MOL   C17141847   1.728   6.170   1.142  0.4071 -0.3926 -0.2109
  139MOL   C17241848   1.742   6.112   1.276 -0.0767  0.1100  0.2071
  139MOL   C17341849   2.165   6.088   1.063 -0.4761  0.3521 -0.4611
  139MOL   H17441850   2.103   6.285   1.003 -0.9026 -0.2764  1.9959
  139MOL   H17541851   1.663   6.253   1.166 -0.8137 -0.9572 -1.4848
  139MOL   H17641852   1.674   6.118   1.063  2.0257 -0.3337 -1.3796
  139MOL   H17741853   1.645   6.075   1.310 -0.0121 -0.7481 -0.5258
  139MOL   H17841854   1.825   6.043   1.266 -1.4689 -1.3921 -1.4731
  139MOL   H17941855   1.765   6.193   1.345 -0.6884  1.0268 -0.6438
  139MOL   H18041856   2.145   5.984   1.036  1.3819  0.2273 -1.4126
  139MOL   H18141857   2.271   6.097   1.038  0.4537 -1.2642  2.6195
  139MOL   C18241858   2.148   6.097   1.218  0.6537 -0.0045 -0.0483
  139MOL   O18341859   2.215   5.989   1.285 -0.8827 -0.3233 -0.2122
  139MOL   C18441860   2.147   5.899   1.351 -1.3608  0.1130  0.1661
  139MOL   O18541861   2.025   5.893   1.372  0.1251  0.0349  0.5620
  139MOL   C18641862   2.241   5.795   1.397 -0.3022  0.8445  0.6083
  139MOL   C18741863   2.285   5.703   1.280 -0.4914  0.3272 -0.0398
  139MOL   C18841864   2.180   6.238   1.279  0.4400 -0.7432 -0.2940
  139MOL   H18941865   2.041   6.079   1.228  1.0008 -2.2534 -0.0495
  139MOL   H19041866   2.325   5.854   1.435  0.1125  1.3966 -1.1262
  139MOL   H19141867   2.190   5.735   1.472 -0.1456 -1.3310 -1.0011
  139MOL   H19241868   2.339   5.615   1.313  0.6955  0.6802 -1.0273
  139MOL   H19341869   2.193   5.665   1.234 -0.6892  0.9804 -0.1854
  139MOL   H19441870   2.344   5.757   1.206  1.2866 -1.0349  0.3614
  139MOL   H19541871   2.284   6.258   1.252 -0.1343  1.4760 -0.9470
  139MOL   H19641872   2.114   6.311   1.233 -0.8863 -1.4891  0.4177
  139MOL   C19741873   2.184   6.231   1.434 -0.4112 -0.0672 -0.7495
  139MOL   O19841874   2.256   6.348   1.488  0.5848  0.0505  0.0949
  139MOL   C19941875   2.391   6.348   1.514  0.5399 -0.3655  0.3616
  139MOL   O20041876   2.478   6.254   1.503  0.2617 -0.1317  0.4247
  139MOL   C20141877   2.444   6.488   1.544  0.2703  0.2835  0.2788
  139MOL   C20241878   2.586   6.489   1.604  0.6687  0.0926 -0.1808
  139MOL   C20341879   2.041   6.211   1.489 -0.2319 -0.0177  0.3990
  139MOL   H20441880   2.243   6.143   1.462  1.2606  0.1514 -3.3813
  139MOL   H20541881   2.440   6.546   1.451  1.9064  1.8571  1.1553
  139MOL   H20641882   2.384   6.532   1.624 -1.3279 -1.7429  0.2487
  139MOL   H20741883   2.661   6.445   1.539  0.1747  1.0759 -1.4294
  139MOL   H20841884   2.618   6.583   1.649  0.2446 -0.0494  0.4189
  139MOL   H20941885   2.576   6.421   1.689  0.0917 -0.8144 -0.9759
  139MOL   H21041886   1.995   6.309   1.474 -1.8090 -1.1329 -2.3786
  139MOL   H21141887   1.976   6.142   1.436 -2.5295 -0.3271  3.4491
  139MOL   C21241888   2.032   6.174   1.639 -0.0267  0.5290 -0.2634
  139MOL   O21341889   2.073   6.279   1.728  0.6740  0.5227  0.1781
  139MOL   C21441890   2.173   6.270   1.816  0.1181  0.3438 -0.2873
  139MOL   O21541891   2.240   6.173   1.825 -0.8243  0.0282  0.4318
  139MOL   C21641892   2.198   6.388   1.913  0.0134 -0.2530  0.6031
  139MOL   C21741893   2.193   6.525   1.841 -0.3412 -0.3554  1.1764
  139MOL   C21841894   1.889   6.123   1.675  0.1588 -0.4372  0.0512
  139MOL   H21941895   2.101   6.090   1.647 -0.4859  0.1788  0.0827
  139MOL   H22041896   2.118   6.398   1.987 -1.9503  3.6995 -1.8966
  139MOL   H22141897   2.294   6.383   1.965 -0.1239  1.0005  0.9983
  139MOL   H22241898   2.142   6.522   1.745  0.2304  1.0747  0.8255
  139MOL   H22341899   2.158   6.611   1.898 -0.5715  1.0597 -1.0336
  139MOL   H22441900   2.295   6.544   1.807 -1.2629 -0.2893 -1.7502
  139MOL   H22541901   1.834   6.216   1.690  0.8835  0.1187 -0.6903
  139MOL   H22641902   1.840   6.065   1.597 -0.6647 -0.4991  0.6047
  139MOL   C22741903   1.883   6.046   1.818 -0.2016  0.1609  0.2365
  139MOL   O22841904   1.776   6.094   1.896  0.2501 -0.2931  0.0563
  139MOL   C22941905   1.798   6.125   2.021  0.6435 -0.8550 -0.0634
  139MOL   O23041906   1.897   6.090   2.088 -0.1891 -0.1497  0.3891
  139MOL   C23141907   1.686   6.213   2.082 -0.5747  0.2475  0.0911
  139MOL   C23241908   1.676   6.347   2.007 -0.3539 -0.3488 -0.3985
  139MOL   C23341909   1.858   5.895   1.809  0.4522  0.0342  0.8714
  139MOL   H23441910   1.973   6.074   1.874 -0.6288 -0.3440  1.1846
  139MOL   H23541911   1.593   6.159   2.072 -0.1577 -0.4428 -0.0700
  139MOL   H23641912   1.710   6.234   2.186  0.6042 -0.6622  0.0196
  139MOL   H23741913   1.634   6.418   2.079  1.6439 -0.4413  0.8891
  139MOL   H23841914   1.775   6.386   1.985 -0.1586 -0.5598  0.0841
  139MOL   H23941915   1.611   6.326   1.922 -0.3149 -3.3539  0.2379
  139MOL   H24041916   1.828   5.851   1.904  1.9262  0.0885  1.3854
  139MOL   H24141917   1.776   5.886   1.738  1.6121  2.2938 -0.8350
  139MOL   C24241918   1.973   5.810   1.757  0.2387  0.0467 -0.2211
  139MOL   O24341919   2.078   5.828   1.855  0.5311  0.0773 -0.0409
  139MOL   C24441920   2.205   5.821   1.823  0.1601 -0.4493 -0.7629
  139MOL   O24541921   2.256   5.822   1.713 -0.0745 -0.2716 -0.2960
  139MOL   C24641922   2.298   5.814   1.944 -0.1807 -0.4137  0.1893
  139MOL   C24741923   2.267   5.928   2.035 -0.0199 -0.2181 -0.4857
  139MOL   C24841924   1.954   5.653   1.753 -0.1885  0.6973 -0.3527
  139MOL   H24941925   2.005   5.845   1.659 -2.1487 -0.5090 -1.2429
  139MOL   H25041926   2.291   5.713   1.984  0.9409 -0.4787  0.2146
  139MOL   H25141927   2.394   5.836   1.897 -0.6560 -0.0745 -0.6463
  139MOL   H25241928   2.161   5.935   2.062  0.2919  1.8739  0.3289
  139MOL   H25341929   2.317   5.904   2.129  0.6615  1.1871 -0.4734
  139MOL   H25441930   2.303   6.027   2.006 -2.5954  0.6910 -0.7475
  139MOL   H25541931   2.050   5.603   1.741  0.4707  0.8811  3.3763
  139MOL   H25641932   1.928   5.614   1.851 -1.2018 -0.7375 -1.1762
  139MOL   C25741933   1.867   5.587   1.644 -0.7730 -0.1763  0.0516
  139MOL   O25841934   1.733   5.615   1.675 -0.0780  0.5481  0.3659
  139MOL   C25941935   1.641   5.516   1.677 -0.1808 -0.0966  0.5799
  139MOL   O26041936   1.645   5.401   1.643  0.3043  0.3374  0.1777
  139MOL   C26141937   1.510   5.566   1.747  0.4676  0.3257  0.7404
  139MOL   C26241938   1.531   5.616   1.886 -0.1319  0.3297  0.5749
  139MOL   C26341939   1.904   5.634   1.504  0.6349 -0.2573 -0.5296
  139MOL   H26441940   1.895   5.482   1.648  1.5318  0.3850 -0.5525
  139MOL   H26541941   1.455   5.643   1.693 -1.0819 -1.8422 -0.8963
  139MOL   H26641942   1.447   5.478   1.735  0.2340  0.5343  0.4365
  139MOL   H26741943   1.614   5.687   1.882 -0.5017  0.6684 -1.4429
  139MOL   H26841944   1.449   5.666   1.938  1.1543 -1.0678  4.1280
  139MOL   H26941945   1.562   5.533   1.949  2.4025 -0.1680 -1.2529
  139MOL   H27041946   1.869   5.738   1.499 -0.0434 -0.4107  0.7567
  139MOL   H27141947   2.011   5.639   1.489  0.5477 -0.4941 -1.2270
  139MOL   C27241948   1.837   5.560   1.395  0.0355 -0.7506  0.2784
  139MOL   O27341949   1.864   5.634   1.285  0.5115  0.4524  0.1409
  139MOL   C27441950   1.781   5.729   1.234  0.0742  0.5727 -0.1581
  139MOL   O27541951   1.677   5.763   1.283 -0.2476 -0.1114 -0.3222
  139MOL   C27641952   1.835   5.792   1.104  0.1864 -0.0695  0.0680
  139MOL   C27741953   1.919   5.692   1.016 -0.5104  0.1507 -0.9644
  139MOL   C27841954   1.899   5.423   1.383 -0.1280 -0.1811 -0.1633
  139MOL   H27941955   1.730   5.548   1.414  0.7522 -1.5350  4.1792
  139MOL   H28041956   1.757   5.832   1.040  0.1452  0.4364  0.4360
  139MOL   H28141957   1.898   5.877   1.129 -0.8997 -0.0305  2.7727
  139MOL   H28241958   1.971   5.620   1.080 -1.5480  0.3411  0.1105
  139MOL   H28341959   1.849   5.627   0.964 -0.7212  0.2256 -0.7686
  139MOL   H28441960   1.995   5.738   0.952 -0.5217  2.5486  0.6878
  139MOL   H28541961   2.006   5.426   1.363 -0.2683  3.5477 -0.7106
  139MOL   H28641962   1.901   5.363   1.473  1.2465 -1.1670 -0.8325
  139MOL   C28741963   1.829   5.329   1.282 -0.3365 -0.3865 -0.5238
  139MOL   O28841964   1.921   5.228   1.249 -0.1336  0.5836  0.5336
  139MOL   C28941965   2.023   5.254   1.161  0.2440 -0.4792 -0.0825
  139MOL   O29041966   2.028   5.345   1.079 -0.6072  0.1646  0.2215
  139MOL   C29141967   2.126   5.142   1.166 -0.3162 -0.3620 -0.2735
  139MOL   C29241968   2.265   5.181   1.105 -0.3663  0.3759  0.6851
  139MOL   C29341969   1.701   5.269   1.329  0.3468  0.7059 -0.2061
  139MOL   H29441970   1.811   5.383   1.190  2.3636 -0.5298 -1.1896
  139MOL   H29541971   2.136   5.138   1.275 -0.4382 -2.0791 -0.3082
  139MOL   H29641972   2.099   5.048   1.118 -1.9072 -0.8062  1.4474
  139MOL   H29741973   2.291   5.286   1.121  0.8246  0.0128  1.1828
  139MOL   H29841974   2.338   5.111   1.145 -0.3141 -0.8257 -1.4625
  139MOL   H29941975   2.262   5.171   0.997  0.0690  0.0677  0.7038
  139MOL   H30041976   1.721   5.204   1.414  1.0022  0.3977 -0.5948
  139MOL   H30141977   1.631   5.349   1.351  0.6404  1.4922 -2.0151
  139MOL   H30241978   1.657   5.215   1.245 -0.8306  0.9038  0.2762
  140MOL     C141979   3.744   4.775   0.336 -0.0940 -0.8407 -0.2753
  140MOL     O241980   3.795   4.753   0.202  0.2819 -0.0276 -0.4972
  140MOL     C341981   3.866   4.641   0.177 -0.2471  0.3530 -1.1038
  140MOL     O441982   3.880   4.542   0.255  0.0140 -0.7638 -0.7587
  140MOL     C541983   3.914   4.633   0.035  0.5409  0.6218 -0.0435
  140MOL     C641984   4.037   4.545   0.008 -0.8439 -0.0987 -0.4577
  140MOL     C741985   3.844   4.857   0.420 -0.1090 -0.0147 -0.3051
  140MOL     H841986   3.721   4.684   0.393 -0.0044 -0.6383  0.0883
  140MOL     H941987   3.834   4.602   7.914  0.9978  0.6529 -0.6184
  140MOL    H1041988   3.934   4.731   7.937  2.8279  0.6430  0.9912
  140MOL    H1141989   4.129   4.585   0.051 -0.5650 -0.7927 -0.3993
  140MOL    H1241990   4.032   4.444   0.050  2.1609  0.1877  0.7528
  140MOL    H1341991   4.058   4.539   7.846  0.5726  1.4444 -0.2960
  140MOL    H1441992   3.933   4.799   0.443 -0.1515 -0.1780 -0.5569
  140MOL    H1541993   3.884   4.936   0.357  1.3461 -0.3731  0.1577
  140MOL    H1641994   3.647   4.821   0.319 -0.1624 -1.0302 -0.4010
  140MOL    C1741995   3.776   4.930   0.541 -0.2283 -0.2347 -0.0104
  140MOL    O1841996   3.763   4.834   0.639 -0.4794 -0.0687 -0.2735
  140MOL    C1941997   3.651   4.812   0.704  0.5583  0.2617  0.7707
  140MOL    O2041998   3.538   4.856   0.667 -0.1547  0.1395 -0.5110
  140MOL    C2141999   3.676   4.733   0.834 -0.1978  0.0462  0.2520
  140MOL    C2242000   3.721   4.590   0.816  0.0438 -0.8707 -0.3409
  140MOL    C2342001   3.870   5.043   0.597 -0.1419  0.2079 -0.4646
  140MOL    H2442002   3.677   4.966   0.515 -0.4420 -2.1591 -1.9786
  140MOL    H2542003   3.747   4.794   0.889 -1.5153  0.8007  1.1262
  140MOL    H2642004   3.584   4.744   0.891 -0.0274  1.4868  0.2473
  140MOL    H2742005   3.731   4.531   0.907  0.0646 -3.0807 -1.7332
  140MOL    H2842006   3.645   4.543   0.753 -1.1594  0.2517  0.2517
  140MOL    H2942007   3.814   4.571   0.763  1.0189 -0.4012  1.1736
  140MOL    H3042008   3.949   4.998   0.657  0.7309 -2.1904 -3.2625
  140MOL    H3142009   3.914   5.097   0.513  1.1486 -1.0798 -0.6429
  140MOL    C3242010   3.800   5.155   0.680  0.4108  0.3212  0.2497
  140MOL    O3342011   3.907   5.244   0.725  0.2203 -0.2443 -0.6118
  140MOL    C3442012   3.973   5.220   0.840  0.0738 -0.2274 -0.8290
  140MOL    O3542013   3.982   5.117   0.896 -1.4343  0.1342 -0.1920
  140MOL    C3642014   4.042   5.345   0.899  0.9165  0.3689  0.0214
  140MOL    C3742015   4.046   5.474   0.810  0.3385 -0.4118 -0.2791
  140MOL    C3842016   3.688   5.234   0.601  0.9053  0.1145  0.0435
  140MOL    H3942017   3.755   5.102   0.764  0.5438  0.9548  0.7260
  140MOL    H4042018   3.996   5.371   0.994 -3.2200 -0.3056 -1.6983
  140MOL    H4142019   4.143   5.326   0.935  0.4412  2.1155  2.3951
  140MOL    H4242020   4.093   5.439   0.718  2.6083  0.2234  0.5920
  140MOL    H4342021   3.941   5.499   0.795  0.4402  0.0139 -0.2851
  140MOL    H4442022   4.090   5.562   0.857 -2.8287  0.4099  1.2600
  140MOL    H4542023   3.607   5.162   0.600  0.7184  0.3293 -1.2185
  140MOL    H4642024   3.663   5.322   0.660 -1.8989  1.3833 -2.8827
  140MOL    C4742025   3.711   5.283   0.460 -0.0301  0.3548 -0.4031
  140MOL    O4842026   3.586   5.308   0.385 -0.0064 -0.0142 -0.5674
  140MOL    C4942027   3.541   5.207   0.307 -0.2979 -0.2572  0.5759
  140MOL    O5042028   3.594   5.095   0.295 -0.3514  0.0678  0.0628
  140MOL    C5142029   3.412   5.247   0.241  0.0359  0.6258 -0.1896
  140MOL    C5242030   3.312   5.299   0.346 -0.1260 -0.5067 -0.4335
  140MOL    C5342031   3.795   5.413   0.448 -0.3473  0.2681 -0.1985
  140MOL    H5442032   3.775   5.213   0.406  1.7019 -0.0009  2.0643
  140MOL    H5542033   3.422   5.321   0.161  1.0448 -0.2087 -0.8538
  140MOL    H5642034   3.368   5.157   0.198 -0.5413  2.0304 -2.6639
  140MOL    H5742035   3.364   5.382   0.392 -0.0275 -0.6797 -0.2315
  140MOL    H5842036   3.219   5.324   0.295 -0.6082  1.4195  1.3164
  140MOL    H5942037   3.286   5.233   0.429 -0.7918 -1.0379 -1.0514
  140MOL    H6042038   3.727   5.490   0.486 -1.1359  0.9027 -2.7925
  140MOL    H6142039   3.885   5.406   0.510  1.9225  1.4711 -3.2351
  140MOL    C6242040   3.831   5.456   0.301  0.0291 -0.3148  0.2208
  140MOL    O6342041   3.736   5.555   0.261 -0.1379 -0.4621 -0.5636
  140MOL    C6442042   3.641   5.531   0.167  0.3082 -0.6362 -0.2874
  140MOL    O6542043   3.645   5.436   0.091  0.3732 -0.3497  0.3138
  140MOL    C6642044   3.542   5.642   0.151  0.4716  0.3267 -0.1976
  140MOL    C6742045   3.595   5.788   0.142 -0.2968  0.2440 -0.1722
  140MOL    C6842046   3.978   5.495   0.292 -0.5580  0.4468  0.3270
  140MOL    H6942047   3.832   5.368   0.237  0.8893 -0.0977 -0.0676
  140MOL    H7042048   3.489   5.627   0.057  0.2347  1.6456 -0.2801
  140MOL    H7142049   3.469   5.642   0.231 -0.6955 -0.1398 -1.2385
  140MOL    H7242050   3.665   5.786   0.058  1.3591 -1.8111  1.1766
  140MOL    H7342051   3.510   5.856   0.137 -0.0964  0.5727  0.7495
  140MOL    H7442052   3.659   5.817   0.225  0.9896 -0.6279 -0.8423
  140MOL    H7542053   3.999   5.536   0.193 -0.1354 -0.1009  0.1871
  140MOL    H7642054   4.002   5.577   0.359  0.9797  0.1609  0.1399
  140MOL    C7742055   4.074   5.372   0.308  0.1166 -0.4781 -0.2046
  140MOL    O7842056   4.072   5.316   0.177 -0.0197  0.4357  0.4675
  140MOL    C7942057   4.057   5.179   0.155  0.0792  0.6808 -0.2092
  140MOL    O8042058   4.070   5.098   0.249 -0.1238  0.3221 -0.0942
  140MOL    C8142059   4.024   5.145   0.015  0.4795 -0.0694  1.0528
  140MOL    C8242060   3.881   5.199   7.917 -0.1439  0.6434 -0.7040
  140MOL    C8342061   4.213   5.420   0.359  0.2084 -0.4403  0.0613
  140MOL    H8442062   4.028   5.310   0.385 -0.6622 -1.1797 -1.2229
  140MOL    H8542063   4.097   5.191   7.892  2.5303  0.3078  3.4372
  140MOL    H8642064   4.016   5.038   7.940  1.4592  0.2464 -1.1981
  140MOL    H8742065   3.900   5.302   7.885 -1.3447  1.5363  1.3511
  140MOL    H8842066   3.827   5.138   7.845  0.9933 -1.9973  0.6116
  140MOL    H8942067   3.815   5.217   0.057  2.7707  1.5473  1.4803
  140MOL    H9042068   4.259   5.458   0.268  0.4081  0.6424  0.6053
  140MOL    H9142069   4.190   5.498   0.431 -0.4662  0.3549 -1.0001
  140MOL    C9242070   4.292   5.299   0.414 -0.9073 -0.5819 -0.1516
  140MOL    O9342071   4.433   5.330   0.398 -0.0898  0.0970 -0.0688
  140MOL    C9442072   4.496   5.291   0.290  0.6413  0.4143 -0.7344
  140MOL    O9542073   4.457   5.203   0.212 -0.7422 -0.8117  0.2486
  140MOL    C9642074   4.638   5.352   0.287 -0.3493 -0.9076 -0.2792
  140MOL    C9742075   4.743   5.268   0.220 -0.6805 -0.4833  0.2039
  140MOL    C9842076   4.263   5.265   0.562 -1.0319  0.9014 -0.1631
  140MOL    H9942077   4.263   5.214   0.352  0.6636 -1.5233  0.3699
  140MOL   H10042078   4.617   5.453   0.253 -2.9196 -1.3629 -0.1190
  140MOL   H10142079   4.666   5.354   0.392 -2.4610 -0.4021  0.2870
  140MOL   H10242080   4.754   5.265   0.111 -1.4153  0.4268  0.0935
  140MOL   H10342081   4.836   5.301   0.265 -0.4203  0.5554 -1.0546
  140MOL   H10442082   4.735   5.166   0.255  0.2548 -0.4137  0.6139
  140MOL   H10542083   4.307   5.345   0.621  0.7023 -0.0279 -0.1586
  140MOL   H10642084   4.155   5.253   0.573 -0.9694 -1.8790 -1.9951
  140MOL   C10742085   4.325   5.131   0.593  0.3245 -0.4734 -0.4982
  140MOL   O10842086   4.324   5.131   0.741 -0.2338  0.1520 -0.5210
  140MOL   C10942087   4.429   5.064   0.801  0.3505  0.2786 -0.6893
  140MOL   O11042088   4.489   4.975   0.747 -0.5468 -0.1477  0.6062
  140MOL   C11142089   4.451   5.097   0.953  0.3736 -0.4607  0.0076
  140MOL   C11242090   4.466   5.253   0.966  0.1347 -0.1916  0.1871
  140MOL   C11342091   4.246   5.013   0.541  0.2455 -0.2012 -0.0049
  140MOL   H11442092   4.427   5.125   0.557 -0.1199 -0.4937 -1.7657
  140MOL   H11542093   4.362   5.082   1.014 -0.0956  2.4566  0.1078
  140MOL   H11642094   4.544   5.055   0.990 -0.1988 -1.5705  0.2096
  140MOL   H11742095   4.554   5.298   0.918 -0.6791 -0.0590 -1.2169
  140MOL   H11842096   4.375   5.300   0.927  1.4432  2.6502  0.3958
  140MOL   H11942097   4.476   5.297   1.066  0.9534  0.3680 -0.1290
  140MOL   H12042098   4.185   4.984   0.627  0.5947  1.5892  0.8663
  140MOL   H12142099   4.172   5.047   0.469  0.4636 -0.7182 -0.4734
  140MOL   C12242100   4.333   4.895   0.483  0.0306  1.1802 -0.3460
  140MOL   O12342101   4.243   4.789   0.459  0.4411  0.4504 -0.0772
  140MOL   C12442102   4.250   4.669   0.514 -0.5144 -0.7234  0.4501
  140MOL   O12542103   4.348   4.626   0.577 -0.0745  0.4187  0.0748
  140MOL   C12642104   4.131   4.584   0.483 -0.3190 -0.4329 -0.0896
  140MOL   C12742105   4.043   4.574   0.608 -0.3526 -0.4445 -0.3396
  140MOL   C12842106   4.402   4.925   0.356  0.0845 -0.0562 -0.2378
  140MOL   H12942107   4.409   4.867   0.556  0.6201  0.2246 -1.3228
  140MOL   H13042108   4.069   4.628   0.405 -0.4026  1.4232  1.0174
  140MOL   H13142109   4.166   4.486   0.449 -1.2202 -1.0556  0.7374
  140MOL   H13242110   4.064   4.487   0.670 -1.3342 -1.7364 -1.8176
  140MOL   H13342111   4.054   4.649   0.687  1.2942 -0.1079 -0.8790
  140MOL   H13442112   3.938   4.576   0.578 -0.3559  1.4871 -0.3218
  140MOL   H13542113   4.331   4.978   0.293 -0.1753 -1.8142 -1.4492
  140MOL   H13642114   4.471   5.007   0.379 -0.6263  1.1615 -2.3088
  140MOL   C13742115   4.477   4.817   0.274  0.6306  0.2571  0.3387
  140MOL   O13842116   4.536   4.879   0.170 -0.6521  0.1096  0.6518
  140MOL   C13942117   4.487   4.891   0.038 -0.1887  0.9259 -0.7705
  140MOL   O14042118   4.374   4.856   7.944  0.4206 -0.1362 -0.3647
  140MOL   C14142119   4.594   4.946   7.891 -0.5027  0.2656 -0.4608
  140MOL   C14242120   4.716   4.859   7.877  0.5576  0.4061  0.7481
  140MOL   C14342121   4.589   4.746   0.349 -0.0424  0.3039 -0.1101
  140MOL   H14442122   4.403   4.749   0.230  0.1715  0.0904  1.3603
  140MOL   H14542123   4.548   4.963   7.794  0.5479  0.0418 -0.9996
  140MOL   H14642124   4.630   5.035   7.943  0.0971 -0.3554  0.2052
  140MOL   H14742125   4.788   4.901   7.806  0.1523  1.3642  0.8948
  140MOL   H14842126   4.772   4.850   0.025  0.6959  1.3041  0.7597
  140MOL   H14942127   4.679   4.764   7.839 -1.0592  0.7517  1.4394
  140MOL   H15042128   4.664   4.822   0.371  0.3963 -0.8602  2.6913
  140MOL   H15142129   4.555   4.707   0.445  1.2499  1.5270  0.8570
  140MOL   C15242130   4.654   4.632   0.267  0.6538  0.4960  0.1535
  140MOL   O15342131   4.777   4.587   0.329 -0.5399 -0.3307 -0.1115
  140MOL   C15442132   4.892   4.639   0.309  0.2990 -0.1807 -0.1651
  140MOL   O15542133   4.916   4.725   0.228  0.4963 -0.4796  0.6237
  140MOL   C15642134   5.003   4.596   0.404  0.6439 -0.3388 -0.3254
  140MOL   C15742135   4.977   4.611   0.552 -0.2014 -0.8315 -0.2668
  140MOL   C15842136   4.558   4.517   0.252  0.1379  0.8805  0.8361
  140MOL   H15942137   4.666   4.676   0.168  1.3212  1.7130  0.7625
  140MOL   H16042138   5.037   4.497   0.372  2.9193  0.8628 -1.7355
  140MOL   H16142139   5.100   4.643   0.384  1.8147 -0.9543  3.4360
  140MOL   H16242140   4.889   4.553   0.581 -0.3656 -1.3277 -1.7197
  140MOL   H16342141   5.065   4.586   0.611  2.1185 -0.1027 -3.3262
  140MOL   H16442142   4.956   4.714   0.582  0.5147 -1.0857  1.1190
  140MOL   H16542143   4.559   4.452   0.339  1.0103 -2.0695 -1.2886
  140MOL   H16642144   4.458   4.557   0.234 -0.0922 -0.7058 -1.6908
  140MOL   C16742145   4.594   4.431   0.130  0.0854  0.7875 -0.3374
  140MOL   O16842146   4.578   4.510   0.010  0.4878  0.1057  0.7271
  140MOL   C16942147   4.460   4.502   7.895  0.4921  0.0001  0.0849
  140MOL   O17042148   4.359   4.443   7.926 -0.2057  0.1062  0.2672
  140MOL   C17142149   4.469   4.565   7.754 -0.3540 -0.2014 -0.1150
  140MOL   C17242150   4.392   4.485   7.649  0.1322 -0.0368 -0.1546
  140MOL   C17342151   4.739   4.369   0.130 -0.4230 -0.3192 -0.3491
  140MOL   H17442152   4.526   4.346   0.137  1.5476 -0.4109 -0.4803
  140MOL   H17542153   4.430   4.667   7.752 -0.8310 -0.3636  0.7717
  140MOL   H17642154   4.575   4.579   7.730 -0.8526  2.9279 -0.7037
  140MOL   H17742155   4.388   4.543   7.556  0.2695  0.8496  0.3920
  140MOL   H17842156   4.447   4.393   7.627  1.1196  0.3742  0.5789
  140MOL   H17942157   4.292   4.451   7.675  0.4951 -0.6318  0.4997
  140MOL   H18042158   4.771   4.338   0.031  2.0980  0.0916  0.3004
  140MOL   H18142159   4.817   4.442   0.151  1.3379 -1.0840 -3.8672
  140MOL   C18242160   4.762   4.253   0.225 -0.5056  0.7519 -0.7478
  140MOL   O18342161   4.733   4.278   0.365  1.1326  0.5313 -0.3806
  140MOL   C18442162   4.809   4.218   0.463 -0.0889  0.4645  0.3217
  140MOL   O18542163   4.911   4.147   0.443 -0.3586 -0.0797  0.9744
  140MOL   C18642164   4.753   4.234   0.607  0.1482  0.6613  0.2926
  140MOL   C18742165   4.858   4.257   0.721 -0.2866  0.8763 -0.2249
  140MOL   C18842166   4.713   4.120   0.169 -0.4856  0.5974  0.3337
  140MOL   H18942167   4.869   4.236   0.228 -0.7044 -0.3680 -0.0046
  140MOL   H19042168   4.681   4.316   0.602 -0.2197  0.3472  0.4075
  140MOL   H19142169   4.696   4.142   0.618 -0.4832  0.5627 -3.2366
  140MOL   H19242170   4.918   4.341   0.688 -0.9151  1.2064 -0.5415
  140MOL   H19342171   4.824   4.295   0.817 -2.4723  0.6617 -0.8726
  140MOL   H19442172   4.923   4.170   0.732 -0.2080  1.0885  1.0407
  140MOL   H19542173   4.710   4.045   0.248  1.3498 -0.1372 -0.2936
  140MOL   H19642174   4.609   4.139   0.141 -0.8707 -2.8671 -0.7419
  140MOL   C19742175   4.804   4.059   0.060  0.7432 -0.2462 -0.0518
  140MOL   O19842176   4.919   4.016   0.124  0.9598  0.1942  0.0175
  140MOL   C19942177   5.039   4.055   0.093 -0.3863 -0.5681 -0.1342
  140MOL   O20042178   5.078   4.145   0.020  0.2900 -0.1871  0.2636
  140MOL   C20142179   5.149   3.988   0.174 -0.0397  0.3198  0.4572
  140MOL   C20242180   5.210   4.093   0.264 -0.4984  0.6123 -0.2056
  140MOL   C20342181   4.755   3.943   7.924  0.1811 -0.4721 -0.1685
  140MOL   H20442182   4.824   4.139   7.933 -0.2085  0.7748  0.8250
  140MOL   H20542183   5.113   3.906   0.236 -0.4863 -0.2441 -0.5476
  140MOL   H20642184   5.226   3.960   0.103  0.1995  1.7969  0.1168
  140MOL   H20742185   5.182   4.091   0.369 -2.5120 -0.8107 -0.7385
  140MOL   H20842186   5.315   4.070   0.283 -1.1530 -1.2441  1.4235
  140MOL   H20942187   5.203   4.193   0.221 -2.4965 -1.0260 -3.9572
  140MOL   H21042188   4.841   3.893   7.879  0.6314  1.4334 -1.4804
  140MOL   H21142189   4.723   3.862   0.045  0.5995  2.2723  3.5429
  140MOL   C21242190   4.645   3.977   7.813  0.3654 -0.4455  0.0529
  140MOL   O21342191   4.708   4.063   7.722  0.2260  0.2661  0.3619
  140MOL   C21442192   4.632   4.161   7.664  0.6206 -0.0252 -0.0968
  140MOL   O21542193   4.516   4.184   7.689 -0.4579 -0.3938  0.3807
  140MOL   C21642194   4.701   4.258   7.576  0.3440  0.9492 -0.0769
  140MOL   C21742195   4.834   4.308   7.639  0.4651 -0.1589  0.0032
  140MOL   C21842196   4.596   3.853   7.737 -1.0206 -0.1054 -0.6462
  140MOL   H21942197   4.566   4.024   7.870 -0.1292  0.4149 -1.3159
  140MOL   H22042198   4.735   4.201   7.489 -0.0185 -2.1750  1.7577
  140MOL   H22142199   4.639   4.341   7.541  2.3531  3.4171  2.0497
  140MOL   H22242200   4.915   4.272   7.575  2.4641  2.3874  1.0108
  140MOL   H22342201   4.826   4.416   7.639 -1.8062 -0.2864 -1.4698
  140MOL   H22442202   4.846   4.274   7.742  0.7399 -1.8641 -0.5734
  140MOL   H22542203   4.532   3.901   7.663  0.7605  0.6924 -1.6821
  140MOL   H22642204   4.682   3.803   7.694  0.2358  2.5607 -1.3369
  140MOL   C22742205   4.512   3.755   7.827 -0.0850  0.0900 -0.7579
  140MOL   O22842206   4.381   3.813   7.842  0.2882  0.1016 -0.4632
  140MOL   C22942207   4.345   3.875   0.014  0.0174 -0.1078 -0.4086
  140MOL   O23042208   4.412   3.903   0.114  0.0930 -0.0878  0.0448
  140MOL   C23142209   4.208   3.932   0.003  0.3183  0.2080 -0.0097
  140MOL   C23242210   4.210   4.059   7.858 -0.0784  0.1031  0.5572
  140MOL   C23342211   4.506   3.616   7.762  0.0919  0.8945 -0.3365
  140MOL   H23442212   4.561   3.738   7.923  1.9007  0.8256 -1.6156
  140MOL   H23542213   4.140   3.868   7.892 -0.9015  1.1317  0.3841
  140MOL   H23642214   4.169   3.945   0.104  0.9720  2.2122  0.0094
  140MOL   H23742215   4.292   4.050   7.786 -0.9728  1.2636 -0.6354
  140MOL   H23842216   4.118   4.074   7.802  0.3350  0.4148 -0.0411
  140MOL   H23942217   4.233   4.148   7.915 -0.6288 -0.9024  2.3857
  140MOL   H24042218   4.419   3.566   7.804  0.0774 -0.5156 -1.9876
  140MOL   H24142219   4.483   3.627   7.656 -1.8460  0.1582 -0.0133
  140MOL   C24242220   4.631   3.529   7.772  0.0136 -0.0366 -0.0036
  140MOL   O24342221   4.645   3.504   7.908  0.3801 -0.3397  0.0378
  140MOL   C24442222   4.755   3.546   0.039  0.2669  0.0463  0.2611
  140MOL   O24542223   4.855   3.598   7.942  0.4314 -0.7085 -0.3227
  140MOL   C24642224   4.742   3.521   0.188 -1.1002 -0.1232 -0.1038
  140MOL   C24742225   4.783   3.378   0.220 -0.7656  0.1439  1.0607
  140MOL   C24842226   4.611   3.399   7.691 -0.2970  0.4669 -0.7410
  140MOL   H24942227   4.716   3.587   7.736 -0.0339  0.4655  0.6867
  140MOL   H25042228   4.809   3.588   0.242 -1.2358  1.7813 -2.2489
  140MOL   H25142229   4.637   3.537   0.213 -1.0054  0.5355 -0.1259
  140MOL   H25242230   4.877   3.354   0.170 -1.5192 -0.7421  0.0494
  140MOL   H25342231   4.793   3.375   0.328 -1.0194  1.2971  1.1276
  140MOL   H25442232   4.703   3.306   0.204  1.1150 -1.5816 -0.8224
  140MOL   H25542233   4.537   3.337   7.741 -1.4053  1.8688 -0.6088
  140MOL   H25642234   4.572   3.434   7.595 -0.4156  1.2357 -0.4176
  140MOL   C25742235   4.737   3.311   7.669 -0.0811  0.1861  0.3523
  140MOL   O25842236   4.847   3.398   7.621  0.1501  0.8361  0.4429
  140MOL   C25942237   4.899   3.382   7.495 -0.0228  1.1736  0.8207
  140MOL   O26042238   4.853   3.297   7.414  0.1673  0.4677  0.8103
  140MOL   C26142239   5.020   3.469   7.476 -0.1066 -0.6097  0.4821
  140MOL   C26242240   5.126   3.423   7.573  0.3082 -0.2063  0.0601
  140MOL   C26342241   4.779   3.245   7.798  0.1690 -0.2974 -0.7748
  140MOL   H26442242   4.710   3.235   7.595 -0.6179 -0.1884  0.9344
  140MOL   H26542243   5.050   3.470   7.372 -0.8197 -1.8529  0.2463
  140MOL   H26642244   4.992   3.571   7.502  0.3969 -0.5520  0.8003
  140MOL   H26742245   5.139   3.315   7.567 -0.9176 -0.2454 -2.2891
  140MOL   H26842246   5.226   3.457   7.546  0.1413  1.4373  1.4339
  140MOL   H26942247   5.100   3.440   7.677  0.2535 -0.5645  0.1063
  140MOL   H27042248   4.813   3.327   7.861 -1.0842  0.2825 -0.8395
  140MOL   H27142249   4.704   3.191   7.856  2.2329 -1.6240  0.7705
  140MOL   C27242250   4.907   3.152   7.782 -0.0534 -0.4524 -0.0160
  140MOL   O27342251   4.964   3.122   7.915 -0.3092 -0.1798  0.0319
  140MOL   C27442252   5.059   3.204   0.015  0.1972 -0.1770  0.1592
  140MOL   O27542253   5.093   3.301   7.890  0.8865 -0.1627 -0.1262
  140MOL   C27642254   5.119   3.179   0.146 -0.8024 -0.9821 -0.4385
  140MOL   C27742255   5.210   3.295   0.192 -0.2031 -0.0272 -1.3848
  140MOL   C27842256   4.880   3.011   7.718 -0.3484 -0.5767  0.0529
  140MOL   H27942257   4.978   3.202   7.717 -0.1108 -0.7654 -0.3191
  140MOL   H28042258   5.044   3.152   0.220  0.3908  0.9890  1.5284
  140MOL   H28142259   5.182   3.092   0.127 -0.0454 -0.7668  0.9843
  140MOL   H28242260   5.250   3.277   0.291  0.7459  2.3637 -1.2958
  140MOL   H28342261   5.297   3.296   0.126  1.6352 -1.9123  0.8985
  140MOL   H28442262   5.159   3.391   0.190 -0.5409 -0.2247 -3.0505
  140MOL   H28542263   4.813   2.947   7.774 -2.6281  2.0045  0.3480
  140MOL   H28642264   4.829   3.031   7.623 -2.5113 -2.1764  0.8390
  140MOL   C28742265   5.007   2.921   7.693 -0.4267  0.5181 -0.2682
  140MOL   O28842266   4.972   2.797   7.628 -0.1400  0.0390 -0.2569
  140MOL   C28942267   4.963   2.678   7.702 -0.6416  0.4132  0.6681
  140MOL   O29042268   5.007   2.665   7.817  0.0525 -0.0772  0.0348
  140MOL   C29142269   4.891   2.558   7.637  0.2675  0.1408  0.5683
  140MOL   C29242270   4.851   2.584   7.492 -0.8203  0.0313 -0.0474
  140MOL   C29342271   5.110   2.985   7.593 -0.3685  0.4900 -0.1726
  140MOL   H29442272   5.061   2.897   7.785  0.7157  0.2343 -0.9986
  140MOL   H29542273   4.947   2.466   7.657 -1.1289 -1.0902 -0.9673
  140MOL   H29642274   4.803   2.547   7.700 -0.4335  0.2792 -0.3712
  140MOL   H29742275   4.779   2.664   7.505 -0.3640  0.4369  0.0116
  140MOL   H29842276   4.928   2.618   7.423 -1.2606  0.7871 -0.1717
  140MOL   H29942277   4.800   2.505   7.436 -1.0741  0.3198 -0.2236
  140MOL   H30042278   5.190   2.916   7.567  0.6434  2.7774 -3.4960
  140MOL   H30142279   5.052   3.011   7.504  1.9057  1.4989 -1.3873
  140MOL   H30242280   5.164   3.074   7.626 -1.1529  0.0661  2.3429
  141MOL     C142281   3.032   4.442   1.477  0.5598  0.2427 -0.3885
  141MOL     O242282   2.930   4.339   1.493 -0.2265  0.0373  0.2221
  141MOL     C342283   2.951   4.215   1.438  0.1707  0.2491 -0.4730
  141MOL     O442284   3.046   4.175   1.371  0.6926 -0.2269 -0.1808
  141MOL     C542285   2.830   4.129   1.473 -0.7664 -0.6697 -0.1476
  141MOL     C642286   2.839   3.985   1.421  0.2389  0.2181 -0.3679
  141MOL     C742287   3.017   4.521   1.347  0.5616  0.2774 -0.3498
  141MOL     H842288   3.135   4.408   1.489  1.2766  1.9648 -1.4251
  141MOL     H942289   2.819   4.115   1.581  0.3666  0.6700  0.1600
  141MOL    H1042290   2.745   4.182   1.429  0.2834  1.5337  0.3715
  141MOL    H1142291   2.906   3.930   1.488  1.8685  2.7371  0.1422
  141MOL    H1242292   2.738   3.945   1.413 -1.4100  3.7116  1.8382
  141MOL    H1342293   2.878   3.977   1.320  0.5633 -0.3908 -0.1978
  141MOL    H1442294   3.042   4.453   1.265 -1.0720 -0.6494 -0.0867
  141MOL    H1542295   2.910   4.532   1.334  0.7128  1.3879 -0.7568
  141MOL    H1642296   3.001   4.505   1.561 -0.3230 -0.3492 -0.2663
  141MOL    C1742297   3.088   4.663   1.341 -0.8265 -0.7894 -0.6753
  141MOL    O1842298   3.081   4.700   1.212  0.1380 -0.0451  1.1238
  141MOL    C1942299   3.180   4.659   1.132  0.3059 -0.4379 -0.9214
  141MOL    O2042300   3.277   4.587   1.163 -0.4645  0.3803 -0.3945
  141MOL    C2142301   3.156   4.706   0.991 -0.1041 -0.5254  0.1729
  141MOL    C2242302   3.233   4.838   0.968  0.1804 -0.1176  0.9620
  141MOL    C2342303   3.009   4.772   1.421 -0.2334 -0.1261 -0.0196
  141MOL    H2442304   3.188   4.652   1.384 -0.9283 -1.2094 -0.5401
  141MOL    H2542305   3.180   4.624   0.923  1.2126  1.0774 -1.3360
  141MOL    H2642306   3.050   4.728   0.973  0.0708 -1.4871 -2.1970
  141MOL    H2742307   3.226   4.868   0.863  1.2459 -1.1807  0.5723
  141MOL    H2842308   3.199   4.930   1.015 -1.3176  0.3715 -1.0194
  141MOL    H2942309   3.337   4.824   0.997  1.4202  2.9070 -1.6538
  141MOL    H3042310   3.031   4.754   1.526 -0.6003 -1.2753 -0.1299
  141MOL    H3142311   3.045   4.867   1.382 -0.8508 -0.2094 -0.8093
  141MOL    C3242312   2.858   4.778   1.410  0.2450 -0.3276 -0.1953
  141MOL    O3342313   2.799   4.675   1.488 -0.1089 -0.8292  0.5248
  141MOL    C3442314   2.664   4.659   1.486 -0.0111  0.1552 -0.7510
  141MOL    O3542315   2.584   4.711   1.408 -0.5495  0.3634 -0.3729
  141MOL    C3642316   2.628   4.557   1.593 -0.4806 -0.2405  0.1714
  141MOL    C3742317   2.499   4.475   1.550 -0.5039  0.2907 -0.1044
  141MOL    C3842318   2.811   4.922   1.443  0.3990  0.1072 -0.6987
  141MOL    H3942319   2.838   4.778   1.303 -1.1832 -0.5549  0.0587
  141MOL    H4042320   2.704   4.479   1.591  1.0671  1.2462 -0.6686
  141MOL    H4142321   2.623   4.593   1.696  0.5220 -1.3762  0.6310
  141MOL    H4242322   2.400   4.516   1.571  0.6194  3.6704 -1.0484
  141MOL    H4342323   2.500   4.449   1.445  0.3842  0.7813 -0.2208
  141MOL    H4442324   2.505   4.374   1.589  0.0109  0.2437 -0.3070
  141MOL    H4542325   2.707   4.928   1.476  0.4689  3.9973 -0.9289
  141MOL    H4642326   2.862   4.954   1.534  1.1160  1.3568 -1.5161
  141MOL    C4742327   2.823   5.030   1.334  0.0946  0.8377 -0.5704
  141MOL    O4842328   2.738   4.989   1.229 -0.7387 -0.1602  0.6155
  141MOL    C4942329   2.777   4.989   1.105  0.1203 -0.6428  0.1157
  141MOL    O5042330   2.892   4.986   1.066  0.7210 -0.3585  0.0454
  141MOL    C5142331   2.668   4.978   1.007 -0.4468  0.0867  0.5207
  141MOL    C5242332   2.685   5.055   0.878  0.0759 -0.2763 -0.2089
  141MOL    C5342333   2.788   5.173   1.374  0.6979  0.2242 -0.2388
  141MOL    H5442334   2.924   5.020   1.294  1.9976 -1.7415  4.4299
  141MOL    H5542335   2.667   4.871   0.990 -0.4787  0.2811 -0.7801
  141MOL    H5642336   2.571   4.999   1.052 -1.3228 -1.0119 -0.8224
  141MOL    H5742337   2.636   5.151   0.888  0.5971 -0.1912  1.5589
  141MOL    H5842338   2.786   5.066   0.839 -0.2423  2.5540 -0.2839
  141MOL    H5942339   2.638   4.991   0.802 -0.0162  2.7454 -2.7937
  141MOL    H6042340   2.763   5.226   1.282 -1.8483  0.6407  0.6521
  141MOL    H6142341   2.686   5.176   1.414  0.4805  0.6637 -0.8115
  141MOL    C6242342   2.895   5.230   1.461  0.0064 -0.0880 -0.1858
  141MOL    O6342343   3.021   5.240   1.381  0.3800  0.1496  0.4037
  141MOL    C6442344   3.130   5.170   1.418  0.0071 -0.3642  0.0334
  141MOL    O6542345   3.137   5.108   1.527  0.0477 -0.6492  0.4003
  141MOL    C6642346   3.239   5.167   1.317 -0.5592 -0.6733  0.8524
  141MOL    C6742347   3.306   5.302   1.294 -0.5795 -0.4865 -0.1448
  141MOL    C6842348   2.874   5.372   1.525 -0.2207 -0.0211  0.0267
  141MOL    H6942349   2.914   5.173   1.552 -0.2583  0.1368  0.0081
  141MOL    H7042350   3.312   5.091   1.344 -1.0413 -0.7151  2.0625
  141MOL    H7142351   3.198   5.122   1.226 -0.6798  0.2543  0.4430
  141MOL    H7242352   3.238   5.384   1.274  0.4897 -0.0384 -2.1202
  141MOL    H7342353   3.354   5.332   1.387 -2.0315  0.2729  0.3721
  141MOL    H7442354   3.380   5.286   1.215  0.1220  0.2535  0.3524
  141MOL    H7542355   2.972   5.415   1.547 -0.6034  0.3654  0.9970
  141MOL    H7642356   2.840   5.427   1.437  0.8604  2.3990  1.0688
  141MOL    C7742357   2.779   5.374   1.639  0.4199 -0.2586 -0.5030
  141MOL    O7842358   2.846   5.323   1.751  0.3197  0.0697 -0.5331
  141MOL    C7942359   2.813   5.194   1.784 -0.0615 -0.1560  0.0185
  141MOL    O8042360   2.743   5.116   1.718 -1.2182  0.2943 -0.0603
  141MOL    C8142361   2.877   5.147   1.916  0.2864  0.1920  1.1682
  141MOL    C8242362   2.852   5.245   2.042  0.1587 -0.2168  0.2686
  141MOL    C8342363   2.724   5.522   1.669 -0.1139 -0.9027 -0.3426
  141MOL    H8442364   2.686   5.318   1.626  0.0200 -0.4562  2.7749
  141MOL    H8542365   2.829   5.053   1.942 -0.7356  0.0724 -0.9826
  141MOL    H8642366   2.978   5.108   1.908  0.8957  1.3344  3.0711
  141MOL    H8742367   2.802   5.196   2.126  1.7061 -1.4361  0.5027
  141MOL    H8842368   2.949   5.271   2.086 -0.7629  0.7707  1.8017
  141MOL    H8942369   2.802   5.338   2.015 -1.3206 -1.2234 -0.4400
  141MOL    H9042370   2.680   5.512   1.768  2.1864 -1.9935  0.5990
  141MOL    H9142371   2.809   5.587   1.688 -2.1849  1.8752 -0.2608
  141MOL    C9242372   2.622   5.569   1.562 -0.1880  0.0853  0.3413
  141MOL    O9342373   2.491   5.522   1.599  0.1145 -0.0219  0.6963
  141MOL    C9442374   2.428   5.437   1.522  0.0832  0.4507 -0.2566
  141MOL    O9542375   2.478   5.385   1.425  0.6527  0.4301  0.5588
  141MOL    C9642376   2.285   5.413   1.552  0.6615 -0.6228 -0.1983
  141MOL    C9742377   2.264   5.375   1.703 -0.1178  0.1551  0.4173
  141MOL    C9842378   2.610   5.724   1.560  0.4813 -0.1197 -0.1759
  141MOL    H9942379   2.657   5.530   1.467  1.1615  0.3653  0.7148
  141MOL   H10042380   2.232   5.506   1.535 -0.3261 -1.0523  0.4895
  141MOL   H10142381   2.244   5.341   1.482  2.1922 -1.4493 -0.2770
  141MOL   H10242382   2.333   5.299   1.739 -0.3150  1.0372  2.7339
  141MOL   H10342383   2.271   5.463   1.766  0.0471 -1.9745  3.4792
  141MOL   H10442384   2.165   5.331   1.710 -0.4070  0.8395  0.6428
  141MOL   H10542385   2.507   5.743   1.530 -0.2824  1.0735  2.9045
  141MOL   H10642386   2.630   5.772   1.656 -0.0280 -4.0506  2.0006
  141MOL   C10742387   2.696   5.786   1.453  0.4190  0.3222 -0.6468
  141MOL   O10842388   2.653   5.725   1.327 -0.3204 -0.1032 -0.1479
  141MOL   C10942389   2.747   5.676   1.234 -0.5467  0.4707  0.4079
  141MOL   O11042390   2.863   5.646   1.263 -0.0153 -0.1072 -0.0492
  141MOL   C11142391   2.684   5.662   1.093  0.2601 -0.4375 -0.2609
  141MOL   C11242392   2.563   5.560   1.092 -0.3651  0.7868  0.2792
  141MOL   C11342393   2.682   5.942   1.441 -1.0728  0.0500  0.0085
  141MOL   H11442394   2.800   5.758   1.469  0.7472  1.5344 -0.6245
  141MOL   H11542395   2.633   5.753   1.062  0.1847 -0.4681 -0.2276
  141MOL   H11642396   2.750   5.627   1.014  0.4351 -1.3197  0.2691
  141MOL   H11742397   2.607   5.460   1.095 -1.2074  0.3181 -1.9769
  141MOL   H11842398   2.500   5.576   1.180  0.3249 -1.4549  1.2202
  141MOL   H11942399   2.505   5.580   1.002 -0.3764  3.0601  0.7571
  141MOL   H12042400   2.720   5.970   1.343 -1.6784 -0.1388 -0.2790
  141MOL   H12142401   2.579   5.963   1.413 -0.8589  1.5986  0.3521
  141MOL   C12242402   2.736   6.028   1.559 -0.9074 -0.1643 -0.8653
  141MOL   O12342403   2.675   6.006   1.681 -0.4387 -0.4208 -0.1039
  141MOL   C12442404   2.677   6.097   1.775  0.0960  0.1222 -0.6237
  141MOL   O12542405   2.758   6.192   1.779 -0.3750  0.2370 -0.3045
  141MOL   C12642406   2.581   6.054   1.884  0.7766  0.9517 -0.0123
  141MOL   C12742407   2.638   5.947   1.977 -0.2988 -0.1754  0.1833
  141MOL   C12842408   2.902   6.027   1.560 -0.4668 -0.6145 -0.9316
  141MOL   H12942409   2.723   6.132   1.532  0.2909  0.0146 -0.8035
  141MOL   H13042410   2.542   6.144   1.933  0.5268  0.0212  1.5502
  141MOL   H13142411   2.494   6.027   1.825  1.4233  1.7987 -1.3707
  141MOL   H13242412   2.706   5.986   2.053  0.1175  2.4976 -1.4862
  141MOL   H13342413   2.553   5.905   2.030 -1.7418  1.0946 -1.0795
  141MOL   H13442414   2.692   5.868   1.926 -1.7418 -2.3312  1.9290
  141MOL   H13542415   2.938   6.110   1.621 -0.1227 -0.4471 -1.3637
  141MOL   H13642416   2.929   5.937   1.615  1.3426 -0.3311 -1.3187
  141MOL   C13742417   2.976   6.032   1.431 -0.2206 -0.0972 -0.3389
  141MOL   O13842418   2.981   6.166   1.386 -0.0257  0.1793 -0.2824
  141MOL   C13942419   2.949   6.202   1.262 -0.0758 -0.9871  0.6015
  141MOL   O14042420   2.876   6.131   1.193  0.2921  0.2936  0.1463
  141MOL   C14142421   3.004   6.340   1.217 -0.0063 -0.7703 -0.5634
  141MOL   C14242422   3.035   6.342   1.067 -0.1779 -0.4318 -0.2142
  141MOL   C14342423   3.118   5.975   1.449  0.1802  0.4542  0.7262
  141MOL   H14442424   2.927   5.973   1.354 -0.0335 -0.3214 -0.2861
  141MOL   H14542425   2.964   6.433   1.255  0.6182  0.0757 -1.9536
  141MOL   H14642426   3.104   6.341   1.262  0.3525  1.2636 -1.3687
  141MOL   H14742427   3.059   6.444   1.036  0.6364 -0.0491  1.6130
  141MOL   H14842428   3.117   6.273   1.046 -1.2270 -1.7429 -0.0330
  141MOL   H14942429   2.962   6.308   0.994  0.0581  1.2052 -1.2610
  141MOL   H15042430   3.174   6.026   1.528  0.7678  0.6265  0.1975
  141MOL   H15142431   3.112   5.872   1.482 -1.7544  0.5282  0.6641
  141MOL   C15242432   3.196   5.952   1.315  0.1645  0.0999  0.8016
  141MOL   O15342433   3.338   5.919   1.342  0.5285  0.1317 -0.1273
  141MOL   C15442434   3.431   5.976   1.276  0.2462 -0.2191 -0.1002
  141MOL   O15542435   3.427   6.055   1.181  0.6197 -0.2088 -0.6778
  141MOL   C15642436   3.560   5.932   1.334  0.2075 -0.2794 -0.1157
  141MOL   C15742437   3.686   5.997   1.286 -0.2213 -0.6625  0.5251
  141MOL   C15842438   3.134   5.835   1.225 -0.3433  0.4576 -0.0664
  141MOL   H15942439   3.186   6.037   1.248 -1.6882 -0.2919  0.5529
  141MOL   H16042440   3.567   5.968   1.437  1.6013  1.9663 -0.9434
  141MOL   H16142441   3.564   5.823   1.339  2.8788 -0.2071 -0.2059
  141MOL   H16242442   3.706   6.008   1.179  2.2381  1.9002  1.1948
  141MOL   H16342443   3.694   6.101   1.315  1.1963  0.0717 -2.2794
  141MOL   H16442444   3.767   5.941   1.334  0.6455  0.2983  0.2051
  141MOL   H16542445   3.177   5.740   1.254 -0.5095  1.0157  2.0547
  141MOL   H16642446   3.026   5.821   1.237 -0.7127  1.9337 -1.4576
  141MOL   C16742447   3.158   5.837   1.074 -1.2099 -0.9068 -0.0614
  141MOL   O16842448   3.115   5.715   1.023 -0.0169 -0.0652  0.2094
  141MOL   C16942449   3.196   5.640   0.935 -0.9209  0.1650  0.4020
  141MOL   O17042450   3.311   5.672   0.899  0.5464 -0.2220  0.5708
  141MOL   C17142451   3.126   5.511   0.886 -0.2038  0.3632 -0.1201
  141MOL   C17242452   3.079   5.414   1.001 -0.4322  0.0754 -0.1986
  141MOL   C17342453   3.072   5.942   0.998 -0.2661 -0.2705 -1.2192
  141MOL   H17442454   3.265   5.848   1.054 -1.0520 -1.0962  0.6614
  141MOL   H17542455   3.045   5.540   0.819 -1.6671 -0.9029  1.0384
  141MOL   H17642456   3.190   5.454   0.820  0.6645  1.3601 -0.1645
  141MOL   H17742457   3.168   5.390   1.061 -0.4471  1.4147  0.3883
  141MOL   H17842458   2.999   5.453   1.063  0.2507  0.3455  0.5309
  141MOL   H17942459   3.054   5.312   0.970  0.2616 -0.7867  1.9686
  141MOL   H18042460   2.967   5.928   1.022 -0.1542  1.3321  0.2006
  141MOL   H18142461   3.104   6.033   1.048 -1.1481 -0.1132 -0.9508
  141MOL   C18242462   3.080   5.981   0.841  0.4902  0.2260 -0.1439
  141MOL   O18342463   2.990   6.085   0.840 -0.2456  0.2135  0.1572
  141MOL   C18442464   2.867   6.078   0.781  0.3531  0.1477 -0.2034
  141MOL   O18542465   2.807   5.976   0.745 -0.1842 -0.1112  0.2094
  141MOL   C18642466   2.801   6.213   0.783 -0.4359  0.2399  0.2325
  141MOL   C18742467   2.697   6.228   0.667  0.7650 -0.2789  0.1228
  141MOL   C18842468   3.221   6.018   0.794 -0.3051 -0.7062  0.0955
  141MOL   H18942469   3.039   5.908   0.771  0.8286  1.0789 -1.2663
  141MOL   H19042470   2.746   6.223   0.876  1.9835 -0.1451  1.7314
  141MOL   H19142471   2.871   6.297   0.772 -1.3998  0.9511 -0.6505
  141MOL   H19242472   2.691   6.140   0.603 -1.2068  0.0745 -0.2046
  141MOL   H19342473   2.597   6.258   0.699 -1.3182 -2.6135 -3.7831
  141MOL   H19442474   2.729   6.308   0.601  0.7623 -1.5323 -1.4315
  141MOL   H19542475   3.263   6.099   0.854  1.5812 -0.7375 -1.1480
  141MOL   H19642476   3.287   5.931   0.803 -0.3674 -0.8335 -0.6472
  141MOL   C19742477   3.227   6.076   0.654 -0.4568 -0.7302  0.0218
  141MOL   O19842478   3.221   6.216   0.673 -0.0920 -0.2051 -0.4016
  141MOL   C19942479   3.167   6.294   0.578  0.3202 -0.4043  0.2156
  141MOL   O20042480   3.112   6.256   0.476 -0.6344 -0.2187 -0.1092
  141MOL   C20142481   3.194   6.443   0.603 -0.2205 -0.2354  0.4577
  141MOL   C20242482   3.066   6.516   0.657  0.2760  0.0696  0.1490
  141MOL   C20342483   3.360   6.049   0.580  0.2004  0.1939 -0.6841
  141MOL   H20442484   3.141   6.038   0.599  0.0905 -1.1158 -0.5671
  141MOL   H20542485   3.267   6.435   0.683  1.5286 -1.0835 -1.1829
  141MOL   H20642486   3.241   6.482   0.512 -0.8448 -2.3690 -0.8102
  141MOL   H20742487   3.087   6.615   0.696  0.1259  1.3327 -2.8262
  141MOL   H20842488   2.996   6.536   0.576 -0.3815  0.5894  0.8390
  141MOL   H20942489   3.019   6.457   0.736  0.0880  1.4792  1.0930
  141MOL   H21042490   3.359   6.112   0.491 -0.1044 -1.3979 -1.8318
  141MOL   H21142491   3.444   6.088   0.637 -0.2056  2.1415 -1.3936
  141MOL   C21242492   3.391   5.906   0.533 -0.6103 -0.6025  0.4598
  141MOL   O21342493   3.282   5.865   0.466  0.4738 -0.3313 -0.1290
  141MOL   C21442494   3.251   5.735   0.474 -0.0032  0.5730 -0.3436
  141MOL   O21542495   3.311   5.652   0.545  0.1418 -0.4946 -0.4795
  141MOL   C21642496   3.136   5.693   0.393  1.0652  0.3606  0.3822
  141MOL   C21742497   3.019   5.796   0.407  0.8899  0.4263 -0.1836
  141MOL   C21842498   3.520   5.900   0.453 -0.8301  0.3040  0.6531
  141MOL   H21942499   3.399   5.848   0.625 -1.2166  0.8085  1.4072
  141MOL   H22042500   3.163   5.696   0.287  0.6281  1.7375  0.3068
  141MOL   H22142501   3.104   5.593   0.422  1.3840  0.2858  0.4760
  141MOL   H22242502   2.922   5.747   0.397  1.3370 -0.7069  0.9617
  141MOL   H22342503   3.018   5.839   0.507  1.2324  1.9335 -0.8007
  141MOL   H22442504   3.022   5.884   0.342  0.1737  0.8890  0.4018
  141MOL   H22542505   3.527   5.801   0.409  0.3921  0.9155 -0.5780
  141MOL   H22642506   3.509   5.971   0.370  0.2669 -0.0403  0.2040
  141MOL   C22742507   3.648   5.922   0.545  0.0099 -0.3513  0.1182
  141MOL   O22842508   3.666   5.814   0.644  0.5108  0.2033  0.2986
  141MOL   C22942509   3.622   5.822   0.774  0.3905  0.2997 -0.5067
  141MOL   O23042510   3.556   5.912   0.831  0.2901 -0.1694 -0.1325
  141MOL   C23142511   3.659   5.696   0.853  0.3622 -0.4404  0.0929
  141MOL   C23242512   3.630   5.561   0.786 -0.0163  0.3070  0.6882
  141MOL   C23342513   3.781   5.929   0.459 -0.2594  0.0607 -0.2656
  141MOL   H23442514   3.639   6.014   0.603 -2.1943 -0.6837  0.3546
  141MOL   H23542515   3.762   5.721   0.876  0.3126  0.7259 -0.9090
  141MOL   H23642516   3.610   5.696   0.950 -1.8019 -1.3812 -0.9702
  141MOL   H23742517   3.680   5.558   0.689  0.8104  0.8725  1.0798
  141MOL   H23842518   3.661   5.476   0.847 -0.4544  1.7618  3.0015
  141MOL   H23942519   3.522   5.564   0.780  0.1369  2.6217 -2.3586
  141MOL   H24042520   3.783   5.825   0.426 -2.2346 -0.4434  1.0833
  141MOL   H24142521   3.778   5.993   0.371  1.7464 -1.0039 -1.1265
  141MOL   C24242522   3.901   5.954   0.541 -0.2053  0.4158  0.3200
  141MOL   O24342523   4.016   5.941   0.460  0.1022 -0.2601  0.2336
  141MOL   C24442524   4.098   5.830   0.466  0.2992  0.0002 -0.1228
  141MOL   O24542525   4.076   5.733   0.538 -0.4948  0.1376  1.0218
  141MOL   C24642526   4.216   5.822   0.368  0.8662  0.5649 -0.2369
  141MOL   C24742527   4.326   5.923   0.393  0.0821  0.2976 -0.4923
  141MOL   C24842528   3.902   6.095   0.608  0.2329 -0.2797  0.1003
  141MOL   H24942529   3.910   5.878   0.618 -0.8263 -1.1334 -1.1177
  141MOL   H25042530   4.268   5.728   0.387 -0.6456 -0.0041  1.1981
  141MOL   H25142531   4.188   5.823   0.263  2.0555 -2.8766 -0.6570
  141MOL   H25242532   4.384   5.919   0.300  0.4084 -3.9261 -0.1752
  141MOL   H25342533   4.297   6.028   0.404  0.4278  0.3710 -0.2501
  141MOL   H25442534   4.385   5.884   0.476 -1.1598  1.2068  0.8272
  141MOL   H25542535   3.995   6.142   0.578  0.6635  0.0315  1.8739
  141MOL   H25642536   3.827   6.160   0.563  1.1056  0.3661 -0.4386
  141MOL   C25742537   3.915   6.085   0.763 -0.3601 -0.0158 -0.3575
  141MOL   O25842538   4.024   6.002   0.790 -0.6568  0.0784  0.5514
  141MOL   C25942539   4.044   5.929   0.903  0.8849  0.3859  0.6906
  141MOL   O26042540   3.967   5.921   1.000  0.4806 -0.5254 -0.5783
  141MOL   C26142541   4.173   5.853   0.888 -0.8654  0.9688 -0.1058
  141MOL   C26242542   4.224   5.791   1.021 -0.5081 -0.0232  0.3280
  141MOL   C26342543   3.943   6.232   0.820  0.3875  0.2660 -1.5617
  141MOL   H26442544   3.822   6.040   0.799  0.0654  0.5785  1.4890
  141MOL   H26542545   4.150   5.770   0.821  1.8067 -1.2764  1.6685
  141MOL   H26642546   4.247   5.922   0.848  0.9691  0.5183  2.4254
  141MOL   H26742547   4.320   5.742   1.006  0.3005  0.7823  2.6271
  141MOL   H26842548   4.238   5.874   1.090  0.5750  0.1070 -0.0510
  141MOL   H26942549   4.160   5.716   1.067 -0.1568 -1.0173 -0.7746
  141MOL   H27042550   3.955   6.232   0.928  0.2287 -1.7359 -1.5155
  141MOL   H27142551   4.035   6.268   0.775  0.8355 -2.0144 -2.5060
  141MOL   C27242552   3.821   6.330   0.785  0.2489  0.3196  0.0982
  141MOL   O27342553   3.712   6.288   0.867 -0.3318  0.0209 -0.1961
  141MOL   C27442554   3.586   6.300   0.834  0.6946 -0.2129  0.7551
  141MOL   O27542555   3.546   6.340   0.725 -0.6674  0.2247  0.5136
  141MOL   C27642556   3.491   6.278   0.948  0.2211  0.4776  0.0373
  141MOL   C27742557   3.466   6.406   1.031 -0.3819 -0.0518 -0.6457
  141MOL   C27842558   3.852   6.474   0.834  0.3014 -0.3403 -0.7738
  141MOL   H27942559   3.786   6.312   0.684  0.3551  0.6310  0.0079
  141MOL   H28042560   3.400   6.235   0.906  0.5156 -0.0729 -0.0464
  141MOL   H28142561   3.523   6.201   1.019  1.3691  0.7443 -0.1680
  141MOL   H28242562   3.540   6.409   1.111 -0.7368  0.4821 -0.3376
  141MOL   H28342563   3.480   6.495   0.971 -0.7557  0.4755  0.0461
  141MOL   H28442564   3.368   6.399   1.077  0.2503  0.2290  0.7771
  141MOL   H28542565   3.752   6.516   0.839 -0.1134 -1.2032 -1.7490
  141MOL   H28642566   3.885   6.460   0.938  1.5871  2.5345 -0.7521
  141MOL   C28742567   3.936   6.564   0.742  0.2623 -0.1572  0.3013
  141MOL   O28842568   4.069   6.511   0.709 -0.0963  0.4533 -0.0984
  141MOL   C28942569   4.168   6.548   0.791  0.3468  0.4309 -1.1765
  141MOL   O29042570   4.160   6.625   0.884  0.5748 -0.9552 -0.0715
  141MOL   C29142571   4.297   6.476   0.750 -0.3317 -0.2697  0.5594
  141MOL   C29242572   4.333   6.362   0.845 -0.0657 -0.0610  0.0987
  141MOL   C29342573   3.861   6.582   0.608 -0.2607  0.6408  0.2739
  141MOL   H29442574   3.948   6.667   0.777  0.3246  0.7247 -2.2206
  141MOL   H29542575   4.273   6.441   0.650  1.9826  0.5266 -0.2979
  141MOL   H29642576   4.372   6.555   0.745 -0.7400  0.1572  1.1309
  141MOL   H29742577   4.312   6.378   0.951 -0.4407  0.2592 -0.0215
  141MOL   H29842578   4.281   6.275   0.806  0.9153 -0.0635 -1.2581
  141MOL   H29942579   4.439   6.338   0.838 -0.1693 -0.4009 -0.2742
  141MOL   H30042580   3.917   6.652   0.546  1.7505 -0.7037  0.5502
  141MOL   H30142581   3.854   6.486   0.556 -2.1159 -0.3259  2.2257
  141MOL   H30242582   3.760   6.623   0.609 -0.6817 -0.3240  3.4032
  142MOL     C142583   3.455   6.461   5.240 -0.4520 -0.0374 -0.1713
  142MOL     O242584   3.461   6.478   5.383 -0.3426  0.3883  0.1852
  142MOL     C342585   3.573   6.527   5.441  0.3987 -0.4033 -0.0375
  142MOL     O442586   3.666   6.574   5.379  0.3601 -0.5685 -0.4728
  142MOL     C542587   3.577   6.511   5.591  0.4547  0.2554  0.3813
  142MOL     C642588   3.444   6.455   5.653 -0.4003  0.3627  0.3276
  142MOL     C742589   3.450   6.314   5.215  0.3919  0.6101 -0.2731
  142MOL     H842590   3.544   6.495   5.185  0.6246  0.5318  1.8601
  142MOL     H942591   3.654   6.438   5.614 -0.9532 -0.8457  1.6889
  142MOL    H1042592   3.614   6.607   5.628  0.2656  0.2076  0.6994
  142MOL    H1142593   3.421   6.359   5.606  2.0616 -0.2387  0.3172
  142MOL    H1242594   3.453   6.431   5.759  1.5914 -1.2313 -0.1639
  142MOL    H1342595   3.359   6.523   5.646  0.9036  1.9032 -0.7075
  142MOL    H1442596   3.541   6.255   5.223  0.2845  0.3666 -0.7740
  142MOL    H1542597   3.376   6.272   5.284  0.1973  2.0985  0.4306
  142MOL    H1642598   3.366   6.517   5.212 -1.9664 -2.4063 -0.1839
  142MOL    C1742599   3.396   6.271   5.076  0.1153 -0.2395  0.5542
  142MOL    O1842600   3.507   6.257   4.990 -0.0929 -0.6532 -0.3456
  142MOL    C1942601   3.526   6.333   4.882  0.2423 -0.3121 -0.7280
  142MOL    O2042602   3.445   6.410   4.827  0.5831  0.2225  0.3692
  142MOL    C2142603   3.658   6.308   4.812 -0.5247 -0.4295 -0.1981
  142MOL    C2242604   3.640   6.281   4.664  0.0187  0.1857  0.0544
  142MOL    C2342605   3.311   6.135   5.054 -0.2859 -0.9895 -0.3853
  142MOL    H2442606   3.329   6.353   5.047 -0.6092 -0.4708  1.5602
  142MOL    H2542607   3.742   6.375   4.829  0.0746 -0.8838 -1.3347
  142MOL    H2642608   3.689   6.211   4.851 -2.2941 -0.7151  0.5425
  142MOL    H2742609   3.724   6.232   4.614  0.3434  0.1866  0.5938
  142MOL    H2842610   3.550   6.222   4.647 -1.9977  3.0729  0.3221
  142MOL    H2942611   3.625   6.376   4.612  1.7465 -0.5042 -1.7643
  142MOL    H3042612   3.364   6.045   5.087  2.3380  1.0753  1.1673
  142MOL    H3142613   3.223   6.138   5.119  1.4753  0.5709  1.9813
  142MOL    C3242614   3.246   6.122   4.907 -0.2835  0.7246  0.2856
  142MOL    O3342615   3.235   5.986   4.873 -0.8201  0.3391  0.4541
  142MOL    C3442616   3.306   5.931   4.769  0.2104 -0.0905  0.5640
  142MOL    O3542617   3.382   5.986   4.691 -0.0543 -0.2726  0.1627
  142MOL    C3642618   3.262   5.780   4.757 -0.5149  0.8289 -0.1887
  142MOL    C3742619   3.128   5.766   4.676  0.5947  0.1168 -0.9401
  142MOL    C3842620   3.104   6.182   4.911  0.5927  0.1969  0.6420
  142MOL    H3942621   3.307   6.182   4.841  0.1096  1.7508  1.5603
  142MOL    H4042622   3.350   5.729   4.719  0.0714  0.7649  1.2287
  142MOL    H4142623   3.238   5.735   4.854  0.9446 -0.3387 -0.3545
  142MOL    H4242624   3.081   5.864   4.685 -0.3277 -0.2806 -1.4563
  142MOL    H4342625   3.138   5.766   4.568 -3.1055  1.7990 -1.3877
  142MOL    H4442626   3.058   5.691   4.713  2.0446 -1.5627 -1.5736
  142MOL    H4542627   3.041   6.125   4.979  1.4759 -0.4728  0.9163
  142MOL    H4642628   3.112   6.282   4.954 -0.6620  1.0025 -0.9369
  142MOL    C4742629   3.033   6.210   4.777  0.3219 -0.2679 -0.5161
  142MOL    O4842630   2.912   6.271   4.826 -0.1601  0.4348 -0.0942
  142MOL    C4942631   2.796   6.244   4.770  0.3204  0.5888  0.3967
  142MOL    O5042632   2.777   6.167   4.679 -0.0871 -0.1038  0.6212
  142MOL    C5142633   2.682   6.321   4.832 -0.5623  0.4874  0.4931
  142MOL    C5242634   2.605   6.403   4.731 -0.1806  0.8493 -0.3413
  142MOL    C5342635   3.111   6.318   4.689 -0.3700  0.5876 -0.6702
  142MOL    H5442636   3.023   6.119   4.719  3.5941 -0.9215 -0.1287
  142MOL    H5542637   2.608   6.259   4.883 -0.1825 -1.4748 -1.2605
  142MOL    H5642638   2.722   6.401   4.893  0.3303 -0.9040  1.7621
  142MOL    H5742639   2.554   6.343   4.656 -0.5896  2.3705 -1.3074
  142MOL    H5842640   2.540   6.477   4.778 -0.2097  0.4138  0.2987
  142MOL    H5942641   2.674   6.470   4.678 -0.6669  2.0760  0.5617
  142MOL    H6042642   3.049   6.404   4.663  0.5407  1.4351 -0.0526
  142MOL    H6142643   3.193   6.357   4.748  0.4394 -1.6248 -0.2690
  142MOL    C6242644   3.162   6.257   4.554  0.4362  0.2237  0.3155
  142MOL    O6342645   3.052   6.231   4.471 -0.9694 -0.0139 -0.7783
  142MOL    C6442646   3.027   6.106   4.428 -0.5576 -1.1617  0.1101
  142MOL    O6542647   3.086   6.004   4.463  0.1335 -0.0921  0.1911
  142MOL    C6642648   2.901   6.100   4.342 -0.0763  1.1531  0.5262
  142MOL    C6742649   2.936   6.064   4.193 -0.5293  0.4110  0.0212
  142MOL    C6842650   3.245   6.363   4.485 -0.1909 -0.5118 -0.3186
  142MOL    H6942651   3.219   6.167   4.578 -2.3485 -0.9927  2.5823
  142MOL    H7042652   2.849   6.016   4.388 -2.0884  0.8971 -2.1253
  142MOL    H7142653   2.840   6.190   4.348 -0.5763  0.7267  2.0719
  142MOL    H7242654   2.856   6.024   4.130 -1.7328 -1.2218  2.4761
  142MOL    H7342655   2.984   6.147   4.140 -1.8561  2.1075  1.3878
  142MOL    H7442656   2.996   5.973   4.188 -0.4833  0.2856  2.1515
  142MOL    H7542657   3.195   6.460   4.478  0.7188 -0.1833 -2.8770
  142MOL    H7642658   3.322   6.380   4.561 -1.1368 -0.6255  0.6814
  142MOL    C7742659   3.316   6.315   4.351 -0.3046 -0.8934 -0.0993
  142MOL    O7842660   3.363   6.436   4.287 -0.0117  0.4927  0.2550
  142MOL    C7942661   3.358   6.448   4.156  0.8571 -0.5045 -0.8877
  142MOL    O8042662   3.291   6.373   4.081 -0.8752 -0.9503 -0.7081
  142MOL    C8142663   3.433   6.572   4.106 -0.0911  0.9045 -0.6273
  142MOL    C8242664   3.422   6.694   4.202 -0.7010  0.9332 -0.0610
  142MOL    C8342665   3.432   6.219   4.372  0.2136 -0.3358  0.1771
  142MOL    H8442666   3.247   6.264   4.284 -0.3933 -1.0878  0.1359
  142MOL    H8542667   3.538   6.544   4.094 -0.0066  0.0070  1.8324
  142MOL    H8642668   3.388   6.614   4.016 -2.1858  0.4502  0.1758
  142MOL    H8742669   3.478   6.774   4.152 -1.6803  0.4082 -2.0652
  142MOL    H8842670   3.320   6.728   4.218 -1.1708  0.5074 -1.9748
  142MOL    H8942671   3.472   6.687   4.298  0.6680 -0.9973 -0.8767
  142MOL    H9042672   3.495   6.261   4.450 -1.2143  0.3289  1.0000
  142MOL    H9142673   3.376   6.137   4.416  2.9950 -1.6431  1.4052
  142MOL    C9242674   3.503   6.175   4.251 -0.3726  0.0576 -0.5818
  142MOL    O9342675   3.629   6.112   4.284 -0.3083  0.1357 -0.4839
  142MOL    C9442676   3.748   6.175   4.303  0.1664 -0.4528 -0.2346
  142MOL    O9542677   3.756   6.302   4.303 -0.7523  0.2677 -0.6317
  142MOL    C9642678   3.873   6.086   4.319 -0.1803 -0.3103  0.1529
  142MOL    C9742679   3.842   5.996   4.441  0.3437 -0.2313  0.7169
  142MOL    C9842680   3.415   6.074   4.166 -0.1054 -0.0546 -0.4788
  142MOL    H9942681   3.532   6.263   4.193  3.8819 -1.6026 -1.1667
  142MOL   H10042682   3.872   6.024   4.229 -0.4576  2.4742 -1.8013
  142MOL   H10142683   3.963   6.147   4.320 -0.9256  0.8081 -0.0964
  142MOL   H10242684   3.779   5.913   4.410 -1.5506  2.1495 -2.0669
  142MOL   H10342685   3.940   5.978   4.485  0.7147  2.7909  1.2340
  142MOL   H10442686   3.795   6.046   4.526  2.0223  0.9133  0.9974
  142MOL   H10542687   3.372   5.992   4.224  0.8923 -0.4695 -0.3178
  142MOL   H10642688   3.322   6.122   4.135 -1.0755 -0.9647  0.9612
  142MOL   C10742689   3.492   6.017   4.047 -0.4638  0.3565  0.4220
  142MOL   O10842690   3.569   5.895   4.090  0.4405 -0.4098  0.3498
  142MOL   C10942691   3.700   5.884   4.054  0.2839  1.0252 -0.3735
  142MOL   O11042692   3.752   5.961   3.970 -0.6813 -0.1370 -0.2283
  142MOL   C11142693   3.775   5.757   4.108 -0.2277  0.0204  0.0224
  142MOL   C11242694   3.693   5.635   4.058 -0.4441 -0.0329  0.2627
  142MOL   C11342695   3.390   5.979   3.936 -0.5234  0.3593 -0.2660
  142MOL   H11442696   3.560   6.094   4.012 -1.2734  0.3707 -1.2007
  142MOL   H11542697   3.877   5.753   4.070  0.5251  0.7467  1.9225
  142MOL   H11642698   3.764   5.762   4.216 -0.2050  1.7424 -0.0527
  142MOL   H11742699   3.586   5.634   4.081 -0.2458  1.1380  1.2840
  142MOL   H11842700   3.714   5.630   3.951  1.8438  1.2523  0.6180
  142MOL   H11942701   3.733   5.544   4.104  0.1980  2.3108  4.6573
  142MOL   H12042702   3.306   5.925   3.979  0.5936  0.8691  2.6214
  142MOL   H12142703   3.338   6.063   3.887 -1.4446 -0.3067 -0.4421
  142MOL   C12242704   3.456   5.905   3.816 -0.1198  0.7422 -0.1991
  142MOL   O12342705   3.362   5.846   3.731 -0.4715 -0.0865 -0.4279
  142MOL   C12442706   3.293   5.724   3.766  0.3956  0.4458  0.1731
  142MOL   O12542707   3.291   5.657   3.876  0.2868 -0.6373  0.2446
  142MOL   C12642708   3.203   5.685   3.652 -0.8310 -0.1816  0.5351
  142MOL   C12742709   3.180   5.529   3.629  0.0682  0.6210  0.2967
  142MOL   C12842710   3.542   5.989   3.718  0.7936  0.4209  0.0273
  142MOL   H12942711   3.520   5.826   3.855  0.5395 -0.2649 -3.2289
  142MOL   H13042712   3.108   5.733   3.672 -0.1920  0.1003  3.0690
  142MOL   H13142713   3.245   5.728   3.561 -2.0926 -0.9535 -0.4353
  142MOL   H13242714   3.242   5.465   3.692  0.6361 -0.4317 -1.2962
  142MOL   H13342715   3.075   5.503   3.641  0.4190 -0.9549  0.0649
  142MOL   H13442716   3.211   5.480   3.536 -1.3240 -1.1222  0.7128
  142MOL   H13542717   3.478   6.061   3.668  1.2220  0.9121  0.1852
  142MOL   H13642718   3.598   6.063   3.776 -1.8425  0.9297  2.0283
  142MOL   C13742719   3.625   5.915   3.612 -0.2156  0.5210  0.4984
  142MOL   O13842720   3.665   6.012   3.519 -0.0676 -0.4739  0.3518
  142MOL   C13942721   3.594   6.028   3.397 -0.4311 -0.3858 -0.0997
  142MOL   O14042722   3.500   5.957   3.365 -0.4087  0.7393  0.2131
  142MOL   C14142723   3.636   6.152   3.320 -0.4510 -0.2646 -0.4376
  142MOL   C14242724   3.604   6.137   3.173 -0.3190  0.5386 -0.4266
  142MOL   C14342725   3.754   5.849   3.652 -0.8240  0.1003  0.2141
  142MOL   H14442726   3.562   5.841   3.563 -0.3941  1.5292 -0.8195
  142MOL   H14542727   3.593   6.245   3.356  2.1635  0.7570  0.1198
  142MOL   H14642728   3.740   6.166   3.348 -0.8810  2.4602 -0.1513
  142MOL   H14742729   3.501   6.168   3.156 -0.4934 -0.2181 -0.7556
  142MOL   H14842730   3.678   6.196   3.119 -0.2432  0.5186 -0.3450
  142MOL   H14942731   3.622   6.032   3.153  0.0254  0.4332  0.4129
  142MOL   H15042732   3.812   5.917   3.714 -0.8527 -0.3404  0.7314
  142MOL   H15142733   3.734   5.765   3.719  0.5235 -0.6510 -0.2933
  142MOL   C15242734   3.825   5.778   3.533 -0.5959 -0.5922  0.3835
  142MOL   O15342735   3.915   5.875   3.491  0.1078  1.0288  0.2014
  142MOL   C15442736   3.935   5.897   3.356  0.7822 -0.1564 -0.2381
  142MOL   O15542737   3.888   5.828   3.270 -0.4422  0.9603  0.2427
  142MOL   C15642738   4.023   6.014   3.320  0.0263  0.1927  0.4475
  142MOL   C15742739   4.087   6.016   3.181  0.9356 -0.7566  0.0168
  142MOL   C15842740   3.912   5.651   3.575 -0.6783 -0.2381  0.3179
  142MOL   H15942741   3.747   5.761   3.459  0.6047 -0.4749 -0.9315
  142MOL   H16042742   3.967   6.105   3.341  0.5946  1.0948 -1.8328
  142MOL   H16142743   4.102   6.013   3.395  1.1610  1.9172 -0.6844
  142MOL   H16242744   4.187   6.058   3.178  0.4158  0.5178  0.2566
  142MOL   H16342745   4.084   5.928   3.116  0.2433  0.7799 -2.0837
  142MOL   H16442746   4.034   6.092   3.124  1.2425  1.0992  2.1498
  142MOL   H16542747   3.986   5.627   3.499 -0.6690  2.3827 -0.5630
  142MOL   H16642748   3.969   5.683   3.662  0.1930  1.4225 -0.8337
  142MOL   C16742749   3.844   5.524   3.614  0.4036  0.3788 -0.2329
  142MOL   O16842750   3.751   5.492   3.508  0.0616 -0.2966  0.9341
  142MOL   C16942751   3.617   5.519   3.526 -0.0561  0.5839  0.4748
  142MOL   O17042752   3.570   5.565   3.625 -0.5777 -0.2446 -0.8082
  142MOL   C17142753   3.530   5.481   3.409  0.5593 -0.2200  0.1917
  142MOL   C17242754   3.559   5.584   3.303 -0.0105 -0.1342 -0.4845
  142MOL   C17342755   3.937   5.395   3.628  0.3605 -0.0851  0.5662
  142MOL   H17442756   3.795   5.533   3.711 -0.8158 -0.7813 -0.7309
  142MOL   H17542757   3.535   5.374   3.389 -0.1614  0.0715 -1.6681
  142MOL   H17642758   3.430   5.496   3.450  0.0196 -0.1788 -1.0931
  142MOL   H17742759   3.664   5.584   3.273  0.1196 -4.4578 -0.3980
  142MOL   H17842760   3.506   5.550   3.214 -1.2355 -0.9981  0.5603
  142MOL   H17942761   3.524   5.684   3.326 -1.5275 -0.8854  0.5150
  142MOL   H18042762   3.938   5.350   3.529 -0.1242  2.2903 -0.5471
  142MOL   H18142763   4.041   5.423   3.643  0.9041 -0.6131 -2.0817
  142MOL   C18242764   3.898   5.287   3.732 -0.3039  0.1772  0.5732
  142MOL   O18342765   3.763   5.261   3.717  0.3219  0.3864  0.4233
  142MOL   C18442766   3.670   5.272   3.817 -0.4839  0.1802  0.0777
  142MOL   O18542767   3.701   5.321   3.927 -0.0259 -0.5033  0.0052
  142MOL   C18642768   3.535   5.206   3.783  0.0134  0.3318 -0.4462
  142MOL   C18742769   3.440   5.192   3.907  0.2074 -0.0555  0.0125
  142MOL   C18842770   3.980   5.160   3.713 -0.3425  0.3598 -0.6208
  142MOL   H18942771   3.916   5.332   3.830 -2.9655  3.0735 -0.2162
  142MOL   H19042772   3.485   5.267   3.708  1.8334  2.1054 -0.2563
  142MOL   H19142773   3.559   5.113   3.731 -0.4576 -0.7022  1.1424
  142MOL   H19242774   3.481   5.145   3.997 -0.8954 -0.1816  0.4562
  142MOL   H19342775   3.403   5.289   3.940  0.1545 -0.1431  0.2181
  142MOL   H19442776   3.352   5.130   3.886  0.5861 -0.5829 -0.0397
  142MOL   H19542777   3.936   5.085   3.778  0.0757  1.3964  0.8671
  142MOL   H19642778   3.976   5.134   3.607 -0.2333 -1.3763 -0.2226
  142MOL   C19742779   4.125   5.168   3.750  0.0566  0.1330 -0.6110
  142MOL   O19842780   4.143   5.220   3.874  0.7719 -0.5608 -0.0714
  142MOL   C19942781   4.214   5.342   3.886  0.6322  0.2641  0.5095
  142MOL   O20042782   4.280   5.407   3.801  0.5650 -0.4298 -0.3343
  142MOL   C20142783   4.200   5.388   4.033 -0.0603 -0.5326  0.0165
  142MOL   C20242784   4.064   5.439   4.074 -0.1934 -0.0640  1.0865
  142MOL   C20342785   4.194   5.033   3.734 -0.1924 -0.2763  0.3345
  142MOL   H20442786   4.159   5.244   3.679 -0.0108  0.5703 -0.1742
  142MOL   H20542787   4.219   5.304   4.098  1.2839 -0.3028 -0.0618
  142MOL   H20642788   4.280   5.459   4.056 -1.2841  0.7073  0.4770
  142MOL   H20742789   4.022   5.385   4.159 -2.6885  1.9288  1.1693
  142MOL   H20842790   4.071   5.545   4.100 -1.8359  0.7334 -1.5446
  142MOL   H20942791   3.995   5.441   3.990  2.1808  1.4568 -0.8829
  142MOL   H21042792   4.158   4.972   3.817  0.7829  0.4814  1.3287
  142MOL   H21142793   4.155   4.978   3.648 -0.6558 -0.3402  0.5786
  142MOL   C21242794   4.346   5.043   3.731  0.1730  0.0368  0.0423
  142MOL   O21342795   4.398   4.923   3.770 -0.0823 -0.0688  0.4194
  142MOL   C21442796   4.473   4.925   3.880 -0.5523  0.7652 -0.5204
  142MOL   O21542797   4.504   5.024   3.946 -0.1709 -0.0232 -0.1856
  142MOL   C21642798   4.506   4.786   3.931  0.1890  0.4580  0.0471
  142MOL   C21742799   4.656   4.756   3.905  0.3322  0.0192  0.2110
  142MOL   C21842800   4.395   5.077   3.590 -0.5397  0.1407 -0.3700
  142MOL   H21942801   4.367   5.129   3.795 -0.1963 -1.0373  1.6217
  142MOL   H22042802   4.480   4.786   4.036 -3.9075 -0.7043 -0.9054
  142MOL   H22142803   4.442   4.706   3.895 -0.0040  1.6116 -2.2440
  142MOL   H22242804   4.681   4.664   3.958 -1.0523  0.0584  0.9370
  142MOL   H22342805   4.676   4.750   3.798  2.4185 -0.9783  0.6428
  142MOL   H22442806   4.713   4.836   3.952 -0.7868  1.5491 -1.0015
  142MOL   H22542807   4.400   4.985   3.533 -1.2346 -1.4012  1.9820
  142MOL   H22642808   4.316   5.131   3.538 -2.0068 -2.0647 -0.5142
  142MOL   C22742809   4.523   5.162   3.581 -0.5270 -0.0692 -0.6223
  142MOL   O22842810   4.622   5.100   3.661 -0.3868 -1.0172  0.2291
  142MOL   C22942811   4.707   5.182   3.727 -0.0804 -0.8731 -0.3594
  142MOL   O23042812   4.704   5.305   3.724 -0.2009 -0.7444  0.2737
  142MOL   C23142813   4.797   5.109   3.822 -0.1882  0.3376 -0.4883
  142MOL   C23242814   4.945   5.155   3.827  0.0122 -0.4282 -0.1961
  142MOL   C23342815   4.581   5.177   3.439  0.0291 -0.8834 -0.0956
  142MOL   H23442816   4.501   5.261   3.621 -0.6280  0.2818 -1.5255
  142MOL   H23542817   4.758   5.123   3.922  0.6172 -0.6975 -0.0128
  142MOL   H23642818   4.799   5.007   3.781 -0.3265  0.4276 -0.7202
  142MOL   H23742819   4.988   5.106   3.915 -0.1281  0.0923  0.1659
  142MOL   H23842820   4.990   5.133   3.730 -1.7045  0.5871 -1.2349
  142MOL   H23942821   4.947   5.262   3.847  0.5835 -0.5129  0.2360
  142MOL   H24042822   4.678   5.226   3.447  0.0644 -1.2639  2.3912
  142MOL   H24142823   4.598   5.078   3.395  4.0120  0.4696 -1.7741
  142MOL   C24242824   4.490   5.259   3.348  0.2200  0.0277 -1.1015
  142MOL   O24342825   4.494   5.390   3.408  0.2231 -0.0860  0.0891
  142MOL   C24442826   4.378   5.434   3.472 -0.1166  0.5307  0.1107
  142MOL   O24542827   4.278   5.363   3.479  0.3543  0.5981  0.1046
  142MOL   C24642828   4.378   5.577   3.526  0.3871  0.1518 -0.6417
  142MOL   C24742829   4.397   5.683   3.420  0.0168 -0.9049  0.9978
  142MOL   C24842830   4.554   5.283   3.218 -0.8539 -0.1875  0.3795
  142MOL   H24942831   4.389   5.222   3.332  0.2386  0.2922 -1.8410
  142MOL   H25042832   4.279   5.586   3.570 -0.3327  1.0658 -2.4086
  142MOL   H25142833   4.456   5.593   3.601  0.0636 -1.0248 -0.0255
  142MOL   H25242834   4.393   5.782   3.465  1.6044 -0.9546  1.2791
  142MOL   H25342835   4.497   5.677   3.376 -0.6929 -3.0623 -0.3772
  142MOL   H25442836   4.347   5.681   3.323  0.4582  0.9452  0.7088
  142MOL   H25542837   4.644   5.345   3.225 -1.2983  0.3367  1.5610
  142MOL   H25642838   4.591   5.185   3.188  2.5690  0.9558  0.6286
  142MOL   C25742839   4.456   5.320   3.109 -0.2402  0.9051  0.3489
  142MOL   O25842840   4.377   5.436   3.127 -0.3349 -0.5777 -0.1221
  142MOL   C25942841   4.243   5.431   3.108 -0.0001 -0.1215 -0.1781
  142MOL   O26042842   4.179   5.339   3.067  0.3082 -0.0502  0.8012
  142MOL   C26142843   4.167   5.562   3.138  0.0172 -0.1674 -0.2364
  142MOL   C26242844   4.220   5.681   3.057  0.8849 -0.2803  0.1403
  142MOL   C26342845   4.523   5.362   2.973  0.3199  0.1406 -0.0041
  142MOL   H26442846   4.393   5.232   3.097  0.7444  0.1538  0.5801
  142MOL   H26542847   4.060   5.553   3.125  0.1136  0.8073 -1.8125
  142MOL   H26642848   4.188   5.577   3.245 -1.8626 -1.3369  0.3053
  142MOL   H26742849   4.317   5.666   3.009  0.2996  0.2384 -1.2080
  142MOL   H26842850   4.135   5.706   2.994  1.1584  2.8255  0.9456
  142MOL   H26942851   4.222   5.770   3.120  2.0881 -1.2379  1.5172
  142MOL   H27042852   4.457   5.421   2.909 -2.1067 -0.2156  2.0700
  142MOL   H27142853   4.592   5.442   2.997  0.4887  0.1168 -0.4089
  142MOL   C27242854   4.585   5.245   2.890  1.1335  0.7986 -0.5749
  142MOL   O27342855   4.482   5.153   2.850 -0.1531  0.1420 -0.5492
  142MOL   C27442856   4.486   5.019   2.868 -0.0202 -0.1612  0.7069
  142MOL   O27542857   4.578   4.957   2.924 -0.2576  0.4168  0.0133
  142MOL   C27642858   4.360   4.949   2.815  0.5371 -0.3836 -0.2875
  142MOL   C27742859   4.346   4.975   2.667 -0.3695 -0.1131  0.1461
  142MOL   C27842860   4.661   5.279   2.749  0.1840  0.5828 -0.4938
  142MOL   H27942861   4.654   5.187   2.950 -1.4803  0.1299  1.8997
  142MOL   H28042862   4.378   4.843   2.835  0.2442 -0.2203  0.8231
  142MOL   H28142863   4.264   4.979   2.856  1.5194  3.5017 -0.6228
  142MOL   H28242864   4.441   4.973   2.614  0.1677  1.2970  1.0144
  142MOL   H28342865   4.265   4.917   2.622 -0.4203 -1.1076  1.4774
  142MOL   H28442866   4.312   5.078   2.653 -0.0167  0.0897  0.7815
  142MOL   H28542867   4.685   5.183   2.703 -0.6270 -0.7817  1.8960
  142MOL   H28642868   4.584   5.326   2.688 -1.4006 -1.8969 -0.4492
  142MOL   C28742869   4.798   5.359   2.747 -0.1389 -0.2695  0.8031
  142MOL   O28842870   4.903   5.279   2.801  0.2449 -0.0388  0.1678
  142MOL   C28942871   4.915   5.283   2.935 -0.3192  0.4437 -0.0339
  142MOL   O29042872   4.842   5.337   3.014  1.2839  0.0875 -0.2168
  142MOL   C29142873   5.041   5.215   2.977 -0.2721 -0.1735  0.2325
  142MOL   C29242874   5.008   5.077   3.030 -0.0942 -0.1714 -0.0729
  142MOL   C29342875   4.832   5.408   2.604  0.4797  0.9813  0.2065
  142MOL   H29442876   4.782   5.449   2.807 -1.5028 -0.7050  1.1247
  142MOL   H29542877   5.112   5.207   2.895 -0.4804  0.9920 -0.0744
  142MOL   H29642878   5.091   5.278   3.051  1.8922 -2.0350  0.3891
  142MOL   H29742879   4.970   4.999   2.964 -0.1109 -0.2943  0.0791
  142MOL   H29842880   5.102   5.029   3.060 -0.6474 -2.3383 -1.7123
  142MOL   H29942881   4.951   5.062   3.122  3.7359  0.2390  2.4821
  142MOL   H30042882   4.881   5.323   2.557  2.5715  2.5213 -0.4666
  142MOL   H30142883   4.738   5.443   2.560 -0.3851 -0.5381  0.7926
  142MOL   H30242884   4.914   5.480   2.600  1.8759 -0.6614 -2.7826
  143MOL     C142885   3.021   0.056   2.173 -0.0684  0.2522  0.5586
  143MOL     O242886   2.958   0.034   2.292  0.5062  0.0039 -0.4231
  143MOL     C342887   2.840   0.097   2.316 -0.0846 -0.6533 -0.6972
  143MOL     O442888   2.780   0.173   2.235 -0.6303 -1.0211  0.5091
  143MOL     C542889   2.766   0.042   2.437 -0.2303  0.0228  0.9260
  143MOL     C642890   2.819   0.105   2.568 -0.0486 -0.8515  0.5384
  143MOL     C742891   3.160   7.927   2.171  0.2611  0.3573  0.7005
  143MOL     H842892   3.037   0.163   2.160  0.6509  0.0721 -0.0835
  143MOL     H942893   2.661   0.064   2.420 -0.3797  0.0085  1.8482
  143MOL    H1042894   2.762   7.878   2.446 -0.4630  0.0804  1.5044
  143MOL    H1142895   2.732   0.111   2.633 -1.2860  0.6851 -1.1935
  143MOL    H1242896   2.900   0.048   2.613  0.4887 -1.5809 -1.3058
  143MOL    H1342897   2.843   0.211   2.557 -1.2852 -0.4156  1.8840
  143MOL    H1442898   3.222   0.011   2.256  0.6459 -1.0308  0.9018
  143MOL    H1542899   3.155   7.819   2.184 -0.6266  0.4033  0.7743
  143MOL    H1642900   2.968   0.014   2.088  0.3688  1.4457 -0.3286
  143MOL    C1742901   3.246   0.020   2.052 -0.4461  0.2118 -0.2167
  143MOL    O1842902   3.284   0.160   2.062  0.7418 -0.0178 -0.1146
  143MOL    C1942903   3.278   0.245   1.957 -0.2971 -0.2840 -0.0871
  143MOL    O2042904   3.254   0.212   1.838 -0.4579  0.0473 -0.6221
  143MOL    C2142905   3.319   0.385   1.996 -0.5781  0.4674  0.3316
  143MOL    C2242906   3.333   0.476   1.878  0.1958  0.0266  1.2390
  143MOL    C2342907   3.366   7.873   2.047  0.1938  0.2408  0.5336
  143MOL    H2442908   3.190   0.011   1.958  0.9108 -0.6786 -0.9441
  143MOL    H2542909   3.251   0.422   2.073 -0.4992  1.4489 -0.0572
  143MOL    H2642910   3.416   0.371   2.042  1.0333  0.7881 -2.8243
  143MOL    H2742911   3.412   0.445   1.810  0.6162  1.2303  1.1758
  143MOL    H2842912   3.237   0.488   1.828  1.3824 -1.2488 -1.4810
  143MOL    H2942913   3.368   0.573   1.911 -0.7859  0.7574  0.1702
  143MOL    H3042914   3.426   7.875   2.138 -0.1695 -0.9828  0.8115
  143MOL    H3142915   3.329   7.771   2.040 -0.2940  0.4992 -0.8699
  143MOL    C3242916   3.459   7.893   1.926  0.0537  0.3248 -0.5014
  143MOL    O3342917   3.566   7.806   1.949  0.3068  0.1293 -0.6226
  143MOL    C3442918   3.688   7.850   1.978  1.1058 -0.3527 -0.7250
  143MOL    O3542919   3.721   0.021   1.981 -0.1591  0.2821  0.3057
  143MOL    C3642920   3.790   7.736   2.003  0.4692 -0.0742 -0.0352
  143MOL    C3742921   3.799   7.640   1.885  0.4458 -0.3367  0.1099
  143MOL    C3842922   3.377   7.861   1.797 -0.4137  0.5846  0.4271
  143MOL    H3942923   3.495   0.052   1.927 -2.0842  1.0949 -0.4744
  143MOL    H4042924   3.884   7.776   2.040  0.1962  0.4234  0.1251
  143MOL    H4142925   3.762   7.676   2.089 -1.0959  1.5510  0.6334
  143MOL    H4242926   3.821   7.686   1.789  1.3038 -0.3278  0.3083
  143MOL    H4342927   3.885   7.576   1.907  0.4411 -0.1358  0.7249
  143MOL    H4442928   3.709   7.580   1.877  1.1971 -1.7158  1.5470
  143MOL    H4542929   3.345   7.757   1.798 -2.0746  1.0734 -0.6505
  143MOL    H4642930   3.286   7.912   1.767  0.3113  1.9076  0.4115
  143MOL    C4742931   3.469   7.859   1.672 -0.0898 -0.5697 -0.1649
  143MOL    O4842932   3.381   7.821   1.564  0.1326 -0.2869 -0.3399
  143MOL    C4942933   3.411   7.723   1.489 -0.6350 -0.4714 -0.1176
  143MOL    O5042934   3.514   7.654   1.504 -0.0741 -0.3012  0.2795
  143MOL    C5142935   3.305   7.692   1.391  0.0875 -0.3854  0.4163
  143MOL    C5242936   3.344   7.581   1.292 -0.3382  0.2072  0.3820
  143MOL    C5342937   3.527   0.051   1.646  0.5482 -1.1368 -0.5765
  143MOL    H5442938   3.550   7.790   1.695  1.2642  1.4010  1.1380
  143MOL    H5542939   3.210   7.668   1.439  0.1108  0.1732  0.7408
  143MOL    H5642940   3.281   7.786   1.342  1.7970 -0.6365 -0.9589
  143MOL    H5742941   3.351   7.482   1.337 -0.2360  0.8535  1.8444
  143MOL    H5842942   3.278   7.582   1.206  1.5551  0.4791 -1.0976
  143MOL    H5942943   3.443   7.606   1.252 -0.8512  2.1789  0.3046
  143MOL    H6042944   3.445   0.119   1.623  2.8631  2.4456  1.1807
  143MOL    H6142945   3.556   0.099   1.740  1.0798 -0.4142 -1.0963
  143MOL    C6242946   3.644   0.051   1.552  0.0376  0.0475  0.5143
  143MOL    O6342947   3.640   0.174   1.475  0.7893  0.8746 -0.0340
  143MOL    C6442948   3.567   0.183   1.359  0.3546  0.0134  0.2129
  143MOL    O6542949   3.486   0.101   1.311 -0.4096  0.3562  0.0570
  143MOL    C6642950   3.590   0.315   1.281  0.3164 -0.2985  0.0894
  143MOL    C6742951   3.734   0.331   1.247  0.3686 -0.0632 -0.2473
  143MOL    C6842952   3.777   0.032   1.620  0.6608 -0.0138  0.0413
  143MOL    H6942953   3.622   7.912   1.485  0.3590  0.6385 -0.3431
  143MOL    H7042954   3.524   0.325   1.195  0.3158 -1.4496 -0.0485
  143MOL    H7142955   3.550   0.390   1.349 -1.0151 -0.4996 -0.4619
  143MOL    H7242956   3.739   0.424   1.190  3.4976 -0.0767 -0.0633
  143MOL    H7342957   3.789   0.362   1.336 -2.3830  0.6470  1.2705
  143MOL    H7442958   3.770   0.251   1.183  2.2421  2.4653 -2.4224
  143MOL    H7542959   3.803   0.123   1.674  0.7281  0.3869 -0.6647
  143MOL    H7642960   3.763   7.904   1.700  1.3932 -0.4901 -0.2593
  143MOL    C7742961   3.908   7.933   1.546  0.3402 -0.4969  0.1395
  143MOL    O7842962   3.893   7.792   1.513  0.3492 -0.4649 -0.3361
  143MOL    C7942963   3.997   7.714   1.526  0.3400  0.3869  0.4219
  143MOL    O8042964   4.096   7.737   1.598  0.4625  0.0603  0.0767
  143MOL    C8142965   3.974   7.582   1.456 -0.2915  0.1765 -0.1593
  143MOL    C8242966   4.107   7.503   1.435  0.2775 -0.4503  0.2747
  143MOL    C8342967   3.928   0.066   1.420 -0.5612 -0.2465  0.2327
  143MOL    H8442968   3.994   0.003   1.611  1.7043  0.7284 -1.9077
  143MOL    H8542969   3.899   7.519   1.504  0.4428 -0.2038  0.4959
  143MOL    H8642970   3.916   7.607   1.367 -1.9674  0.7213  1.0623
  143MOL    H8742971   4.128   7.462   1.534 -2.7819  0.9163  1.5583
  143MOL    H8842972   4.095   7.427   1.359  1.5988 -1.5249  1.1039
  143MOL    H8942973   4.184   7.572   1.400 -0.5828  0.1803 -0.3714
  143MOL    H9042974   3.854   0.040   1.345  0.8675  2.7416 -2.3354
  143MOL    H9142975   3.926   0.172   1.443  1.1216  0.0650 -0.9801
  143MOL    C9242976   4.070   0.047   1.360 -0.4473 -0.8575  0.4059
  143MOL    O9342977   4.072   0.130   1.241 -0.2977  0.4501 -0.2681
  143MOL    C9442978   4.038   0.075   1.120 -0.7367  0.3174 -0.4959
  143MOL    O9542979   4.005   7.899   1.101 -0.3889 -0.2563  0.0792
  143MOL    C9642980   4.034   0.177   1.010  0.3311  0.5338 -0.0899
  143MOL    C9742981   4.126   0.296   1.020 -0.6139 -0.1811 -0.5230
  143MOL    C9842982   4.184   0.106   1.454  0.3274  0.3017 -0.5824
  143MOL    H9942983   4.096   7.889   1.335  0.1523 -0.8158  0.8392
  143MOL   H10042984   4.055   0.133   0.913  2.9318  0.0368  0.6590
  143MOL   H10142985   3.933   0.206   0.982 -0.5108 -0.9445  1.3762
  143MOL   H10242986   4.062   0.369   1.068  0.0119  0.7987 -1.1623
  143MOL   H10342987   4.217   0.285   1.079  1.0997  1.1930 -2.8022
  143MOL   H10442988   4.146   0.346   0.925  2.3487  0.5906  0.4474
  143MOL   H10542989   4.171   0.211   1.479 -0.9123 -0.0321  0.2013
  143MOL   H10642990   4.174   0.054   1.550 -2.9758  2.3671  0.2438
  143MOL   C10742991   4.324   0.081   1.397 -0.0463 -0.6133  0.1156
  143MOL   O10842992   4.421   0.164   1.458  0.3394  0.2131 -0.3799
  143MOL   C10942993   4.443   0.291   1.416  0.2409  0.0904 -0.6733
  143MOL   O11042994   4.403   0.346   1.311  0.3769  0.1308 -0.1816
  143MOL   C11142995   4.523   0.365   1.517  0.3386 -0.4134  0.9428
  143MOL   C11242996   4.534   0.511   1.473 -0.7000 -0.9485  0.0840
  143MOL   C11342997   4.368   7.881   1.413 -0.4755  0.4380 -0.0717
  143MOL   H11442998   4.329   0.106   1.291 -0.3624 -1.0553 -0.0041
  143MOL   H11542999   4.463   0.363   1.608  0.0015 -1.4700  0.7038
  143MOL   H11643000   4.612   0.316   1.557  0.6087 -0.3296  0.4541
  143MOL   H11743001   4.624   0.536   1.417 -1.2337 -0.7402 -0.6899
  143MOL   H11843002   4.448   0.550   1.419 -1.1804  0.1986  1.6497
  143MOL   H11943003   4.542   0.579   1.558  3.0152  0.4699 -1.2877
  143MOL   H12043004   4.408   7.854   1.511 -1.9639  0.0391  0.4382
  143MOL   H12143005   4.283   7.813   1.414  0.3699 -0.7176 -2.4418
  143MOL   C12243006   4.458   7.826   1.293  0.8994 -0.4545  0.3892
  143MOL   O12343007   4.392   7.846   1.167 -0.7871 -0.3759 -0.3760
  143MOL   C12443008   4.353   7.746   1.085  0.4743  0.4811  0.1812
  143MOL   O12543009   4.357   7.626   1.117  0.5156 -0.0907 -0.4555
  143MOL   C12643010   4.304   7.782   0.947 -0.2519  0.5871 -0.2098
  143MOL   C12743011   4.412   7.763   0.840 -0.9209  0.0468  0.5321
  143MOL   C12843012   4.601   7.882   1.280 -0.2950 -0.2800 -0.2014
  143MOL   H12943013   4.469   7.719   1.307  1.6955 -0.4428 -0.1187
  143MOL   H13043014   4.214   7.725   0.921  0.0563 -0.0445  0.1095
  143MOL   H13143015   4.278   7.888   0.945  1.1883  1.0161  2.0021
  143MOL   H13243016   4.365   7.745   0.743 -1.3389 -2.4956  1.1604
  143MOL   H13343017   4.482   7.846   0.834  0.6985 -1.3611 -1.0185
  143MOL   H13443018   4.467   7.672   0.865  2.0115  1.5435 -0.2584
  143MOL   H13543019   4.649   7.871   1.182  3.2999 -0.2196  1.4767
  143MOL   H13643020   4.581   0.044   1.279  0.1247 -0.2048 -1.0551
  143MOL   C13743021   4.692   7.836   1.397  0.6575 -0.6864  0.9602
  143MOL   O13843022   4.734   7.705   1.359  0.2614 -0.4697 -0.1634
  143MOL   C13943023   4.724   7.605   1.447 -0.7347  0.2067 -0.2090
  143MOL   O14043024   4.712   7.616   1.570  0.0086  0.1094 -0.3638
  143MOL   C14143025   4.733   7.468   1.373  0.9866  0.1906  0.9542
  143MOL   C14243026   4.746   7.357   1.477 -0.0835  0.2042 -0.0744
  143MOL   C14343027   4.804   7.936   1.420 -0.0146  0.1453 -0.1488
  143MOL   H14443028   4.630   7.816   1.485 -0.5614 -0.8489  0.0680
  143MOL   H14543029   4.637   7.455   1.323  1.4186 -1.6787  0.5958
  143MOL   H14643030   4.817   7.476   1.304  0.5057  1.5252  0.5100
  143MOL   H14743031   4.651   7.355   1.531  0.1811  0.2769  0.4002
  143MOL   H14843032   4.747   7.265   1.419 -3.6398  0.9515 -1.4446
  143MOL   H14943033   4.837   7.361   1.537 -0.3403 -0.2565  0.3569
  143MOL   H15043034   4.897   7.886   1.450 -0.4181 -0.8961 -0.5808
  143MOL   H15143035   4.831   0.050   1.332 -0.0194  1.6228  0.8216
  143MOL   C15243036   4.757   0.077   1.538  0.1183  0.2503 -0.6268
  143MOL   O15343037   4.742   7.944   1.657 -0.0345  0.1993 -0.3257
  143MOL   C15443038   4.649   0.018   1.746  0.3379 -0.0255 -0.1430
  143MOL   O15543039   4.557   0.096   1.735  0.1935  0.2120 -0.1904
  143MOL   C15643040   4.670   7.876   1.868  0.1495 -0.5989  0.9197
  143MOL   C15743041   4.809   7.917   1.935  0.1320  0.2023  0.1451
  143MOL   C15843042   4.847   0.194   1.568 -0.5140 -0.2256 -0.3297
  143MOL   H15943043   4.667   0.131   1.509 -0.0057 -0.0867 -0.8653
  143MOL   H16043044   4.583   7.889   1.932 -0.2002 -2.1394  0.7832
  143MOL   H16143045   4.672   7.772   1.834 -0.7958  0.2869 -1.9911
  143MOL   H16243046   4.800   0.072   1.977  0.1238  1.0965 -1.9276
  143MOL   H16343047   4.840   7.845   2.011  0.1752 -2.1745 -2.0364
  143MOL   H16443048   4.892   7.917   1.864  0.2235 -0.9124  0.2458
  143MOL   H16543049   4.820   0.259   1.485 -0.9613  1.5246  1.1481
  143MOL   H16643050   4.801   0.229   1.661  2.1484  0.5025  0.7718
  143MOL   C16743051   5.000   0.171   1.595  0.7844  0.6236  1.1485
  143MOL   O16843052   5.060   0.155   1.467  0.3868 -0.3580 -0.4205
  143MOL   C16943053   5.174   0.075   1.459 -0.3585 -0.1644 -0.2607
  143MOL   O17043054   5.225   0.020   1.555  0.2006 -0.8121 -0.3131
  143MOL   C17143055   5.216   0.064   1.313  0.3688  0.1659  0.2196
  143MOL   C17243056   5.134   7.910   1.236 -0.0402  0.2295  0.4043
  143MOL   C17343057   5.087   0.295   1.649  0.1774  0.5984 -0.5298
  143MOL   H17443058   5.024   0.082   1.654 -0.8286  1.6981  3.4922
  143MOL   H17543059   5.192   0.162   1.271  1.0721  0.5257  0.6306
  143MOL   H17643060   5.323   0.047   1.303  0.0983 -1.2539 -0.2632
  143MOL   H17743061   5.171   7.908   1.133 -1.8436 -2.0042 -0.2522
  143MOL   H17843062   5.148   7.807   1.270 -3.1012 -1.3384 -2.7434
  143MOL   H17943063   5.028   7.933   1.232 -0.1939 -0.5456 -0.1951
  143MOL   H18043064   5.193   0.271   1.634 -0.6202 -3.1816 -0.6048
  143MOL   H18143065   5.063   0.392   1.606 -0.3428 -0.4296 -2.5744
  143MOL   C18243066   5.082   0.313   1.800  0.1903  0.0242  0.5383
  143MOL   O18343067   4.955   0.310   1.851  0.9141 -0.2852  0.0350
  143MOL   C18443068   4.902   0.425   1.881  0.2397 -0.0711 -0.2100
  143MOL   O18543069   4.951   0.533   1.854  0.3028  0.4464 -0.0129
  143MOL   C18643070   4.773   0.399   1.957  0.2344 -0.0134  0.1780
  143MOL   C18743071   4.659   0.422   1.862  0.4109 -0.6637  0.3176
  143MOL   C18843072   5.165   0.199   1.865 -0.4742  0.1915  0.3747
  143MOL   H18943073   5.140   0.398   1.837  0.7403 -0.3943  0.6617
  143MOL   H19043074   4.774   0.300   2.002  0.0441 -0.8479 -1.6093
  143MOL   H19143075   4.761   0.481   2.027 -2.9233 -0.2609 -0.0189
  143MOL   H19243076   4.659   0.522   1.818  0.7859 -1.6262 -1.9313
  143MOL   H19343077   4.662   0.357   1.775  0.5323  0.4238 -0.4937
  143MOL   H19443078   4.562   0.422   1.911  1.0569  1.6449  1.7151
  143MOL   H19543079   5.113   0.106   1.846  0.5845 -0.0361 -1.4960
  143MOL   H19643080   5.263   0.180   1.823 -0.5652 -0.9723  0.6765
  143MOL   C19743081   5.176   0.202   2.023  0.1196 -0.8089 -0.3697
  143MOL   O19843082   5.211   0.067   2.071 -0.4105 -0.4182 -0.1750
  143MOL   C19943083   5.156   0.016   2.184  0.5443 -0.0845  0.5010
  143MOL   O20043084   5.073   0.074   2.249 -0.4717  0.0779 -0.2037
  143MOL   C20143085   5.211   7.826   2.227 -0.6170 -0.1192  0.2417
  143MOL   C20243086   5.363   7.841   2.249  0.4685 -0.0433  0.1980
  143MOL   C20343087   5.286   0.303   2.084 -0.2908  0.3605 -0.0070
  143MOL   H20443088   5.079   0.231   2.064 -0.9166  1.4830 -4.1611
  143MOL   H20543089   5.182   7.794   2.327  0.2564 -0.5655  0.3559
  143MOL   H20643090   5.178   7.751   2.156 -0.7485 -0.3123  0.5069
  143MOL   H20743091   5.425   7.853   2.160  0.5585  1.8618  0.4816
  143MOL   H20843092   5.382   7.926   2.314  1.7721  0.8968 -1.3681
  143MOL   H20943093   5.396   7.755   2.307 -0.5811 -0.6354 -0.0805
  143MOL   H21043094   5.385   0.258   2.080 -1.8071 -3.0905  0.1874
  143MOL   H21143095   5.291   0.391   2.019 -0.8359  1.5192  1.4900
  143MOL   C21243096   5.261   0.335   2.235  0.3376  0.1759  0.1823
  143MOL   O21343097   5.354   0.430   2.277  0.2758 -0.0600  0.1980
  143MOL   C21443098   5.448   0.404   2.373  0.5307 -0.4277 -0.7725
  143MOL   O21543099   5.464   0.298   2.440  0.5053 -0.1022 -0.0204
  143MOL   C21643100   5.534   0.531   2.401 -0.6222 -1.3495 -0.5794
  143MOL   C21743101   5.612   0.574   2.278 -0.3507  0.3777 -0.4062
  143MOL   C21843102   5.124   0.402   2.258  0.3183  0.6121 -0.0759
  143MOL   H21943103   5.267   0.241   2.290 -0.2768 -0.2399 -0.4534
  143MOL   H22043104   5.470   0.616   2.425  0.3364 -0.5001 -0.9990
  143MOL   H22143105   5.603   0.523   2.486 -2.0881  0.1957  0.7962
  143MOL   H22243106   5.718   0.552   2.289 -0.8146 -2.5516 -1.3354
  143MOL   H22343107   5.585   0.518   2.189 -1.0214 -3.9987  2.4206
  143MOL   H22443108   5.598   0.681   2.263  0.5192  0.5313 -0.1765
  143MOL   H22543109   5.126   0.503   2.217  0.7077  0.5918 -0.1054
  143MOL   H22643110   5.043   0.350   2.206 -0.4126  2.2328 -0.5996
  143MOL   C22743111   5.094   0.422   2.410 -0.0036 -0.1118  0.4300
  143MOL   O22843112   4.980   0.513   2.423 -0.0015 -0.4431 -0.1166
  143MOL   C22943113   5.011   0.645   2.439  0.3955 -0.0912  1.2437
  143MOL   O23043114   5.126   0.696   2.424  0.4106 -0.0124 -0.6152
  143MOL   C23143115   4.897   0.738   2.475 -0.2643 -0.0610 -0.1353
  143MOL   C23243116   4.839   0.701   2.609  0.5050  0.0353 -0.4228
  143MOL   C23343117   5.058   0.299   2.481  0.0336  0.5915  0.3038
  143MOL   H23443118   5.179   0.468   2.459  0.5870 -1.5815  0.8265
  143MOL   H23543119   4.927   0.842   2.460 -2.8617  0.6225 -0.8621
  143MOL   H23643120   4.826   0.715   2.395  0.2339 -0.2525 -0.5207
  143MOL   H23743121   4.761   0.770   2.640  1.7832  0.5266  1.8507
  143MOL   H23843122   4.792   0.603   2.599  1.2669 -0.5452  1.3900
  143MOL   H23943123   4.924   0.696   2.677  0.4678  1.4634 -0.2545
  143MOL   H24043124   4.956   0.281   2.447  0.0776 -1.8071  1.3586
  143MOL   H24143125   5.117   0.209   2.470 -0.5113  0.3371 -0.6659
  143MOL   C24243126   5.042   0.323   2.636  0.0581 -0.0164 -0.4592
  143MOL   O24343127   4.950   0.227   2.688  0.4412  0.2238 -0.1174
  143MOL   C24443128   4.824   0.260   2.721 -0.4876 -0.0085 -0.0853
  143MOL   O24543129   4.772   0.369   2.711 -0.2767  0.3630  0.0846
  143MOL   C24643130   4.741   0.144   2.774  0.0885  0.5321  0.1809
  143MOL   C24743131   4.792   0.097   2.912 -0.1183  0.1128  0.4556
  143MOL   C24843132   5.180   0.301   2.708  0.0372  0.1469 -0.2727
  143MOL   H24943133   4.996   0.421   2.648  0.8151  0.6990 -2.9646
  143MOL   H25043134   4.634   0.162   2.782 -0.2660 -1.5280  0.4586
  143MOL   H25143135   4.760   0.054   2.715 -0.5329  0.1082  0.6295
  143MOL   H25243136   4.718   0.038   2.966  0.5887 -0.1704  1.1254
  143MOL   H25343137   4.890   0.053   2.898  0.1562  0.8309  0.1009
  143MOL   H25443138   4.817   0.186   2.969  0.4745  0.2445 -0.0052
  143MOL   H25543139   5.211   0.199   2.687 -0.5495 -0.0480 -0.1834
  143MOL   H25643140   5.256   0.367   2.665  1.2749 -0.2225  1.2816
  143MOL   C25743141   5.187   0.333   2.863  0.2148  0.0461 -0.1221
  143MOL   O25843142   5.289   0.250   2.924 -0.2143  0.2254  0.6528
  143MOL   C25943143   5.263   0.144   3.000  0.1015 -0.1533  0.2077
  143MOL   O26043144   5.155   0.087   2.996 -0.2517  0.2992 -0.0942
  143MOL   C26143145   5.376   0.103   3.104  0.1357 -0.6160  0.1591
  143MOL   C26243146   5.361   7.905   3.151 -0.3957  0.0431 -0.1590
  143MOL   C26343147   5.208   0.480   2.896 -0.3794 -0.3040 -0.0375
  143MOL   H26443148   5.088   0.309   2.902  0.9200 -1.6931  0.6671
  143MOL   H26543149   5.469   0.134   3.058  0.0163 -2.2068 -1.1972
  143MOL   H26643150   5.351   0.175   3.182  0.3902  0.0587 -0.3876
  143MOL   H26743151   5.403   7.829   3.086  1.2435 -0.8392  1.8539
  143MOL   H26843152   5.410   7.885   3.246  1.5941 -2.7175 -1.7061
  143MOL   H26943153   5.261   7.878   3.184 -0.2620 -0.6407 -0.3064
  143MOL   H27043154   5.306   0.514   2.865 -0.4565  1.2666  1.3654
  143MOL   H27143155   5.138   0.543   2.841 -0.6822 -1.5533 -1.1096
  143MOL   C27243156   5.219   0.510   3.048 -0.0507  0.2806 -0.1556
  143MOL   O27343157   5.269   0.643   3.060  0.7464 -0.3453 -0.0003
  143MOL   C27443158   5.406   0.664   3.079  1.0653  0.8796 -0.0758
  143MOL   O27543159   5.485   0.574   3.102  0.3071  0.3854  0.6035
  143MOL   C27643160   5.439   0.813   3.104  0.0894  0.4193  0.4020
  143MOL   C27743161   5.444   0.843   3.258 -0.5921 -0.5597  0.5610
  143MOL   C27843162   5.086   0.478   3.125 -0.0640 -0.1479  0.2243
  143MOL   H27943163   5.293   0.442   3.090  0.3265  0.9100  0.2038
  143MOL   H28043164   5.524   0.846   3.044 -0.2082  0.0416 -0.2454
  143MOL   H28143165   5.361   0.875   3.059  0.4210  1.7835  1.6671
  143MOL   H28243166   5.539   0.807   3.297  0.3766  0.7928 -0.5095
  143MOL   H28343167   5.437   0.950   3.276  2.7303 -0.1563 -0.2573
  143MOL   H28443168   5.358   0.798   3.307 -1.1112 -1.6677 -1.2949
  143MOL   H28543169   5.020   0.558   3.092  0.7111  0.5035  0.2259
  143MOL   H28643170   5.043   0.380   3.104 -0.1688 -0.1046  0.2366
  143MOL   C28743171   5.112   0.487   3.274 -0.1945 -0.2515 -0.0907
  143MOL   O28843172   4.987   0.469   3.335  0.0478 -0.3082  0.1664
  143MOL   C28943173   4.912   0.573   3.358  0.5133  0.2631 -0.1464
  143MOL   O29043174   4.931   0.692   3.343 -0.1294  0.1149 -0.3534
  143MOL   C29143175   4.776   0.524   3.405  0.1571 -0.6462  0.5096
  143MOL   C29243176   4.759   0.551   3.555  0.1688 -0.1167  0.3550
  143MOL   C29343177   5.199   0.374   3.342  0.1672  0.6270 -0.7228
  143MOL   H29443178   5.156   0.584   3.296 -1.0857  0.5266 -1.6326
  143MOL   H29543179   4.707   0.588   3.350  0.4794  2.6029  3.6566
  143MOL   H29643180   4.753   0.421   3.378 -0.3696 -0.8008  1.4924
  143MOL   H29743181   4.790   0.652   3.582  0.5658  0.0148 -0.5633
  143MOL   H29843182   4.653   0.557   3.577  0.4311  3.3617  0.9520
  143MOL   H29943183   4.817   0.477   3.611  0.3415  0.0464  0.3964
  143MOL   H30043184   5.219   0.400   3.446 -0.7045 -1.5479 -0.0031
  143MOL   H30143185   5.156   0.275   3.328 -2.7692  1.8237 -0.4047
  143MOL   H30243186   5.292   0.366   3.285 -0.9201  1.1589 -2.6251
  144MOL     C143187   0.662   4.669   5.142  0.1032 -0.3445 -0.3179
  144MOL     O243188   0.618   4.661   5.276  0.3541  0.2467  0.2642
  144MOL     C343189   0.499   4.607   5.313 -0.5023 -0.1574 -0.2331
  144MOL     O443190   0.409   4.579   5.234 -0.2109 -0.4115 -0.2861
  144MOL     C543191   0.478   4.607   5.471 -0.1198 -0.1000  0.1602
  144MOL     C643192   0.474   4.746   5.532 -0.0596  0.2973 -0.2001
  144MOL     C743193   0.781   4.777   5.136 -0.2920  0.1592  0.7026
  144MOL     H843194   0.579   4.699   5.078 -1.6990 -0.3705  1.9544
  144MOL     H943195   0.396   4.539   5.492 -0.9440  0.4947 -1.0406
  144MOL    H1043196   0.573   4.563   5.503  1.3399  2.5551 -0.4031
  144MOL    H1143197   0.548   4.812   5.488  1.6882 -2.6781 -1.9588
  144MOL    H1243198   0.379   4.792   5.505  0.2443  0.3964 -1.0951
  144MOL    H1343199   0.486   4.754   5.640  0.8870  1.0049 -0.3549
  144MOL    H1443200   0.824   4.779   5.036 -1.0335  2.3579  0.4046
  144MOL    H1543201   0.736   4.876   5.134  0.9132  0.7161  0.9620
  144MOL    H1643202   0.707   4.573   5.117 -1.5539 -1.3985  0.6461
  144MOL    C1743203   0.894   4.749   5.232 -0.8368  0.2447  0.1146
  144MOL    O1843204   1.023   4.770   5.156  0.1582  0.0139 -0.0394
  144MOL    C1943205   1.098   4.658   5.116 -0.2589 -0.3289  0.3944
  144MOL    O2043206   1.069   4.540   5.126 -0.0375  0.2173 -0.3623
  144MOL    C2143207   1.231   4.702   5.052  0.1433  0.6249  0.0490
  144MOL    C2243208   1.333   4.765   5.160 -0.4717  0.4491  0.4141
  144MOL    C2343209   0.895   4.827   5.355  0.2390 -0.6115  0.3455
  144MOL    H2443210   0.900   4.641   5.250 -0.9894  0.0838 -0.7563
  144MOL    H2543211   1.282   4.627   4.991  0.0527  2.5591 -2.4577
  144MOL    H2643212   1.196   4.781   4.985 -1.3606  0.1398  0.2494
  144MOL    H2743213   1.367   4.678   5.215  0.3249 -0.7488 -1.9388
  144MOL    H2843214   1.426   4.803   5.117 -1.2149 -0.7922 -2.4005
  144MOL    H2943215   1.279   4.832   5.227 -2.0767 -0.7414  0.3465
  144MOL    H3043216   0.933   4.926   5.327 -0.0893 -0.6043 -0.0766
  144MOL    H3143217   0.791   4.839   5.386  0.6209  4.1214  0.1700
  144MOL    C3243218   0.990   4.763   5.463  0.8079 -0.5934  0.3539
  144MOL    O3343219   1.023   4.860   5.566 -0.4025 -0.5717  0.3167
  144MOL    C3443220   1.135   4.923   5.552 -0.5802 -0.4243  0.3170
  144MOL    O3543221   1.215   4.927   5.461 -0.4983  0.0275 -0.8927
  144MOL    C3643222   1.150   5.019   5.670  0.3929  0.4111 -0.4015
  144MOL    C3743223   1.135   4.947   5.800 -0.5083  0.1238 -0.2730
  144MOL    C3843224   0.912   4.654   5.528  0.1614  0.4549  0.5352
  144MOL    H3943225   1.084   4.724   5.424 -0.1082 -0.2779 -2.2950
  144MOL    H4043226   1.242   5.078   5.672  1.0781 -0.5873 -1.6467
  144MOL    H4143227   1.068   5.089   5.654 -1.3385 -1.3637  0.5683
  144MOL    H4243228   1.040   4.893   5.806 -0.0231 -0.4728  2.7434
  144MOL    H4343229   1.218   4.878   5.815  2.1956  2.9464 -1.7449
  144MOL    H4443230   1.143   5.007   5.890  2.1423  0.5299 -0.7538
  144MOL    H4543231   0.825   4.702   5.574 -1.4487 -0.3684 -1.5483
  144MOL    H4643232   0.880   4.577   5.458 -0.1994  0.6239  0.5108
  144MOL    C4743233   0.973   4.587   5.652  0.2603  0.0498  0.7017
  144MOL    O4843234   0.935   4.643   5.777 -0.4594  0.5769 -0.3742
  144MOL    C4943235   0.816   4.623   5.838  0.3579  0.1191  0.1659
  144MOL    O5043236   0.725   4.556   5.789 -0.3028 -0.3630  0.3241
  144MOL    C5143237   0.804   4.685   5.973  0.3492 -0.3596 -0.1987
  144MOL    C5243238   0.887   4.622   6.091 -0.0595 -0.0546  0.3562
  144MOL    C5343239   0.955   4.436   5.632 -0.1172 -0.3388 -0.3023
  144MOL    H5443240   1.079   4.612   5.646  0.7753 -2.2876 -0.8698
  144MOL    H5543241   0.824   4.792   5.962 -1.5275 -0.0679 -1.0418
  144MOL    H5643242   0.697   4.678   5.990  0.2891  1.6940  0.4433
  144MOL    H5743243   0.996   4.619   6.084  0.0613  0.5319  1.7899
  144MOL    H5843244   0.858   4.670   6.184 -3.7160  0.3488 -0.9234
  144MOL    H5943245   0.854   4.522   6.118  0.3100  0.1433  1.5610
  144MOL    H6043246   0.979   4.387   5.727 -2.0846 -0.8309 -0.0444
  144MOL    H6143247   0.852   4.421   5.603 -0.4381 -0.0811  0.6661
  144MOL    C6243248   1.046   4.385   5.526  0.2832  0.1739  0.2629
  144MOL    O6343249   1.182   4.417   5.560  0.1296 -0.6015 -0.4829
  144MOL    C6443250   1.273   4.439   5.470  0.4755 -0.1869 -0.3708
  144MOL    O6543251   1.262   4.408   5.355 -0.8588  0.1312 -0.5258
  144MOL    C6643252   1.399   4.502   5.532 -0.6811  0.1676 -0.3003
  144MOL    C6743253   1.394   4.657   5.534  0.7616 -0.2007 -0.3382
  144MOL    C6843254   1.036   4.236   5.508 -0.6772  0.0332 -0.7936
  144MOL    H6943255   1.024   4.438   5.434 -0.2630  0.2068  0.4135
  144MOL    H7043256   1.412   4.463   5.634  0.0161  0.9427 -0.0892
  144MOL    H7143257   1.495   4.472   5.489 -0.6873  0.2804 -0.3898
  144MOL    H7243258   1.471   4.702   5.598 -0.6613 -1.2473  2.1849
  144MOL    H7343259   1.415   4.677   5.429 -0.2859  0.5204 -0.4213
  144MOL    H7443260   1.298   4.692   5.572 -0.3661 -1.2893 -2.1272
  144MOL    H7543261   1.120   4.208   5.445  0.8316 -0.5648  1.4010
  144MOL    H7643262   1.058   4.194   5.607 -0.1024  2.2316  0.0522
  144MOL    C7743263   0.895   4.178   5.463 -0.3820  0.0510 -0.7462
  144MOL    O7843264   0.903   4.203   5.323  0.0165  0.3523  0.4006
  144MOL    C7943265   0.808   4.285   5.264 -0.2383 -0.0138  0.1788
  144MOL    O8043266   0.718   4.352   5.319  0.0357  0.2548 -0.0231
  144MOL    C8143267   0.821   4.292   5.113  0.5231 -0.2098  0.2278
  144MOL    C8243268   0.841   4.157   5.047  0.2355  0.0723  0.0588
  144MOL    C8343269   0.878   4.035   5.483 -0.0374 -0.1084 -0.1333
  144MOL    H8443270   0.811   4.236   5.503 -1.0110 -0.7437 -0.9146
  144MOL    H8543271   0.730   4.343   5.081 -0.5412 -1.5671  0.9803
  144MOL    H8643272   0.910   4.348   5.085 -0.3936  0.4360 -1.4545
  144MOL    H8743273   0.770   4.137   4.966  1.7604 -3.1691 -0.5238
  144MOL    H8843274   0.942   4.156   5.006 -0.8162 -0.5026 -2.6066
  144MOL    H8943275   0.843   4.078   5.122  3.0746 -0.9521 -1.0433
  144MOL    H9043276   0.793   3.999   5.426  0.4162 -1.3286 -0.0555
  144MOL    H9143277   0.966   3.983   5.444 -0.2081 -0.5125  0.0131
  144MOL    C9243278   0.856   3.995   5.637  0.0913  0.2804  0.0936
  144MOL    O9343279   0.747   4.078   5.683  0.9077  0.0200 -0.1621
  144MOL    C9443280   0.768   4.147   5.788 -0.1865 -0.4466  0.1306
  144MOL    O9543281   0.877   4.175   5.841  0.1106 -0.1902 -0.2482
  144MOL    C9643282   0.640   4.191   5.841 -0.6898 -0.0015 -0.1771
  144MOL    C9743283   0.593   4.101   5.958  0.1839  0.0827  0.5690
  144MOL    C9843284   0.822   3.840   5.639 -0.4839 -0.7580 -0.6650
  144MOL    H9943285   0.952   4.013   5.686  1.8084 -1.3287 -2.5371
  144MOL   H10043286   0.665   4.292   5.875 -0.2373  0.2867 -1.3453
  144MOL   H10143287   0.567   4.207   5.762 -0.3476  0.0723 -0.4778
  144MOL   H10243288   0.536   4.016   5.920 -0.8501  0.4004  1.3552
  144MOL   H10343289   0.685   4.059   5.997  0.4392  0.0685 -0.0501
  144MOL   H10443290   0.538   4.147   6.040  0.8655  0.4670  0.8141
  144MOL   H10543291   0.715   3.819   5.634 -0.7592  0.6236 -0.8713
  144MOL   H10643292   0.870   3.802   5.549  0.7652 -0.3017 -0.2015
  144MOL   C10743293   0.875   3.763   5.762  0.4444  0.1895 -0.4929
  144MOL   O10843294   0.780   3.656   5.770  0.1016  0.2126  0.2614
  144MOL   C10943295   0.680   3.643   5.855 -0.2921  0.0179 -0.1470
  144MOL   O11043296   0.660   3.709   5.957 -0.5060  0.1650 -0.2158
  144MOL   C11143297   0.595   3.517   5.821  0.1202  0.0306 -0.1704
  144MOL   C11243298   0.482   3.485   5.921 -0.1963 -0.9935  0.0237
  144MOL   C11343299   1.018   3.718   5.754 -0.5988  0.1886 -0.5304
  144MOL   H11443300   0.859   3.826   5.849  0.0298 -0.1001 -0.3580
  144MOL   H11543301   0.566   3.509   5.717  3.4275 -1.9623 -1.0342
  144MOL   H11643302   0.656   3.426   5.823 -0.2491 -0.2285 -0.6092
  144MOL   H11743303   0.453   3.575   5.974 -1.5737 -1.1641 -0.4231
  144MOL   H11843304   0.394   3.450   5.867 -0.0822 -0.1106 -0.7451
  144MOL   H11943305   0.519   3.410   5.991 -1.5938 -2.9280 -1.2545
  144MOL   H12043306   1.026   3.658   5.663 -0.1803  0.9439 -0.9970
  144MOL   H12143307   1.069   3.815   5.752  0.0453 -0.1182  0.6018
  144MOL   C12243308   1.080   3.652   5.874  0.1937 -1.1080 -0.0253
  144MOL   O12343309   1.035   3.520   5.876 -0.2287  0.4811 -0.3545
  144MOL   C12443310   1.005   3.465   5.999 -0.5310 -0.0031  0.3584
  144MOL   O12543311   1.040   3.511   6.110 -0.0518 -0.0347  0.1954
  144MOL   C12643312   0.932   3.329   5.997  0.4177  0.7067 -0.2356
  144MOL   C12743313   0.910   3.271   6.140 -0.2318 -0.1686  0.3954
  144MOL   C12843314   1.230   3.656   5.866  0.1772  0.0812  0.9017
  144MOL   H12943315   1.047   3.704   5.965  2.2994 -0.0178  0.1520
  144MOL   H13043316   0.838   3.341   5.942 -0.8339 -0.2281  1.6338
  144MOL   H13143317   0.991   3.251   5.949  1.8523 -1.5435  4.8755
  144MOL   H13243318   0.850   3.181   6.130 -0.9343  0.1152  1.8185
  144MOL   H13343319   1.002   3.266   6.197 -0.9303  0.4781  1.6084
  144MOL   H13443320   0.839   3.331   6.198  0.7445  1.7712 -0.3678
  144MOL   H13543321   1.264   3.575   5.931 -0.2523  0.2196  1.3007
  144MOL   H13643322   1.265   3.629   5.766  0.9190  1.5621  0.7346
  144MOL   C13743323   1.323   3.769   5.909  0.0837 -0.6130 -0.7458
  144MOL   O13843324   1.319   3.864   5.800 -0.4147  0.1216  0.8170
  144MOL   C13943325   1.435   3.924   5.758  0.5386 -0.1762 -0.5195
  144MOL   O14043326   1.546   3.908   5.805 -0.1657  0.2824 -0.1328
  144MOL   C14143327   1.404   4.004   5.634  0.1611 -0.5232 -0.0278
  144MOL   C14243328   1.512   4.113   5.602 -0.3186 -0.0332 -0.6001
  144MOL   C14343329   1.278   3.845   6.038  0.7423  0.8426  0.1574
  144MOL   H14443330   1.423   3.731   5.927  0.9085  1.9621  0.2805
  144MOL   H14543331   1.385   3.951   5.541 -2.3619  3.8262 -2.1667
  144MOL   H14643332   1.306   4.046   5.655  0.1488 -0.8964  0.6530
  144MOL   H14743333   1.609   4.064   5.591  0.1063  0.5242  0.5324
  144MOL   H14843334   1.513   4.173   5.512  1.6216 -0.4453 -0.8932
  144MOL   H14943335   1.527   4.180   5.687  2.2141  0.6984 -1.5730
  144MOL   H15043336   1.340   3.934   6.038 -2.6500  3.3243 -0.8802
  144MOL   H15143337   1.175   3.876   6.018  0.5587  0.3364  0.2844
  144MOL   C15243338   1.282   3.754   6.168  0.8500  0.7788  0.0694
  144MOL   O15343339   1.426   3.742   6.200  0.1615 -0.0382  0.4326
  144MOL   C15443340   1.485   3.629   6.182 -0.8274 -0.0501  0.3180
  144MOL   O15543341   1.431   3.515   6.179 -0.6092 -0.1965 -0.9434
  144MOL   C15643342   1.635   3.643   6.165 -0.1578 -0.7486  0.0135
  144MOL   C15743343   1.690   3.764   6.081  0.3819 -0.2406  0.3650
  144MOL   C15843344   1.207   3.828   6.280  0.5097  0.2884  0.0729
  144MOL   H15943345   1.236   3.656   6.154 -0.9742  1.5473  0.5894
  144MOL   H16043346   1.663   3.648   6.270 -1.1337  0.7376  0.2319
  144MOL   H16143347   1.676   3.547   6.134 -0.9285 -1.0525 -0.0870
  144MOL   H16243348   1.618   3.798   6.006  1.9578  0.1132 -1.0102
  144MOL   H16343349   1.696   3.844   6.155 -0.5766  0.8733 -0.7452
  144MOL   H16443350   1.777   3.733   6.024  1.4426  2.7513  0.2778
  144MOL   H16543351   1.234   3.933   6.286 -1.9477  1.0353 -1.1087
  144MOL   H16643352   1.108   3.852   6.241  0.4107  0.5371  0.4801
  144MOL   C16743353   1.201   3.773   6.421 -0.0642 -0.1759  0.9288
  144MOL   O16843354   1.112   3.845   6.511 -0.2939  0.5683 -0.0781
  144MOL   C16943355   1.157   3.950   6.584 -0.0392  0.4039 -0.0019
  144MOL   O17043356   1.258   4.018   6.576  0.2009 -0.2587 -0.1060
  144MOL   C17143357   1.059   3.985   6.694 -0.6059 -0.0410  0.1607
  144MOL   C17243358   1.091   3.881   6.812 -0.4366 -0.0913 -0.1389
  144MOL   C17343359   1.146   3.630   6.425 -0.3527 -0.2815 -0.1531
  144MOL   H17443360   1.302   3.768   6.463 -0.0089  2.5578  1.1915
  144MOL   H17543361   1.062   4.085   6.739 -0.4247  1.2720 -2.6322
  144MOL   H17643362   0.959   3.959   6.659 -0.3973  0.0370 -0.4933
  144MOL   H17743363   1.063   3.780   6.785 -0.2943 -0.9528  2.7789
  144MOL   H17843364   1.198   3.883   6.832 -0.4365 -0.3655 -0.1174
  144MOL   H17943365   1.037   3.909   6.903  0.4100  0.2010  0.2798
  144MOL   H18043366   1.073   3.621   6.505  0.0389 -1.0067  0.1344
  144MOL   H18143367   1.092   3.611   6.332 -2.2045 -2.6994  1.3258
  144MOL   C18243368   1.244   3.511   6.453 -0.3799 -0.5459 -0.3930
  144MOL   O18343369   1.242   3.494   6.594 -0.4738  0.4500 -0.0444
  144MOL   C18443370   1.336   3.545   6.675 -0.1181 -0.0071 -0.4855
  144MOL   O18543371   1.420   3.625   6.632 -0.5125 -0.2301 -0.0084
  144MOL   C18643372   1.336   3.500   6.825 -0.3725  0.4923  0.5254
  144MOL   C18743373   1.465   3.428   6.860 -0.4359  0.0475 -0.4794
  144MOL   C18843374   1.184   3.382   6.372 -0.8031 -0.0387 -0.0643
  144MOL   H18943375   1.336   3.551   6.411 -1.0584  2.4197  0.7881
  144MOL   H19043376   1.308   3.578   6.896  1.1701  0.0729  1.6144
  144MOL   H19143377   1.262   3.420   6.832 -0.2673  0.1341 -1.9130
  144MOL   H19243378   1.472   3.390   6.962 -0.8118 -0.6411 -0.7103
  144MOL   H19343379   1.478   3.345   6.791  1.4818  0.7958 -1.0592
  144MOL   H19443380   1.550   3.494   6.841 -0.5803  0.2091 -0.5638
  144MOL   H19543381   1.079   3.362   6.390 -0.5532 -2.5518 -1.2029
  144MOL   H19643382   1.204   3.400   6.266 -3.0564 -0.8392 -0.6460
  144MOL   C19743383   1.269   3.251   6.402  0.1430  0.7844 -0.5759
  144MOL   O19843384   1.206   3.134   6.355  0.5968  0.3822 -0.2168
  144MOL   C19943385   1.178   3.027   6.432 -0.2966 -0.5998 -0.4573
  144MOL   O20043386   1.186   3.030   6.554  0.3541 -0.2230 -0.2073
  144MOL   C20143387   1.131   2.897   6.355  0.6732 -0.0729  0.5862
  144MOL   C20243388   1.240   2.783   6.343 -0.1229 -0.2255 -0.1719
  144MOL   C20343389   1.419   3.252   6.353  0.2898  0.0992 -0.2703
  144MOL   H20443390   1.267   3.246   6.511  1.1569 -1.6626 -0.6254
  144MOL   H20543391   1.050   2.846   6.408 -1.9231  3.3475  0.0516
  144MOL   H20643392   1.094   2.920   6.255  1.8347 -0.4431  0.0615
  144MOL   H20743393   1.272   2.733   6.434  3.4560 -0.8095 -1.6611
  144MOL   H20843394   1.217   2.703   6.273 -1.2104 -0.6997  0.7228
  144MOL   H20943395   1.335   2.820   6.304  0.7096 -0.5012  1.5515
  144MOL   H21043396   1.423   3.241   6.245 -1.9345 -0.0495 -0.3508
  144MOL   H21143397   1.459   3.353   6.358  0.0735  0.1016  2.0814
  144MOL   C21243398   1.517   3.146   6.418  0.5790  0.1924 -0.0991
  144MOL   O21343399   1.635   3.164   6.336  0.4469 -0.7282 -0.0284
  144MOL   C21443400   1.686   3.052   6.269  0.2544  0.1213  0.5220
  144MOL   O21543401   1.629   2.944   6.266 -0.0194  0.3158  0.1912
  144MOL   C21643402   1.826   3.087   6.218  0.2713 -0.6382  0.1742
  144MOL   C21743403   1.859   2.996   6.097 -0.3626  0.6126  0.5952
  144MOL   C21843404   1.550   3.178   6.563 -0.3061  0.4384 -0.0963
  144MOL   H21943405   1.469   3.049   6.411  1.5823 -0.2001 -1.9210
  144MOL   H22043406   1.807   3.187   6.180  1.8255  0.2415  1.6582
  144MOL   H22143407   1.892   3.078   6.304  2.4508  2.1919 -1.1323
  144MOL   H22243408   1.946   2.931   6.097 -0.7945 -0.0368 -1.9466
  144MOL   H22343409   1.773   2.933   6.076 -0.1103  0.7119 -0.8211
  144MOL   H22443410   1.854   3.069   6.016  0.9963  0.7027  0.5827
  144MOL   H22543411   1.592   3.275   6.588 -2.4563  1.1463  0.8579
  144MOL   H22643412   1.448   3.184   6.602 -0.8985  1.8464 -1.7795
  144MOL   C22743413   1.622   3.058   6.631  0.4044 -0.2155 -0.0065
  144MOL   O22843414   1.676   3.101   6.758 -0.3092 -0.3570  0.3092
  144MOL   C22943415   1.800   3.143   6.762  0.3136 -0.2605 -0.1197
  144MOL   O23043416   1.878   3.151   6.668 -0.2735  0.2588 -0.6325
  144MOL   C23143417   1.850   3.165   6.905 -0.2792 -0.3535  0.1928
  144MOL   C23243418   1.767   3.274   6.983  0.3278 -0.5876  0.1642
  144MOL   C23343419   1.528   2.934   6.663  0.3412  0.0934 -0.1534
  144MOL   H23443420   1.700   3.015   6.570 -0.0841 -0.0364 -0.7585
  144MOL   H23543421   1.852   3.069   6.956 -1.0206 -1.5358 -1.9472
  144MOL   H23643422   1.958   3.183   6.902 -0.5152  1.1446  0.3497
  144MOL   H23743423   1.760   3.234   7.084  0.7670 -0.7934  0.1126
  144MOL   H23843424   1.809   3.375   6.985 -1.6035  0.2826 -1.0943
  144MOL   H23943425   1.666   3.262   6.942 -0.1176 -1.6063  1.5235
  144MOL   H24043426   1.451   2.958   6.736 -1.6889  0.0334 -2.2238
  144MOL   H24143427   1.474   2.918   6.570  2.0717  0.1016 -1.1874
  144MOL   C24243428   1.600   2.799   6.694 -0.0324 -0.7056  0.1156
  144MOL   O24343429   1.644   2.798   6.826 -0.2385 -0.7134 -0.0838
  144MOL   C24443430   1.770   2.790   6.865  0.3310 -1.0484 -0.5387
  144MOL   O24543431   1.869   2.787   6.794 -0.0278  0.1711 -0.5080
  144MOL   C24643432   1.776   2.765   7.016 -0.6233 -0.3151 -0.0901
  144MOL   C24743433   1.911   2.709   7.062 -0.6818 -0.9237  0.1591
  144MOL   C24843434   1.509   2.676   6.668 -0.6361 -0.4749 -0.0783
  144MOL   H24943435   1.681   2.792   6.621 -0.5028 -0.0037 -0.4861
  144MOL   H25043436   1.748   2.854   7.073  1.7711  0.4664 -0.0589
  144MOL   H25143437   1.699   2.691   7.037 -1.3852  1.0963  2.3636
  144MOL   H25243438   1.917   2.604   7.035 -1.3528 -1.0875  0.6242
  144MOL   H25343439   2.001   2.760   7.026 -1.1851 -0.5945 -0.6448
  144MOL   H25443440   1.924   2.715   7.170  0.5750  0.9091 -0.0628
  144MOL   H25543441   1.464   2.690   6.570 -1.2539 -1.1971  0.1050
  144MOL   H25643442   1.567   2.584   6.661 -0.0833 -0.6082  4.6812
  144MOL   C25743443   1.411   2.645   6.786 -0.2685  0.4327  0.2068
  144MOL   O25843444   1.320   2.754   6.813  0.6908  0.0250 -0.0808
  144MOL   C25943445   1.334   2.827   6.932 -0.3858  0.1081  0.3679
  144MOL   O26043446   1.412   2.798   7.020  0.0886  0.8224 -0.0634
  144MOL   C26143447   1.227   2.928   6.951  0.0702 -0.2614 -0.0899
  144MOL   C26243448   1.273   3.079   6.949  0.2046  0.0111  0.2278
  144MOL   C26343449   1.324   2.525   6.764  0.2871  0.0487  0.5184
  144MOL   H26443450   1.469   2.630   6.877  0.8389  1.6101 -0.2982
  144MOL   H26543451   1.155   2.911   6.871  0.6012  0.1782 -0.6684
  144MOL   H26643452   1.176   2.910   7.045  2.4524 -1.8435  0.9516
  144MOL   H26743453   1.377   3.099   6.974  0.6877 -2.8589  0.5934
  144MOL   H26843454   1.256   3.130   6.854 -1.2479 -0.7379  0.0731
  144MOL   H26943455   1.200   3.138   7.006  0.4607 -0.2906  0.8746
  144MOL   H27043456   1.267   2.512   6.856 -3.9162  2.2492 -1.5913
  144MOL   H27143457   1.259   2.543   6.678 -0.0538  0.4008  0.8456
  144MOL   C27243458   1.407   2.394   6.746  0.6250  0.6008  0.2321
  144MOL   O27343459   1.483   2.375   6.862 -0.0989 -0.5728  0.1917
  144MOL   C27443460   1.621   2.343   6.863 -0.0483  0.1990 -0.1732
  144MOL   O27543461   1.681   2.307   6.761  0.0161 -0.1427 -0.4222
  144MOL   C27643462   1.681   2.363   7.001  0.6937 -0.0217  0.3677
  144MOL   C27743463   1.823   2.300   7.017 -0.2966  0.1402 -0.0582
  144MOL   C27843464   1.316   2.274   6.717 -0.0553 -0.1117 -0.3813
  144MOL   H27943465   1.470   2.405   6.658 -0.7042 -0.7810 -0.9152
  144MOL   H28043466   1.691   2.466   7.033 -0.1211 -0.7257  3.0476
  144MOL   H28143467   1.606   2.323   7.070 -1.3533  0.6359 -1.4649
  144MOL   H28243468   1.886   2.329   6.933  0.7011  2.2461  1.3578
  144MOL   H28343469   1.884   2.328   7.102  0.8886 -2.0900 -0.1362
  144MOL   H28443470   1.812   2.194   7.040 -0.6142  0.5321  1.6973
  144MOL   H28543471   1.375   2.183   6.722 -0.3759 -0.2901  0.1582
  144MOL   H28643472   1.246   2.276   6.800 -1.6556  0.1206 -1.7183
  144MOL   C28743473   1.239   2.271   6.583  0.1649 -0.4420 -0.8484
  144MOL   O28843474   1.330   2.224   6.490  0.4646 -0.5327 -0.1768
  144MOL   C28943475   1.376   2.302   6.392 -0.2464 -0.0084 -0.0170
  144MOL   O29043476   1.345   2.420   6.366  0.3531 -0.6795  0.0365
  144MOL   C29143477   1.501   2.249   6.327  0.5785  0.8165 -0.9144
  144MOL   C29243478   1.619   2.259   6.423 -0.2368 -0.1958 -0.0465
  144MOL   C29343479   1.128   2.165   6.580 -0.4330 -0.0617 -0.4615
  144MOL   H29443480   1.196   2.367   6.555 -0.4142 -0.6554 -0.6911
  144MOL   H29543481   1.488   2.146   6.295  0.0640 -0.1851  2.2990
  144MOL   H29643482   1.508   2.318   6.243 -0.8964  1.1402 -0.7819
  144MOL   H29743483   1.708   2.205   6.392 -3.2477 -3.2774 -3.8540
  144MOL   H29843484   1.639   2.365   6.442 -0.1896 -0.4822  1.6198
  144MOL   H29943485   1.602   2.193   6.508  2.3294 -0.4720  0.2976
  144MOL   H30043486   1.174   2.070   6.608 -1.4748  0.4619  3.3011
  144MOL   H30143487   1.042   2.170   6.647  1.1588  0.5456  1.6094
  144MOL   H30243488   1.087   2.155   6.480 -1.0426 -1.8258 -0.0645
  145MOL     C143489   6.362   0.793   2.634 -0.9119  0.2168  0.2283
  145MOL     O243490   6.374   0.821   2.496  0.0830  0.0918 -0.2076
  145MOL     C343491   6.378   0.712   2.417  0.5736 -0.4745 -0.3736
  145MOL     O443492   6.400   0.606   2.459 -0.7568  0.0375  0.0705
  145MOL     C543493   6.335   0.740   2.275  0.5803 -0.7960 -0.5357
  145MOL     C643494   6.186   0.774   2.264  0.4281 -0.1399  0.1798
  145MOL     C743495   6.318   0.912   2.706 -0.1511  0.0607 -0.1056
  145MOL     H843496   6.457   0.766   2.681 -1.0998  0.1460  0.5708
  145MOL     H943497   6.387   0.833   2.248  0.7194 -0.7036  0.0591
  145MOL    H1043498   6.360   0.659   2.207 -0.2737 -1.3021 -0.2515
  145MOL    H1143499   6.128   0.683   2.282  1.4201 -0.2206  3.1081
  145MOL    H1243500   6.154   0.840   2.344 -0.6202 -0.9736  0.4742
  145MOL    H1343501   6.169   0.817   2.165  0.2730  0.2334  0.3719
  145MOL    H1443502   6.217   0.939   2.675 -0.7576 -0.1534  1.6263
  145MOL    H1543503   6.287   0.876   2.804 -1.1227 -0.7171 -0.6876
  145MOL    H1643504   6.290   0.713   2.652 -1.2070  0.3425 -0.3677
  145MOL    C1743505   6.403   1.038   2.734  0.5471  0.0697 -0.7063
  145MOL    O1843506   6.535   1.003   2.785 -0.5830  0.1738 -0.1370
  145MOL    C1943507   6.577   1.032   2.909 -0.3948 -0.3889  0.4953
  145MOL    O2043508   6.508   1.079   2.997 -0.3176 -0.2220  0.2351
  145MOL    C2143509   6.722   1.004   2.943  0.0182 -0.4641 -0.0532
  145MOL    C2243510   6.805   1.095   2.844  0.1797 -0.2517 -0.2363
  145MOL    C2343511   6.415   1.132   2.614  0.4329 -0.1193 -0.0848
  145MOL    H2443512   6.345   1.095   2.807 -0.0002  0.4589 -1.4366
  145MOL    H2543513   6.732   1.032   3.048 -5.0743  0.3561  0.3404
  145MOL    H2643514   6.756   0.903   2.920 -0.2837 -1.1692  2.4751
  145MOL    H2743515   6.779   1.079   2.740 -4.5461 -0.4693  0.9016
  145MOL    H2843516   6.786   1.201   2.860 -2.6205 -1.0265  2.1345
  145MOL    H2943517   6.907   1.056   2.849  0.6335  0.6432 -2.2067
  145MOL    H3043518   6.484   1.210   2.645  0.1018 -0.1199  0.6822
  145MOL    H3143519   6.473   1.089   2.533 -0.7970 -0.4148 -0.8275
  145MOL    C3243520   6.277   1.193   2.563  0.1631 -0.0321  0.7138
  145MOL    O3343521   6.242   1.303   2.652 -0.5892  0.0245  0.2684
  145MOL    C3443522   6.113   1.321   2.692  0.2653 -0.3545  0.2461
  145MOL    O3543523   6.024   1.246   2.649  0.1799  0.1811 -0.2057
  145MOL    C3643524   6.093   1.422   2.807 -0.0800  0.8229 -0.1155
  145MOL    C3743525   6.134   1.368   2.940 -0.3115 -0.1719  0.3926
  145MOL    C3843526   6.291   1.245   2.417 -0.3296  0.4621  0.1909
  145MOL    H3943527   6.211   1.106   2.564  0.9371 -0.6646 -1.2520
  145MOL    H4043528   6.141   1.515   2.776  4.4429 -1.5506 -0.6104
  145MOL    H4143529   5.987   1.446   2.805 -0.7373 -1.7788  1.0915
  145MOL    H4243530   6.242   1.363   2.954 -0.3184  1.4262  1.1336
  145MOL    H4343531   6.104   1.430   3.025  2.2892 -0.0840  1.2738
  145MOL    H4443532   6.098   1.266   2.948  0.4953 -0.6612 -1.8794
  145MOL    H4543533   6.239   1.340   2.403 -0.1307  0.4134 -0.9020
  145MOL    H4643534   6.399   1.258   2.408 -0.3343  0.3857  0.0139
  145MOL    C4743535   6.267   1.130   2.313 -0.3339  0.0678 -0.0587
  145MOL    O4843536   6.133   1.087   2.305  0.0848 -0.1598 -0.5502
  145MOL    C4943537   6.034   1.175   2.268 -0.0813  0.8907  0.2842
  145MOL    O5043538   6.052   1.288   2.225  0.4612 -0.5837 -0.4187
  145MOL    C5143539   5.895   1.110   2.269 -0.5525 -0.2967  0.0943
  145MOL    C5243540   5.900   0.967   2.206  0.4741  1.0767  0.0349
  145MOL    C5343541   6.330   1.159   2.171  0.0503  0.4337  0.2932
  145MOL    H5443542   6.316   1.036   2.342  2.3479  0.6979 -2.3974
  145MOL    H5543543   5.854   1.110   2.370  0.6529  0.4055  0.5957
  145MOL    H5643544   5.834   1.181   2.213  0.1564  0.1704 -0.0928
  145MOL    H5743545   5.800   0.922   2.208  0.5090  1.0251  1.2778
  145MOL    H5843546   5.924   0.968   2.100 -0.3889 -0.0394 -0.1830
  145MOL    H5943547   5.949   0.887   2.262  0.2016  1.5596  0.9753
  145MOL    H6043548   6.308   1.084   2.094  2.5353  0.7067 -0.7438
  145MOL    H6143549   6.291   1.253   2.131 -1.3063 -0.7358 -1.2029
  145MOL    C6243550   6.487   1.171   2.174  0.0738  0.3645  0.1315
  145MOL    O6343551   6.542   1.047   2.221 -0.5426 -0.3415  0.1607
  145MOL    C6443552   6.662   1.041   2.278 -0.0398 -0.2922 -0.2469
  145MOL    O6543553   6.748   1.127   2.284 -0.3618  0.6604 -0.4291
  145MOL    C6643554   6.699   0.903   2.330  0.8114 -0.0906  0.0565
  145MOL    C6743555   6.738   0.902   2.474 -0.3788 -0.6110  0.3018
  145MOL    C6843556   6.532   1.213   2.030 -0.4366 -0.2802 -0.1546
  145MOL    H6943557   6.517   1.255   2.238 -0.6075  1.0610 -0.4510
  145MOL    H7043558   6.614   0.835   2.317  0.8484 -0.3463  1.1114
  145MOL    H7143559   6.784   0.868   2.272  1.5320  0.8944  0.5167
  145MOL    H7243560   6.768   0.799   2.493  0.4724 -0.6337 -1.0827
  145MOL    H7343561   6.833   0.955   2.479 -0.1302 -1.2456  2.6111
  145MOL    H7443562   6.659   0.937   2.541 -1.8289  1.0823 -2.1918
  145MOL    H7543563   6.639   1.197   2.019  0.1788  1.7280  2.4946
  145MOL    H7643564   6.489   1.152   1.950 -1.2035 -0.7655  0.6215
  145MOL    C7743565   6.494   1.356   1.982  0.0804  0.3924 -0.1719
  145MOL    O7843566   6.358   1.378   1.945 -0.0871 -0.7087 -0.2738
  145MOL    C7943567   6.335   1.454   1.836 -0.4781  0.7329  0.2563
  145MOL    O8043568   6.417   1.503   1.763  0.7678  0.1317 -0.0329
  145MOL    C8143569   6.184   1.464   1.805 -0.1870 -0.1526 -0.0386
  145MOL    C8243570   6.105   1.388   1.908  0.7437  0.2033 -0.5460
  145MOL    C8343571   6.523   1.463   2.089 -0.0020 -0.6123 -0.3800
  145MOL    H8443572   6.555   1.375   1.894 -0.9540 -1.2753 -1.2964
  145MOL    H8543573   6.154   1.569   1.805  0.6646  0.1011  1.3735
  145MOL    H8643574   6.170   1.424   1.705  0.0499 -0.1818 -0.0602
  145MOL    H8743575   6.115   1.400   2.016 -1.8157 -0.7781 -0.1834
  145MOL    H8843576   5.997   1.388   1.893  0.7543 -0.6605 -0.6598
  145MOL    H8943577   6.136   1.283   1.899  0.2948 -0.0662  0.9546
  145MOL    H9043578   6.495   1.563   2.056  1.7008  0.3343  0.9788
  145MOL    H9143579   6.462   1.452   2.179  0.0851  0.4398 -0.1889
  145MOL    C9243580   6.680   1.482   2.123 -0.6133  0.2852 -0.0381
  145MOL    O9343581   6.745   1.504   2.001  0.6949  0.7249 -0.1032
  145MOL    C9443582   6.869   1.465   1.980  0.6278  0.6361 -0.0527
  145MOL    O9543583   6.952   1.439   2.061  0.3644 -0.6473  0.1679
  145MOL    C9643584   6.902   1.434   1.830  0.3403 -0.5850 -0.4039
  145MOL    C9743585   6.875   1.290   1.786 -0.1941  0.0367  0.5635
  145MOL    C9843586   6.705   1.602   2.212 -0.5347  0.0655  0.5000
  145MOL    H9943587   6.722   1.391   2.166 -2.0851 -1.7653 -2.7740
  145MOL   H10043588   6.851   1.511   1.772  1.8559  0.4381 -0.4293
  145MOL   H10143589   7.006   1.465   1.821 -0.1472  1.0828 -0.5084
  145MOL   H10243590   6.935   1.215   1.838 -1.6908 -1.1637  0.6085
  145MOL   H10343591   6.772   1.266   1.813 -0.3881 -0.0030 -0.2237
  145MOL   H10443592   6.878   1.275   1.679 -0.4348 -2.0473  0.8297
  145MOL   H10543593   6.812   1.624   2.206 -0.9808  2.5686  1.1149
  145MOL   H10643594   6.656   1.686   2.164  0.3925 -0.1729 -0.8835
  145MOL   C10743595   6.664   1.587   2.359 -0.6080 -0.0488  0.3937
  145MOL   O10843596   6.774   1.531   2.424 -0.0274 -0.2780  0.2866
  145MOL   C10943597   6.752   1.423   2.506  0.6247  0.3471 -0.5963
  145MOL   O11043598   6.645   1.364   2.510 -0.9589  0.9779 -0.1354
  145MOL   C11143599   6.870   1.382   2.597  0.0384  0.4081  0.4018
  145MOL   C11243600   6.980   1.297   2.529  0.6644 -0.8850 -1.1307
  145MOL   C11343601   6.621   1.722   2.422 -0.0744 -0.5027  0.2008
  145MOL   H11443602   6.576   1.525   2.346 -0.5178 -0.2406  0.7077
  145MOL   H11543603   6.916   1.473   2.637  0.0025  0.6364 -0.0714
  145MOL   H11643604   6.828   1.325   2.679  0.4739  1.1844  1.1796
  145MOL   H11743605   7.018   1.334   2.434  0.2875  1.0816 -0.5463
  145MOL   H11843606   7.068   1.287   2.592  2.2062  1.9020 -2.7520
  145MOL   H11943607   6.951   1.195   2.501 -2.1439 -0.0605 -1.3839
  145MOL   H12043608   6.614   1.725   2.531  0.3314 -0.7825  0.2333
  145MOL   H12143609   6.703   1.790   2.397 -0.0670 -0.9696 -1.0821
  145MOL   C12243610   6.498   1.790   2.359 -0.5011  0.3410  0.4082
  145MOL   O12343611   6.392   1.720   2.406  0.4638 -0.0865 -0.2058
  145MOL   C12443612   6.294   1.665   2.326 -1.1235 -0.1465 -0.4195
  145MOL   O12543613   6.300   1.648   2.206  0.3564  0.3978 -0.2189
  145MOL   C12643614   6.179   1.626   2.418 -0.4450 -0.1876 -0.0955
  145MOL   C12743615   6.102   1.738   2.489  0.3439  0.8494  0.3547
  145MOL   C12843616   6.499   1.936   2.403  0.7009  0.2245  0.6483
  145MOL   H12943617   6.499   1.788   2.250  1.7640  0.6971  0.4039
  145MOL   H13043618   6.111   1.559   2.367  1.5359 -1.3342 -1.3084
  145MOL   H13143619   6.216   1.562   2.498  0.0223 -1.9603 -1.7059
  145MOL   H13243620   6.173   1.806   2.537 -1.5558  2.0990  1.4195
  145MOL   H13343621   6.058   1.806   2.416 -1.0677 -0.3580  0.0759
  145MOL   H13443622   6.036   1.692   2.562  0.5378  1.4731  0.9322
  145MOL   H13543623   6.491   1.942   2.511 -4.8475  1.6242  0.3341
  145MOL   H13643624   6.591   1.988   2.379  0.7737  1.0402  2.5875
  145MOL   C13743625   6.382   2.021   2.342 -0.4991  0.1714  0.0138
  145MOL   O13843626   6.382   2.150   2.401  1.1768 -0.3981  0.0675
  145MOL   C13943627   6.271   2.209   2.453  0.1165  0.5901  0.4025
  145MOL   O14043628   6.158   2.165   2.458 -0.2576 -0.0821 -0.2813
  145MOL   C14143629   6.297   2.347   2.514 -0.7265 -0.5841  0.3593
  145MOL   C14243630   6.195   2.407   2.611 -0.2341 -0.0166  0.7271
  145MOL   C14343631   6.387   2.031   2.193 -1.0812  0.1293 -0.4704
  145MOL   H14443632   6.291   1.973   2.379 -0.4306  1.4559  1.9235
  145MOL   H14543633   6.395   2.345   2.562  0.8099 -0.3459 -2.6214
  145MOL   H14643634   6.316   2.416   2.432  2.3003 -2.0229 -0.2101
  145MOL   H14743635   6.241   2.478   2.679 -0.4438  0.7896  0.0278
  145MOL   H14843636   6.104   2.457   2.578 -0.2070  0.0798  0.7989
  145MOL   H14943637   6.149   2.337   2.681 -1.1882  0.2858  0.4108
  145MOL   H15043638   6.341   1.940   2.153 -2.2555  0.5912 -0.1924
  145MOL   H15143639   6.330   2.113   2.149 -2.5330  0.0877  1.2854
  145MOL   C15243640   6.520   2.049   2.118 -1.0574 -0.4216  0.2200
  145MOL   O15343641   6.510   2.029   1.980  0.2065 -0.2214 -0.6537
  145MOL   C15443642   6.568   1.924   1.919 -0.4380  0.4232 -0.1223
  145MOL   O15543643   6.646   1.836   1.968  0.3882  0.2088 -0.0617
  145MOL   C15643644   6.533   1.932   1.775 -0.1983 -0.1034 -0.2128
  145MOL   C15743645   6.565   1.802   1.694  0.2478 -0.6193 -0.1362
  145MOL   C15843646   6.590   2.177   2.152  0.0372 -0.1370  0.2261
  145MOL   H15943647   6.590   1.970   2.147  0.6679  0.2204 -2.0784
  145MOL   H16043648   6.431   1.965   1.760  0.6250  2.1509 -1.0281
  145MOL   H16143649   6.599   2.011   1.739 -2.7009  1.7678 -0.7643
  145MOL   H16243650   6.477   1.739   1.704 -0.4689  0.6770  2.1327
  145MOL   H16343651   6.571   1.833   1.590  0.0837  1.9337  0.5806
  145MOL   H16443652   6.658   1.750   1.716 -0.4515 -2.0212 -0.4431
  145MOL   H16543653   6.594   2.175   2.260  1.8609 -0.2504  0.1692
  145MOL   H16643654   6.690   2.172   2.107  0.1248  1.0820  0.2488
  145MOL   C16743655   6.530   2.324   2.133 -0.7809 -0.2080  0.0441
  145MOL   O16843656   6.649   2.401   2.149  0.4503 -0.4207 -0.0970
  145MOL   C16943657   6.651   2.498   2.245  0.1446 -1.0811  0.0010
  145MOL   O17043658   6.557   2.532   2.323  0.0306 -0.4396 -0.1008
  145MOL   C17143659   6.795   2.541   2.266  0.4719 -0.1091 -0.1477
  145MOL   C17243660   6.870   2.434   2.350  0.2201  0.5299  0.9806
  145MOL   C17343661   6.452   2.351   2.001 -0.6909  0.3373  0.4433
  145MOL   H17443662   6.463   2.354   2.213 -0.2955  1.3804 -0.1178
  145MOL   H17543663   6.844   2.550   2.170  0.1782 -1.0949 -0.3984
  145MOL   H17643664   6.804   2.635   2.322 -0.2217  0.2385 -0.6079
  145MOL   H17743665   6.970   2.474   2.369 -0.3792  2.4714  0.1567
  145MOL   H17843666   6.818   2.419   2.445  0.4111  0.9484  1.1527
  145MOL   H17943667   6.868   2.337   2.302  0.0667  0.8316  0.3740
  145MOL   H18043668   6.516   2.314   1.921  0.8115  0.7320  1.4424
  145MOL   H18143669   6.362   2.289   2.012  0.3830 -0.9699  2.2696
  145MOL   C18243670   6.409   2.499   1.981 -0.8217  0.1487 -0.3577
  145MOL   O18343671   6.537   2.558   1.946  0.5682  0.0360 -0.5866
  145MOL   C18443672   6.554   2.688   1.964  0.0557  0.1044  0.2041
  145MOL   O18543673   6.469   2.772   1.990 -0.2155 -0.0471 -0.3645
  145MOL   C18643674   6.697   2.729   1.950 -0.0360  0.2164 -0.3007
  145MOL   C18743675   6.736   2.744   1.800  0.0017  0.5426 -0.5756
  145MOL   C18843676   6.309   2.536   1.870 -0.7806  0.1845 -0.1260
  145MOL   H18943677   6.372   2.552   2.068  2.3780  0.0301  1.1241
  145MOL   H19043678   6.710   2.829   1.993  0.8479 -0.2408  0.5105
  145MOL   H19143679   6.764   2.672   2.014  1.1003 -1.6375 -3.0659
  145MOL   H19243680   6.672   2.818   1.752 -1.4065 -0.5244 -0.3829
  145MOL   H19343681   6.843   2.761   1.793  0.4028 -1.1798  1.1027
  145MOL   H19443682   6.719   2.646   1.755 -0.4668 -0.2542  1.3208
  145MOL   H19543683   6.286   2.642   1.862  1.8579  0.6402 -1.8712
  145MOL   H19643684   6.346   2.503   1.773  0.9241 -1.4538  1.0468
  145MOL   C19743685   6.173   2.467   1.880  0.4209  0.2090 -0.2065
  145MOL   O19843686   6.088   2.522   1.981  0.7253 -0.2992 -0.3124
  145MOL   C19943687   6.082   2.469   2.107  0.3080 -0.2421 -0.2709
  145MOL   O20043688   6.154   2.383   2.158 -0.8830  0.1296  0.2507
  145MOL   C20143689   5.982   2.540   2.197 -0.9415 -0.1255 -0.3477
  145MOL   C20243690   5.910   2.443   2.289  0.2022 -0.3431  0.4607
  145MOL   C20343691   6.092   2.489   1.754 -0.3225 -0.3143  0.5997
  145MOL   H20443692   6.185   2.360   1.897 -1.0432  0.0889  0.1631
  145MOL   H20543693   6.020   2.630   2.245  0.1245 -1.4354  1.3188
  145MOL   H20643694   5.914   2.586   2.125  1.4355  2.2156 -1.1908
  145MOL   H20743695   5.916   2.341   2.251 -2.7900 -0.0202 -1.0392
  145MOL   H20843696   5.964   2.443   2.384  0.3470  0.0812  0.3774
  145MOL   H20943697   5.805   2.472   2.293  0.0892 -0.2679 -2.2888
  145MOL   H21043698   6.060   2.593   1.764  0.0915 -0.3694  2.7941
  145MOL   H21143699   6.144   2.476   1.659  0.5837 -0.1194  1.0640
  145MOL   C21243700   5.966   2.410   1.734  0.3236  0.4493  0.6741
  145MOL   O21343701   5.839   2.482   1.755 -0.4880 -0.1833 -0.1110
  145MOL   C21443702   5.774   2.480   1.867 -0.0022  0.0260  0.2761
  145MOL   O21543703   5.799   2.424   1.969 -0.4982 -0.6058 -0.3711
  145MOL   C21643704   5.640   2.561   1.858  0.2862  0.2276 -0.3634
  145MOL   C21743705   5.557   2.509   1.742  0.4020  0.0633 -0.3504
  145MOL   C21843706   5.949   2.338   1.588  0.6827  0.2537 -0.1738
  145MOL   H21943707   5.978   2.325   1.801  1.1196 -0.4250 -0.5726
  145MOL   H22043708   5.583   2.552   1.951 -0.1674 -0.2932 -0.6896
  145MOL   H22143709   5.667   2.667   1.856  0.8637  0.1224  1.0664
  145MOL   H22243710   5.564   2.405   1.712  2.1108  0.4894 -1.5042
  145MOL   H22343711   5.451   2.523   1.759  0.2402 -0.9574 -0.5142
  145MOL   H22443712   5.588   2.567   1.655  2.2497  1.0907  0.9571
  145MOL   H22543713   5.847   2.299   1.584  0.5912  0.5379 -0.6479
  145MOL   H22643714   5.951   2.415   1.511 -1.5919  1.9272  1.3370
  145MOL   C22743715   6.049   2.220   1.559  0.3858 -0.3574  0.0507
  145MOL   O22843716   6.050   2.131   1.664  0.6721  0.5583  0.2889
  145MOL   C22943717   6.157   2.123   1.748  0.5016  0.1586  0.1779
  145MOL   O23043718   6.252   2.201   1.754 -0.3592 -0.0981  0.0011
  145MOL   C23143719   6.142   2.017   1.857  0.1835  0.4807 -0.1661
  145MOL   C23243720   6.094   2.086   1.989 -0.1298  0.7871  0.4601
  145MOL   C23343721   6.021   2.163   1.422  0.3647  0.1145  0.3975
  145MOL   H23443722   6.149   2.263   1.550  0.4256 -0.4383  0.1020
  145MOL   H23543723   6.064   1.946   1.833  0.1407  0.9241 -1.4102
  145MOL   H23643724   6.231   1.954   1.859  0.4534  0.8710  2.2841
  145MOL   H23743725   6.001   2.141   1.971 -0.3296  0.7877  1.4783
  145MOL   H23843726   6.079   2.015   2.070  1.3327  0.9732  0.9218
  145MOL   H23943727   6.169   2.164   2.009 -0.5522  1.2107  0.4019
  145MOL   H24043728   5.931   2.102   1.422  0.1084  0.4941  0.1966
  145MOL   H24143729   6.005   2.254   1.364  0.9157 -0.0857 -0.0739
  145MOL   C24243730   6.138   2.069   1.376  0.2648 -0.4678 -0.2571
  145MOL   O24343731   6.136   1.955   1.457  0.3465  0.5098  0.0572
  145MOL   C24443732   6.252   1.885   1.484 -0.2791  0.0187  0.4036
  145MOL   O24543733   6.362   1.909   1.438 -0.4005 -0.1004  0.6198
  145MOL   C24643734   6.231   1.770   1.571 -0.7793 -0.1323  0.3103
  145MOL   C24743735   6.086   1.727   1.586  0.9244  0.0350 -0.4026
  145MOL   C24843736   6.132   2.019   1.231  0.1310 -0.2730 -0.3529
  145MOL   H24943737   6.232   2.123   1.391  1.0099 -1.7657 -0.2236
  145MOL   H25043738   6.276   1.683   1.524 -0.4554  0.8271 -1.1991
  145MOL   H25143739   6.265   1.789   1.673 -3.8046 -0.1254  1.3791
  145MOL   H25243740   6.034   1.811   1.633  1.5226 -0.5149  1.2749
  145MOL   H25343741   6.039   1.714   1.488 -1.0114  0.5555  0.4300
  145MOL   H25443742   6.060   1.646   1.654  2.8522  1.2071  1.8024
  145MOL   H25543743   6.218   1.954   1.218  0.0964 -0.4151  0.1201
  145MOL   H25643744   6.047   1.950   1.233 -0.4378  0.4428  1.7431
  145MOL   C25743745   6.122   2.124   1.118 -0.4926  0.3522  0.5096
  145MOL   O25843746   6.235   2.207   1.132 -0.0559  0.0046 -0.3446
  145MOL   C25943747   6.220   2.340   1.125 -0.1974 -0.2479 -0.0544
  145MOL   O26043748   6.115   2.403   1.100  0.2208 -0.7293  0.4470
  145MOL   C26143749   6.343   2.411   1.170 -0.0284 -0.4696 -0.0762
  145MOL   C26243750   6.442   2.437   1.053  0.4545 -0.6596 -0.1822
  145MOL   C26343751   6.130   2.051   0.984 -0.1438  0.6524  0.3061
  145MOL   H26443752   6.024   2.172   1.129 -0.5624  0.1258  0.8990
  145MOL   H26543753   6.322   2.508   1.216  4.0925  1.0126 -1.0943
  145MOL   H26643754   6.395   2.350   1.244  0.1357 -0.3976 -0.1307
  145MOL   H26743755   6.407   2.500   0.972  0.6364  0.1677  0.3770
  145MOL   H26843756   6.531   2.492   1.084 -0.7134  1.1262  0.0275
  145MOL   H26943757   6.479   2.342   1.014  1.2749  0.3632 -1.9305
  145MOL   H27043758   6.134   2.105   0.889 -2.1709 -2.2843 -1.5506
  145MOL   H27143759   6.230   2.010   0.976  0.1581  1.5258 -0.4849
  145MOL   C27243760   6.032   1.936   0.957 -0.2374 -0.4988 -0.2547
  145MOL   O27343761   5.907   1.999   0.944 -0.6770 -0.7207 -0.8732
  145MOL   C27443762   5.809   1.982   1.031  0.5899 -0.1548 -0.3676
  145MOL   O27543763   5.808   1.904   1.127 -0.1664 -0.5091  0.7200
  145MOL   C27643764   5.688   2.074   0.995  0.0807 -0.1074 -0.3710
  145MOL   C27743765   5.592   2.086   1.118  0.8279 -0.4765 -0.4122
  145MOL   C27843766   6.083   1.849   0.843 -0.0979  0.1666  0.5236
  145MOL   H27943767   6.034   1.869   1.044 -5.2974  0.9757  1.1863
  145MOL   H28043768   5.714   2.174   0.962  0.1010  0.9736  2.7036
  145MOL   H28143769   5.646   2.025   0.907  0.0786 -1.4904  0.3914
  145MOL   H28243770   5.565   1.989   1.158  1.5680  0.5690  2.7786
  145MOL   H28343771   5.661   2.139   1.184  0.7557 -0.9240  0.0214
  145MOL   H28443772   5.504   2.148   1.100  1.0057  0.0248  0.4552
  145MOL   H28543773   6.100   1.915   0.758  2.1675 -0.0559  0.7916
  145MOL   H28643774   6.178   1.797   0.856  0.6322  1.2847 -0.3518
  145MOL   C28743775   5.969   1.749   0.802  0.2140  0.4055  0.2178
  145MOL   O28843776   6.010   1.701   0.676 -0.0102 -0.5195  0.1687
  145MOL   C28943777   5.936   1.727   0.562 -0.4396 -0.8737 -0.0164
  145MOL   O29043778   5.855   1.813   0.546  0.1992 -0.1152 -0.2787
  145MOL   C29143779   5.980   1.641   0.444 -0.2210  0.5708 -0.3201
  145MOL   C29243780   6.069   1.517   0.479  0.2611  0.2058  0.4769
  145MOL   C29343781   5.931   1.631   0.905  0.0345 -0.1582 -0.4557
  145MOL   H29443782   5.877   1.802   0.777  0.7269  1.1155 -0.1935
  145MOL   H29543783   5.891   1.609   0.390  0.1851 -0.6185 -0.2840
  145MOL   H29643784   6.033   1.709   0.376 -0.9629  1.0072 -0.4716
  145MOL   H29743785   6.011   1.451   0.544  0.1719 -2.6329 -2.3359
  145MOL   H29843786   6.092   1.450   0.396 -2.1951  1.3856 -1.1986
  145MOL   H29943787   6.161   1.539   0.533  0.1538  0.3675  0.5926
  145MOL   H30043788   5.853   1.567   0.865  0.4759 -0.0308 -1.5274
  145MOL   H30143789   6.024   1.580   0.931  1.3364  2.2549 -0.1283
  145MOL   H30243790   5.893   1.681   0.995 -0.7797 -1.3639 -0.1156
  146MOL     C143791   6.929   4.680   6.765 -0.5035  0.2988 -0.0874
  146MOL     O243792   6.864   4.796   6.828 -0.3628  0.5639 -0.5052
  146MOL     C343793   6.805   4.805   6.957 -0.1926  0.5297 -0.0831
  146MOL     O443794   6.817   4.718   7.041  0.5628  0.1078 -0.0916
  146MOL     C543795   6.712   4.928   6.971  1.1477 -0.8256  0.2126
  146MOL     C643796   6.591   4.922   6.873  0.6202  0.4338 -0.3252
  146MOL     C743797   6.823   4.603   6.687 -0.2178  0.3768  0.2344
  146MOL     H843798   6.979   4.618   6.840 -0.6229  0.2632 -0.0384
  146MOL     H943799   6.668   4.939   7.071 -0.6459  2.4611 -0.8763
  146MOL    H1043800   6.765   5.023   6.969 -0.6114  0.2550  2.2848
  146MOL    H1143801   6.528   4.833   6.874  0.8073  0.3071  1.1809
  146MOL    H1243802   6.517   4.997   6.900 -1.3368 -2.2021  1.9208
  146MOL    H1343803   6.632   4.943   6.774  2.9582  2.1266  0.9578
  146MOL    H1443804   6.752   4.555   6.754 -0.7626 -0.0867 -0.6656
  146MOL    H1543805   6.763   4.664   6.620  2.5850  2.7644 -0.1804
  146MOL    H1643806   7.003   4.732   6.704 -0.4382 -2.4498 -2.4471
  146MOL    C1743807   6.880   4.491   6.598  0.0647 -1.0564  0.0670
  146MOL    O1843808   6.920   4.384   6.687  0.5172 -0.7826  0.2307
  146MOL    C1943809   7.044   4.368   6.729 -0.1952  0.3940  0.5247
  146MOL    O2043810   7.138   4.444   6.706 -0.0841 -0.3958  0.7818
  146MOL    C2143811   7.059   4.246   6.810 -0.2671  0.0208  0.9448
  146MOL    C2243812   6.982   4.118   6.767  0.1428  0.0425 -0.7689
  146MOL    C2343813   6.801   4.434   6.480 -0.5193  0.1635  0.1328
  146MOL    H2443814   6.980   4.524   6.568  1.1732 -2.8328  1.6285
  146MOL    H2543815   7.164   4.217   6.802 -0.6145 -1.2495  0.8885
  146MOL    H2643816   7.039   4.278   6.912 -2.2940  0.4145  0.4437
  146MOL    H2743817   6.878   4.145   6.784  0.1301 -0.2924 -0.2824
  146MOL    H2843818   6.986   4.104   6.659  0.9599 -1.0281 -0.6098
  146MOL    H2943819   7.017   4.028   6.818  1.6130  0.9459 -0.1481
  146MOL    H3043820   6.779   4.514   6.409 -0.6954  1.7717  1.9566
  146MOL    H3143821   6.868   4.362   6.434 -0.5367 -0.5073  1.1500
  146MOL    C3243822   6.662   4.369   6.496 -0.8645  0.1594 -1.2926
  146MOL    O3343823   6.566   4.480   6.491  0.0753  0.0452  0.2956
  146MOL    C3443824   6.465   4.485   6.580 -0.2135  0.6268 -0.4583
  146MOL    O3543825   6.447   4.402   6.670  0.2348 -0.7074  0.5034
  146MOL    C3643826   6.384   4.607   6.558 -0.1294  0.1740  0.8978
  146MOL    C3743827   6.446   4.721   6.641  0.5177  1.0251  0.9102
  146MOL    C3843828   6.641   4.260   6.391  0.3018  0.1438 -0.2968
  146MOL    H3943829   6.662   4.317   6.593  1.3975 -0.3539 -1.5390
  146MOL    H4043830   6.355   4.627   6.455 -0.6182  2.9190  1.5477
  146MOL    H4143831   6.292   4.579   6.611 -0.7577 -1.2191 -0.8927
  146MOL    H4243832   6.542   4.743   6.594 -0.1339  1.3329 -0.3065
  146MOL    H4343833   6.378   4.806   6.640 -0.8640 -0.0760  0.8027
  146MOL    H4443834   6.459   4.692   6.745 -3.6142 -0.2454  1.1597
  146MOL    H4543835   6.666   4.306   6.296  0.7230 -0.7941 -0.6495
  146MOL    H4643836   6.713   4.179   6.405 -1.0719 -1.2710 -1.1893
  146MOL    C4743837   6.501   4.200   6.388 -0.1815  0.2575  0.2577
  146MOL    O4843838   6.488   4.143   6.263  0.3077  0.2319  0.1666
  146MOL    C4943839   6.400   4.172   6.172 -0.2351  0.0034  0.5832
  146MOL    O5043840   6.301   4.249   6.184  0.0192  0.7391 -0.0350
  146MOL    C5143841   6.432   4.102   6.032  0.0283  0.6673  0.6038
  146MOL    C5243842   6.400   4.196   5.917  0.7997  0.3917 -0.1004
  146MOL    C5343843   6.485   4.105   6.507  0.5166 -0.0490 -0.5837
  146MOL    H5443844   6.440   4.290   6.393 -3.4855 -1.9303  0.7321
  146MOL    H5543845   6.526   4.047   6.025 -0.3362  0.2805 -1.7355
  146MOL    H5643846   6.356   4.024   6.027 -1.9378  2.5086  1.0085
  146MOL    H5743847   6.490   4.233   5.867 -0.2968 -0.1196 -2.4704
  146MOL    H5843848   6.356   4.137   5.837  1.1902 -0.5163  0.3492
  146MOL    H5943849   6.320   4.269   5.932  0.1026 -0.1582 -1.1214
  146MOL    H6043850   6.551   4.019   6.500 -1.0167 -1.3606  0.6484
  146MOL    H6143851   6.514   4.151   6.602 -0.4008  0.7644 -0.6938
  146MOL    C6243852   6.346   4.046   6.541  0.6637 -0.2727 -0.4488
  146MOL    O6343853   6.268   4.161   6.564 -0.2308 -0.1844 -0.2032
  146MOL    C6443854   6.188   4.161   6.672  0.1063  0.2197  0.2894
  146MOL    O6543855   6.180   4.079   6.763 -0.9911  0.4163 -0.2988
  146MOL    C6643856   6.093   4.285   6.672  0.7233  0.4428  0.3379
  146MOL    C6743857   6.013   4.309   6.547 -0.2555  0.0864 -0.4620
  146MOL    C6843858   6.285   3.944   6.444 -0.6600  0.2750  0.1896
  146MOL    H6943859   6.359   3.999   6.638 -0.2055 -0.2715 -0.3307
  146MOL    H7043860   6.025   4.285   6.757  1.1992  0.5752  0.7189
  146MOL    H7143861   6.158   4.370   6.689  0.7992  0.5219 -0.3428
  146MOL    H7243862   5.942   4.390   6.559 -2.8192 -2.0082 -0.9716
  146MOL    H7343863   6.085   4.331   6.467 -0.7352 -1.7734 -1.4410
  146MOL    H7443864   5.958   4.228   6.499 -2.0451  0.5093  0.8475
  146MOL    H7543865   6.178   3.925   6.456 -0.4078 -2.1690 -1.0046
  146MOL    H7643866   6.301   3.983   6.343 -0.7066 -2.2038 -0.8436
  146MOL    C7743867   6.352   3.810   6.465 -1.1159 -0.4496 -0.4531
  146MOL    O7843868   6.318   3.750   6.589 -0.1655  0.5099 -0.3068
  146MOL    C7943869   6.413   3.722   6.685 -0.1095  0.6196  0.2370
  146MOL    O8043870   6.533   3.743   6.667  0.8679 -0.0999  0.4239
  146MOL    C8143871   6.359   3.651   6.810  0.2203  0.1646  1.0416
  146MOL    C8243872   6.245   3.735   6.876 -0.2193  0.6087 -0.1188
  146MOL    C8343873   6.329   3.709   6.346  0.0296  0.2839 -0.2153
  146MOL    H8443874   6.460   3.822   6.469 -1.1314 -0.7640  1.1660
  146MOL    H8543875   6.320   3.551   6.792 -1.0262  0.0461  4.0272
  146MOL    H8643876   6.448   3.636   6.871  2.2201  0.1325 -1.8130
  146MOL    H8743877   6.158   3.672   6.893  1.3015 -1.5031 -0.0776
  146MOL    H8843878   6.281   3.751   6.978 -3.5823  0.1907  1.1894
  146MOL    H8943879   6.207   3.820   6.819 -0.4763  0.6508  0.1121
  146MOL    H9043880   6.334   3.617   6.404 -0.1215  0.9964  0.9487
  146MOL    H9143881   6.224   3.710   6.317  0.0083  0.8936 -0.1369
  146MOL    C9243882   6.421   3.738   6.221  0.4506 -0.1884 -0.7472
  146MOL    O9343883   6.553   3.698   6.260 -0.9343  0.3853  0.0021
  146MOL    C9443884   6.645   3.793   6.290 -0.0870 -0.2374  0.0802
  146MOL    O9543885   6.626   3.915   6.288 -0.2593 -0.0390 -0.4194
  146MOL    C9643886   6.782   3.736   6.342 -0.4778  0.2408  0.0605
  146MOL    C9743887   6.891   3.788   6.253 -0.6869  0.3950  0.4312
  146MOL    C9843888   6.377   3.643   6.114 -0.2317 -1.0359  0.5811
  146MOL    H9943889   6.408   3.839   6.183 -0.2172 -0.2580 -0.6985
  146MOL   H10043890   6.795   3.747   6.450 -2.6780  2.6714  0.1235
  146MOL   H10143891   6.762   3.631   6.321 -0.5758  0.3602 -0.4621
  146MOL   H10243892   6.854   3.816   6.154 -0.6039  0.2156  0.3489
  146MOL   H10343893   6.932   3.882   6.290  2.1722 -0.4749 -0.3292
  146MOL   H10443894   6.978   3.723   6.239 -1.7584 -0.7327 -1.1718
  146MOL   H10543895   6.378   3.541   6.153 -1.4039 -1.0885  0.5025
  146MOL   H10643896   6.270   3.656   6.103 -0.5517 -2.9448  1.1295
  146MOL   C10743897   6.455   3.657   5.986 -0.1256  0.1159 -0.2011
  146MOL   O10843898   6.479   3.529   5.926 -0.5193  0.0910  0.0244
  146MOL   C10943899   6.594   3.467   5.936 -0.5295 -0.9233  0.2583
  146MOL   O11043900   6.698   3.511   5.984 -0.0374 -0.5441 -0.1989
  146MOL   C11143901   6.585   3.329   5.870 -0.0769 -0.0191 -0.0460
  146MOL   C11243902   6.713   3.260   5.840 -0.2670  0.1249  0.2994
  146MOL   C11343903   6.391   3.747   5.877 -0.1866  0.0174  0.0006
  146MOL   H11443904   6.556   3.694   6.004  0.6452 -2.2911  0.6884
  146MOL   H11543905   6.526   3.261   5.932 -1.0640  0.8460 -0.0322
  146MOL   H11643906   6.539   3.344   5.773 -2.2001 -1.3383  0.7057
  146MOL   H11743907   6.707   3.152   5.828  0.7317  0.1467 -0.4607
  146MOL   H11843908   6.746   3.296   5.743 -2.6247  1.0256 -0.2113
  146MOL   H11943909   6.795   3.280   5.910  0.1572  2.4828 -0.8174
  146MOL   H12043910   6.293   3.702   5.855  0.1971  0.3208 -2.4647
  146MOL   H12143911   6.369   3.849   5.909  0.0255  0.4063 -1.0762
  146MOL   C12243912   6.464   3.750   5.741 -0.6902 -0.3889 -0.3033
  146MOL   O12343913   6.375   3.772   5.633  0.6295 -1.3614  0.5103
  146MOL   C12443914   6.276   3.870   5.627 -0.4188 -0.7839 -0.1159
  146MOL   O12543915   6.252   3.948   5.719 -0.1214  0.0115 -0.0063
  146MOL   C12643916   6.192   3.860   5.504 -1.1231  0.0506  0.1477
  146MOL   C12743917   6.103   3.730   5.506  0.0171 -0.7745 -0.0674
  146MOL   C12843918   6.572   3.867   5.731  0.0425  0.0971  0.3984
  146MOL   H12943919   6.523   3.659   5.730 -0.2187 -0.1976  0.5463
  146MOL   H13043920   6.128   3.948   5.494 -1.1853 -0.0202 -0.0754
  146MOL   H13143921   6.245   3.859   5.409 -0.9616 -1.1938  0.2400
  146MOL   H13243922   6.170   3.650   5.476  0.5883  0.8318 -3.4208
  146MOL   H13343923   6.060   3.709   5.604 -0.4098  0.0153 -0.0730
  146MOL   H13443924   6.030   3.737   5.425  0.8212 -1.9392 -0.9017
  146MOL   H13543925   6.539   3.962   5.688 -0.6560 -1.1765 -1.9289
  146MOL   H13643926   6.601   3.889   5.834  0.8151 -0.1724  0.2397
  146MOL   C13743927   6.692   3.821   5.653  0.2212 -0.1841 -0.7112
  146MOL   O13843928   6.652   3.762   5.529 -0.3022 -0.1941 -0.6066
  146MOL   C13943929   6.680   3.631   5.505  0.5956 -0.5965  1.2156
  146MOL   O14043930   6.741   3.553   5.577 -0.9687 -0.1561 -0.3786
  146MOL   C14143931   6.628   3.588   5.369 -0.3862 -0.4184 -0.4525
  146MOL   C14243932   6.556   3.456   5.381 -0.1375  0.1289 -0.1067
  146MOL   C14343933   6.771   3.944   5.604  0.3328  0.5631 -0.2699
  146MOL   H14443934   6.759   3.759   5.713  0.3527  1.4493  0.8535
  146MOL   H14543935   6.560   3.668   5.339  1.2051  1.0586 -0.1930
  146MOL   H14643936   6.710   3.586   5.298  0.3106 -1.1880  0.3622
  146MOL   H14743937   6.629   3.382   5.348 -0.4705  0.3555 -1.3897
  146MOL   H14843938   6.535   3.427   5.483 -0.0013  1.1310  0.2084
  146MOL   H14943939   6.471   3.444   5.314 -0.7887 -0.0512  0.7510
  146MOL   H15043940   6.844   3.924   5.525 -0.2342 -0.4167 -0.5537
  146MOL   H15143941   6.702   4.008   5.549  2.0781  0.9503 -2.0691
  146MOL   C15243942   6.833   4.037   5.711 -0.8258  0.6819 -0.3242
  146MOL   O15343943   6.952   3.982   5.766 -0.4667  0.5324 -0.0448
  146MOL   C15443944   6.960   3.979   5.913  0.1406 -1.1108  0.4967
  146MOL   O15543945   6.879   4.029   5.992  0.3988  0.7049 -0.3402
  146MOL   C15643946   7.087   3.915   5.967  0.2539 -0.2610  0.0030
  146MOL   C15743947   7.211   3.974   5.894  0.0322  0.4934 -0.1521
  146MOL   C15843948   6.889   4.169   5.645 -0.5229 -0.1361  0.1535
  146MOL   H15943949   6.771   4.059   5.797  0.2008  0.3840  0.5064
  146MOL   H16043950   7.089   3.923   6.076  0.6932 -1.0273  0.0521
  146MOL   H16143951   7.084   3.807   5.953 -2.9625 -0.4354  1.5862
  146MOL   H16243952   7.290   3.927   5.952 -1.9212 -0.7679  1.5495
  146MOL   H16343953   7.236   3.931   5.797  0.2961  1.4274 -0.5081
  146MOL   H16443954   7.209   4.083   5.900  0.8491  0.4916  0.2922
  146MOL   H16543955   6.970   4.148   5.575 -0.5417  1.5572 -0.3959
  146MOL   H16643956   6.804   4.207   5.587  1.1374 -1.0265 -2.9921
  146MOL   C16743957   6.939   4.281   5.745 -0.1096 -0.1212  1.1007
  146MOL   O16843958   6.985   4.398   5.679 -0.1102  0.5101  0.1518
  146MOL   C16943959   7.117   4.404   5.629  0.5767 -0.4530  0.0745
  146MOL   O17043960   7.203   4.320   5.646 -0.0799  0.1689 -0.2708
  146MOL   C17143961   7.144   4.534   5.550  0.7402 -0.4898 -0.0114
  146MOL   C17243962   7.269   4.525   5.449  0.4308  0.1619  0.5044
  146MOL   C17343963   6.831   4.321   5.837 -0.2132  0.0236  0.2353
  146MOL   H17443964   7.029   4.242   5.792  0.9568  1.4580  0.3949
  146MOL   H17543965   7.047   4.556   5.506  1.5289 -0.6543 -1.8791
  146MOL   H17643966   7.170   4.607   5.627  1.0499 -0.3844 -0.2159
  146MOL   H17743967   7.259   4.433   5.392 -0.8558  1.9586 -2.2784
  146MOL   H17843968   7.275   4.612   5.384  3.0717  1.2626  2.1414
  146MOL   H17943969   7.363   4.528   5.505  1.0297 -0.4774 -0.4510
  146MOL   H18043970   6.750   4.368   5.781 -0.9458 -1.4983 -0.0020
  146MOL   H18143971   6.782   4.235   5.882  0.5769 -0.1997  0.6927
  146MOL   C18243972   6.866   4.423   5.949  0.8227  0.2220 -0.9433
  146MOL   O18343973   6.760   4.442   6.048 -0.6793  0.0545  0.3522
  146MOL   C18443974   6.657   4.518   6.016  0.3717 -0.6521  0.4963
  146MOL   O18543975   6.627   4.559   5.902  0.3109  0.8968 -0.3094
  146MOL   C18643976   6.565   4.536   6.136  0.5200 -0.1087 -0.2326
  146MOL   C18743977   6.475   4.661   6.128 -0.6093 -0.3314  0.0701
  146MOL   C18843978   6.987   4.380   6.035 -0.4064  1.3171  0.1576
  146MOL   H18943979   6.897   4.513   5.896  1.2464  0.5103 -0.2168
  146MOL   H19043980   6.506   4.444   6.131 -0.7698  0.8170 -2.7702
  146MOL   H19143981   6.625   4.530   6.227 -0.3009  0.9773  0.3977
  146MOL   H19243982   6.378   4.639   6.172  0.0224 -1.9919  0.6707
  146MOL   H19343983   6.527   4.744   6.176 -0.2583 -0.3291 -0.3032
  146MOL   H19443984   6.456   4.702   6.028  0.7736  0.4112  0.0921
  146MOL   H19543985   6.949   4.296   6.093  1.1150  0.9874  0.6885
  146MOL   H19643986   7.070   4.354   5.969 -1.2438 -0.3043 -0.2973
  146MOL   C19743987   7.043   4.476   6.138 -0.0343 -0.2885 -0.2924
  146MOL   O19843988   7.124   4.395   6.233  0.4845 -0.2307 -0.0669
  146MOL   C19943989   7.241   4.344   6.205  0.2660 -0.3005 -0.1735
  146MOL   O20043990   7.300   4.348   6.102 -0.3251  0.4932 -0.2504
  146MOL   C20143991   7.295   4.263   6.326  0.3470  0.0377 -0.3340
  146MOL   C20243992   7.214   4.138   6.362 -0.0638  0.2841 -0.3954
  146MOL   C20343993   7.103   4.610   6.080 -0.4029  0.3674 -0.0062
  146MOL   H20443994   6.954   4.514   6.189  1.1037  0.9473  0.7934
  146MOL   H20543995   7.401   4.249   6.301  0.4928  0.0213  0.2910
  146MOL   H20643996   7.305   4.338   6.404  0.0243  0.1969 -0.4459
  146MOL   H20743997   7.215   4.081   6.269 -1.8449 -2.7756  1.3816
  146MOL   H20843998   7.257   4.075   6.439  1.9806 -0.2580 -1.9329
  146MOL   H20943999   7.111   4.172   6.378  0.3613  0.6788  1.6520
  146MOL   H21044000   7.180   4.585   6.007 -1.5133 -0.8174 -0.7950
  146MOL   H21144001   7.016   4.654   6.032 -1.1231  0.7764  1.6505
  146MOL   C21244002   7.121   4.713   6.190  0.3313 -0.3227 -0.0034
  146MOL   O21344003   7.251   4.699   6.246  0.1701 -0.4163  0.5277
  146MOL   C21444004   7.264   4.693   6.381 -0.5896 -0.0902  1.4231
  146MOL   O21544005   7.180   4.708   6.468  0.0963  0.1841 -0.4250
  146MOL   C21644006   7.414   4.675   6.422 -0.1759  0.5027  0.2766
  146MOL   C21744007   7.433   4.673   6.569  0.1962  0.0228 -0.4084
  146MOL   C21844008   7.095   4.859   6.142 -0.1747 -0.7429 -0.3409
  146MOL   H21944009   7.042   4.692   6.262 -0.3999  0.0726 -0.6713
  146MOL   H22044010   7.458   4.593   6.365 -2.3506 -1.4593  1.3499
  146MOL   H22144011   7.470   4.764   6.393 -0.9067  1.3332  1.4018
  146MOL   H22244012   7.369   4.734   6.634  0.9356 -0.7217  1.0323
  146MOL   H22344013   7.422   4.573   6.610  0.3514 -0.4158 -1.4294
  146MOL   H22444014   7.530   4.705   6.607 -1.0909  2.1396  1.2292
  146MOL   H22544015   7.135   4.935   6.208 -1.8181 -0.5265  0.4328
  146MOL   H22644016   7.147   4.873   6.048  0.1776  0.7339  0.0750
  146MOL   C22744017   6.947   4.890   6.137 -0.0310  0.0469 -0.1983
  146MOL   O22844018   6.888   4.927   6.254 -0.1283  0.0478  0.0760
  146MOL   C22944019   6.805   4.845   6.320  0.5822  0.0873 -0.1288
  146MOL   O23044020   6.793   4.731   6.280 -0.0345  0.1731 -0.1768
  146MOL   C23144021   6.742   4.906   6.442 -0.0834 -0.9966 -0.8385
  146MOL   C23244022   6.839   4.947   6.552 -0.4144  0.2665  0.0001
  146MOL   C23344023   6.917   5.011   6.049 -0.4234  0.3982  0.6528
  146MOL   H23444024   6.884   4.814   6.091 -0.9140  1.5080 -1.4707
  146MOL   H23544025   6.698   4.999   6.408  0.3294  0.8922  3.4052
  146MOL   H23644026   6.658   4.845   6.473 -0.9254 -0.7925 -2.6880
  146MOL   H23744027   6.888   5.041   6.526 -1.2202  0.5824 -0.3783
  146MOL   H23844028   6.796   4.952   6.651 -0.5055 -1.9643  0.0910
  146MOL   H23944029   6.919   4.873   6.550  0.2017  0.9495 -0.9551
  146MOL   H24044030   6.816   5.050   6.062 -0.4098  1.0525 -1.1868
  146MOL   H24144031   6.977   5.090   6.093 -0.5771  1.9365 -1.8219
  146MOL   C24244032   6.945   5.002   5.899  0.0494  0.0652  0.2306
  146MOL   O24344033   6.851   4.921   5.827  0.2835 -0.0485  0.2863
  146MOL   C24444034   6.890   4.808   5.758 -0.7825 -0.1152 -0.3541
  146MOL   O24544035   7.002   4.757   5.766  0.0056  0.1088  0.5143
  146MOL   C24644036   6.776   4.732   5.692  0.3551 -0.0208 -0.5511
  146MOL   C24744037   6.749   4.783   5.548 -0.3583 -0.3927 -1.1604
  146MOL   C24844038   6.955   5.145   5.846 -1.0848  0.6001  0.3660
  146MOL   H24944039   7.047   4.963   5.891 -0.4624 -1.7940  2.3347
  146MOL   H25044040   6.793   4.624   5.690  0.1026 -0.0555 -0.9835
  146MOL   H25144041   6.688   4.753   5.753  1.1777 -0.3782  0.7681
  146MOL   H25244042   6.839   4.760   5.492  1.3652  2.1425  0.4358
  146MOL   H25344043   6.659   4.741   5.503 -0.0768 -3.1783  0.7446
  146MOL   H25444044   6.744   4.892   5.558  1.9352 -0.4130  0.6025
  146MOL   H25544045   6.868   5.198   5.883 -0.6580  2.4219 -1.1833
  146MOL   H25644046   7.045   5.186   5.892 -0.4665 -1.2906  0.9032
  146MOL   C25744047   6.964   5.157   5.697 -0.3798  0.0396  0.7840
  146MOL   O25844048   6.962   5.296   5.651  0.0509  0.0767 -0.2651
  146MOL   C25944049   6.857   5.347   5.602  0.4947 -0.5088 -0.4573
  146MOL   O26044050   6.748   5.290   5.586  0.8245 -0.3811  0.3353
  146MOL   C26144051   6.867   5.484   5.545 -0.3813  0.2748  0.6489
  146MOL   C26244052   7.007   5.510   5.478  0.4018  0.3457  0.1428
  146MOL   C26344053   7.087   5.087   5.620 -0.7587  0.2514  0.1203
  146MOL   H26444054   6.876   5.107   5.655  0.5868  1.0282 -2.6016
  146MOL   H26544055   6.783   5.502   5.479 -1.0020  0.5219  1.4979
  146MOL   H26644056   6.868   5.549   5.633  0.9485  0.8375  0.2464
  146MOL   H26744057   6.988   5.601   5.420 -1.8106  0.4617  0.9921
  146MOL   H26844058   7.089   5.502   5.549  0.3576  0.3377  0.1921
  146MOL   H26944059   7.034   5.445   5.395  1.1184 -1.0343  1.4376
  146MOL   H27044060   7.179   5.133   5.658  0.0286 -3.2087  2.6399
  146MOL   H27144061   7.113   4.987   5.653 -1.2770 -0.7911 -2.5472
  146MOL   C27244062   7.085   5.094   5.465 -0.3806 -0.9834 -0.5307
  146MOL   O27344063   7.197   5.020   5.420  0.8252  0.4853  0.4091
  146MOL   C27444064   7.292   5.071   5.331  0.6007  0.6099  0.3953
  146MOL   O27544065   7.293   5.186   5.287  0.0397  0.0222 -0.1354
  146MOL   C27644066   7.399   4.970   5.297 -0.0736  0.5435  0.4390
  146MOL   C27744067   7.338   4.862   5.207 -0.0050  0.0661  0.0109
  146MOL   C27844068   6.968   5.027   5.400 -1.0742 -0.5032 -0.2924
  146MOL   H27944069   7.084   5.200   5.438  2.4613 -0.7858 -0.0130
  146MOL   H28044070   7.489   5.002   5.243  0.8567 -1.1066  0.9963
  146MOL   H28144071   7.437   4.936   5.393 -0.9375 -1.2767  0.1427
  146MOL   H28244072   7.334   4.894   5.103  1.1646 -2.5264 -0.8820
  146MOL   H28344073   7.389   4.766   5.208  1.0592  0.5903 -1.6598
  146MOL   H28444074   7.235   4.836   5.230  0.7478 -2.3241  0.7904
  146MOL   H28544075   6.991   4.923   5.421 -0.0714  0.0840  1.5999
  146MOL   H28644076   6.874   5.053   5.448  0.4087 -1.3649  3.2462
  146MOL   C28744077   6.959   5.033   5.250  0.1558 -0.2515  0.2836
  146MOL   O28844078   6.830   4.976   5.211  0.3563  0.2674 -0.4852
  146MOL   C28944079   6.817   4.846   5.168 -0.1251 -0.4839 -0.3248
  146MOL   O29044080   6.921   4.768   5.154  0.5863  0.2363  0.3397
  146MOL   C29144081   6.672   4.811   5.128  0.2351 -0.4733 -0.0665
  146MOL   C29244082   6.566   4.901   5.214  1.1861  0.0781  0.3201
  146MOL   C29344083   6.968   5.169   5.193 -0.8635  0.2250  0.1193
  146MOL   H29444084   7.034   4.977   5.195  0.0664  0.4804 -0.5892
  146MOL   H29544085   6.651   4.805   5.021  0.4918 -0.4305 -0.1193
  146MOL   H29644086   6.657   4.707   5.157 -0.0795 -0.9664 -1.9353
  146MOL   H29744087   6.466   4.859   5.207  1.7845 -1.7374  2.2858
  146MOL   H29844088   6.598   4.913   5.318 -1.8716  2.3783  1.0839
  146MOL   H29944089   6.566   5.004   5.179  2.2158  0.1547  0.5497
  146MOL   H30044090   6.887   5.228   5.235 -0.7543  2.2055 -2.2973
  146MOL   H30144091   7.061   5.216   5.223 -0.7281 -0.2415  0.4381
  146MOL   H30244092   6.951   5.169   5.085 -0.5376 -3.3235  0.0272
  147MOL     C144093   7.273   0.156   6.812  0.2442 -0.4593 -0.6966
  147MOL     O244094   7.236   0.218   6.933 -0.0144 -0.1980 -0.1591
  147MOL     C344095   7.116   0.282   6.952  0.6568  0.1944  0.5914
  147MOL     O444096   7.021   0.285   6.874 -0.0455 -0.3131  0.1252
  147MOL     C544097   7.101   0.342   7.090  0.1106 -0.2625 -0.9364
  147MOL     C644098   7.060   0.487   7.092 -0.1834 -0.9557 -0.0712
  147MOL     C744099   7.400   0.072   6.815  0.7581  0.7839  0.7233
  147MOL     H844100   7.280   0.235   6.737 -1.3415 -1.8292 -2.3320
  147MOL     H944101   7.023   0.282   7.137 -0.8779  1.3804 -0.4246
  147MOL    H1044102   7.194   0.345   7.146  0.1746 -0.3263 -1.0420
  147MOL    H1144103   7.053   0.526   7.193 -1.8818  2.8483 -1.5564
  147MOL    H1244104   7.137   0.546   7.042  0.6060 -3.0459 -1.4105
  147MOL    H1344105   6.961   0.498   7.045 -1.6910  0.9103  3.3972
  147MOL    H1444106   7.487   0.132   6.839  2.9987 -1.4872 -1.4740
  147MOL    H1544107   7.380   7.944   6.895  1.7560 -0.0784  0.1960
  147MOL    H1644108   7.195   0.082   6.795  0.4515 -0.9996  0.6591
  147MOL    C1744109   7.430   7.939   6.689 -0.0487 -0.1861  0.0565
  147MOL    O1844110   7.483   0.081   6.596 -0.4736  0.1765  0.3885
  147MOL    C1944111   7.402   0.157   6.517 -0.3671 -0.6535 -0.3840
  147MOL    O2044112   7.282   0.145   6.496 -0.0154 -0.4631 -0.1623
  147MOL    C2144113   7.477   0.265   6.440 -0.2544 -0.0929 -0.0052
  147MOL    C2244114   7.558   0.359   6.541 -0.0749  0.2053  0.2510
  147MOL    C2344115   7.535   7.830   6.703 -0.4434  0.1610  0.5066
  147MOL    H2444116   7.330   7.906   6.659 -0.0969 -2.0294  2.0674
  147MOL    H2544117   7.543   0.212   6.370  1.3068  2.3435 -0.4197
  147MOL    H2644118   7.416   0.333   6.380  0.5472 -0.0333 -0.7642
  147MOL    H2744119   7.488   0.392   6.618 -0.3840  0.7304 -0.2496
  147MOL    H2844120   7.649   0.313   6.580  0.1908  0.3120 -0.2451
  147MOL    H2944121   7.593   0.451   6.494 -0.7978  1.4643  2.1052
  147MOL    H3044122   7.487   7.742   6.747  0.6033  0.2925  1.9482
  147MOL    H3144123   7.558   7.793   6.603 -0.9178  1.2199  0.0013
  147MOL    C3244124   7.667   7.860   6.781 -1.0938  0.0618  0.0756
  147MOL    O3344125   7.636   7.890   6.919  0.0354 -0.3495 -0.3864
  147MOL    C3444126   7.713   0.020   6.991 -0.1537 -0.6532 -0.5747
  147MOL    O3544127   7.825   0.067   6.966 -0.0400 -0.4107 -0.4089
  147MOL    C3644128   7.643   0.065   7.119 -0.2832  0.6098  0.8530
  147MOL    C3744129   7.653   0.217   7.144  0.6049 -0.0229 -0.1630
  147MOL    C3844130   7.778   7.761   6.763 -0.0339  0.2760  0.3180
  147MOL    H3944131   7.719   7.943   6.732 -0.7564  0.0646  0.4360
  147MOL    H4044132   7.539   0.033   7.118 -0.2389  0.2489  3.6586
  147MOL    H4144133   7.691   0.003   7.195  2.2042  0.4792 -0.7932
  147MOL    H4244134   7.755   0.244   7.172  0.6672  0.3425 -0.7495
  147MOL    H4344135   7.616   0.284   7.067 -2.3935  1.3315  2.3434
  147MOL    H4444136   7.605   0.253   7.235  0.0567  0.9930 -0.8462
  147MOL    H4544137   7.866   7.786   6.822  0.5799 -1.2710  0.0700
  147MOL    H4644138   7.744   7.666   6.806  0.6723  0.4843  1.3708
  147MOL    C4744139   7.808   7.721   6.614 -0.2649  0.6203 -0.0252
  147MOL    O4844140   7.828   7.830   6.530 -0.1012  0.2589  0.3267
  147MOL    C4944141   7.770   7.837   6.408 -0.0975 -0.7542 -0.2989
  147MOL    O5044142   7.708   7.740   6.356  0.5989 -0.2298  0.4951
  147MOL    C5144143   7.768   0.029   6.345 -0.0573  0.2344 -0.2685
  147MOL    C5244144   7.693   0.039   6.206 -0.4703  0.3908 -0.1128
  147MOL    C5344145   7.925   7.621   6.595  0.4036 -0.6809  0.1405
  147MOL    H5444146   7.727   7.667   6.566  2.2910 -3.1871 -0.2678
  147MOL    H5544147   7.726   0.103   6.413  1.9447 -0.0444  1.3230
  147MOL    H5644148   7.875   0.052   6.342 -0.1924  1.4344  2.3491
  147MOL    H5744149   7.726   7.913   6.130 -3.4006 -0.3730 -0.7357
  147MOL    H5844150   7.586   0.016   6.209  0.1173 -2.3021  2.6073
  147MOL    H5944151   7.716   0.134   6.159  2.0371  1.0187  2.2567
  147MOL    H6044152   7.890   7.518   6.610  1.5782 -1.4520 -2.2572
  147MOL    H6144153   7.943   7.631   6.488  0.9347  2.3574  0.4685
  147MOL    C6244154   0.106   7.637   6.678  0.3999  0.0451 -0.2286
  147MOL    O6344155   0.188   7.527   6.643 -0.5280  0.0925 -0.0080
  147MOL    C6444156   0.223   7.428   6.723  0.7396 -0.7955  0.3908
  147MOL    O6544157   0.180   7.413   6.839  0.4288 -0.6036  0.0942
  147MOL    C6644158   0.320   7.331   6.655 -0.1474  0.1229  0.4599
  147MOL    C6744159   0.395   7.235   6.754  0.9601 -0.3976 -0.5279
  147MOL    C6844160   0.175   7.772   6.656  0.5124  0.4907 -0.7088
  147MOL    H6944161   0.078   7.617   6.781  1.7591  2.3659  0.6275
  147MOL    H7044162   0.271   7.284   6.569 -2.4577  0.8737  1.3129
  147MOL    H7144163   0.392   7.398   6.609 -2.7320  2.3670 -0.4210
  147MOL    H7244164   0.465   7.172   6.699  1.1273  1.2927 -2.3005
  147MOL    H7344165   0.448   7.294   6.829  0.2393  0.0253 -0.3508
  147MOL    H7444166   0.326   7.181   6.818  1.0832  0.3086  0.2047
  147MOL    H7544167   0.217   7.774   6.555  0.8770 -0.0633 -0.5692
  147MOL    H7644168   0.100   7.851   6.658 -1.3882 -1.2839 -0.0092
  147MOL    C7744169   0.272   7.806   6.767 -0.5905  0.2989 -0.3937
  147MOL    O7844170   0.351   7.920   6.730  0.5856  0.9273 -0.1477
  147MOL    C7944171   0.489   7.912   6.730 -0.6361 -0.2787  0.3042
  147MOL    O8044172   0.551   7.809   6.755 -0.3335 -0.2075 -0.4082
  147MOL    C8144173   0.552   0.099   6.689  0.4880  0.0402  0.1375
  147MOL    C8244174   0.489   0.219   6.761  1.1726 -0.0943 -0.2567
  147MOL    C8344175   0.207   7.847   6.897 -0.6918 -0.1552  0.2987
  147MOL    H8444176   0.330   7.717   6.789  0.2711  1.1953  1.0634
  147MOL    H8544177   0.657   0.087   6.714  1.0232  1.6746 -1.2151
  147MOL    H8644178   0.562   0.108   6.581 -0.5602  3.0081  0.2561
  147MOL    H8744179   0.389   0.241   6.725  1.6321  0.8615 -0.9647
  147MOL    H8844180   0.491   0.193   6.867 -1.5942 -1.7381 -0.5644
  147MOL    H8944181   0.557   0.302   6.740  2.4970 -1.3609 -1.0944
  147MOL    H9044182   0.154   7.939   6.873 -0.8069  0.5963  3.3070
  147MOL    H9144183   0.130   7.772   6.918  0.2000 -0.8816  1.0370
  147MOL    C9244184   0.301   7.871   7.017  0.0617 -0.0648 -0.2555
  147MOL    O9344185   0.242   7.942   7.120  0.1067  0.1182  0.2483
  147MOL    C9444186   0.212   0.126   7.108  1.0090 -0.2183 -0.0535
  147MOL    O9544187   0.261   0.202   7.021  0.1851 -1.1361 -0.9848
  147MOL    C9644188   0.126   0.180   7.227 -0.0999  0.1407  0.4961
  147MOL    C9744189   0.098   0.331   7.216 -0.7761 -0.0554 -0.0104
  147MOL    C9844190   0.365   7.742   7.071  0.0233 -0.1118 -0.2523
  147MOL    H9944191   0.396   7.919   6.992 -0.4754  0.1751 -1.8922
  147MOL   H10044192   0.037   0.119   7.220 -0.7777  1.2495 -0.7667
  147MOL   H10144193   0.184   0.168   7.319  1.0611  0.3443 -0.1965
  147MOL   H10244194   0.024   0.370   7.284  0.3026 -0.8346  1.6432
  147MOL   H10344195   0.195   0.372   7.245 -0.2046 -2.4401  1.6196
  147MOL   H10444196   0.067   0.367   7.118  1.3903 -0.8908 -1.0540
  147MOL   H10544197   0.311   7.698   7.155 -1.1096  0.3977 -0.7084
  147MOL   H10644198   0.380   7.662   6.997  1.7678 -1.4569  1.4984
  147MOL   C10744199   0.511   7.758   7.124  0.5835 -0.0974  0.0376
  147MOL   O10844200   0.513   7.835   7.243  0.0278  0.5171 -0.2300
  147MOL   C10944201   0.559   0.013   7.237  0.1357  0.7310  0.1872
  147MOL   O11044202   0.593   0.074   7.137 -0.0557 -0.0477 -0.0956
  147MOL   C11144203   0.531   0.092   7.367  0.4726 -0.1945  0.3736
  147MOL   C11244204   0.605   0.223   7.370 -0.1575  0.2812  0.2903
  147MOL   C11344205   0.587   7.630   7.161 -0.5194 -0.6253  0.7015
  147MOL   H11444206   0.570   7.798   7.042  1.4191 -1.9831 -0.3196
  147MOL   H11544207   0.423   0.111   7.369  0.3149 -0.9468 -0.5250
  147MOL   H11644208   0.563   0.038   7.456  0.0816  1.2806  1.4201
  147MOL   H11744209   0.542   0.301   7.329  0.3125  0.4380 -0.1375
  147MOL   H11844210   0.610   0.257   7.473 -1.1495 -0.6180  0.6431
  147MOL   H11944211   0.706   0.212   7.330 -0.0637 -1.3381  0.9456
  147MOL   H12044212   0.610   7.587   7.063  0.7835  0.4015  0.5399
  147MOL   H12144213   0.675   7.662   7.217 -0.3116 -2.0800  1.2395
  147MOL   C12244214   0.506   7.531   7.250 -0.3316  0.4204  0.0828
  147MOL   O12344215   0.439   7.455   7.164 -0.4824 -0.1408 -0.2832
  147MOL   C12444216   0.329   7.393   7.203 -0.0850 -0.1448 -0.2203
  147MOL   O12544217   0.257   7.406   7.299  0.4654 -0.5453 -0.4579
  147MOL   C12644218   0.299   7.289   7.093 -0.1276 -0.9047  0.4210
  147MOL   C12744219   0.330   7.150   7.136 -0.6070 -0.4834 -0.2851
  147MOL   C12844220   0.600   7.443   7.329  0.1301 -0.1319  0.5981
  147MOL   H12944221   0.448   7.593   7.319  1.4030  1.2674  0.8076
  147MOL   H13044222   0.192   7.299   7.069 -0.5305 -0.4797  2.3254
  147MOL   H13144223   0.371   7.315   7.016 -0.7161 -0.6362 -0.0431
  147MOL   H13244224   0.264   7.120   7.217  1.2574 -0.4620  1.2726
  147MOL   H13344225   0.310   7.074   7.061 -0.2603 -0.7866 -0.0716
  147MOL   H13444226   0.433   7.148   7.171  0.2781  0.6266 -2.7214
  147MOL   H13544227   0.537   7.363   7.367  1.8571 -0.7341  2.2595
  147MOL   H13644228   0.663   7.398   7.252  0.9420  1.5468  0.2520
  147MOL   C13744229   0.675   7.512   7.444  0.4996 -1.0305 -0.4033
  147MOL   O13844230   0.576   7.569   7.528 -0.3318 -0.7008  0.2112
  147MOL   C13944231   0.587   7.692   7.581  0.6380 -0.1593 -0.1251
  147MOL   O14044232   0.673   7.775   7.562  0.1382  0.0703 -0.5780
  147MOL   C14144233   0.479   7.723   7.678 -0.3344 -0.1950 -0.0833
  147MOL   C14244234   0.335   7.672   7.636 -1.2947  0.0907 -0.0034
  147MOL   C14344235   0.767   7.423   7.530 -0.0818 -0.0781  0.1912
  147MOL   H14444236   0.734   7.599   7.414 -0.8247  0.9446  2.4900
  147MOL   H14544237   0.515   7.700   7.778 -1.6622  2.3546  1.0475
  147MOL   H14644238   0.472   7.831   7.690 -0.0496 -0.3148  1.1429
  147MOL   H14744239   0.340   7.567   7.609  0.3016  0.0915  0.2689
  147MOL   H14844240   0.260   7.693   7.713  0.0330  0.1150  1.3090
  147MOL   H14944241   0.307   7.725   7.545  2.3308  0.4019 -0.9774
  147MOL   H15044242   0.793   7.466   7.627 -2.8113 -1.9659  1.8446
  147MOL   H15144243   0.712   7.333   7.555 -1.3890  1.0791  1.5974
  147MOL   C15244244   0.888   7.374   7.443 -1.0634 -0.7370  0.7885
  147MOL   O15344245   0.960   7.496   7.407  0.4960  0.3958 -0.0396
  147MOL   C15444246   0.999   7.522   7.276 -0.4050  0.3169  0.1397
  147MOL   O15544247   0.990   7.439   7.183 -0.0184 -0.8531 -0.7870
  147MOL   C15644248   1.069   7.657   7.269 -0.4125 -0.0277 -0.0104
  147MOL   C15744249   1.001   7.768   7.339  0.1842  0.8018  0.0600
  147MOL   C15844250   0.987   7.272   7.500 -0.1518 -0.0886  0.2772
  147MOL   H15944251   0.845   7.323   7.357 -0.9176 -2.2947  1.6184
  147MOL   H16044252   1.176   7.651   7.291 -0.4685  2.3140  1.0414
  147MOL   H16144253   1.052   7.682   7.164 -0.5832  3.0191  0.7035
  147MOL   H16244254   1.013   7.755   7.447  2.3450  1.7432 -0.0263
  147MOL   H16344255   1.028   7.870   7.312  1.3737  0.2585 -0.8428
  147MOL   H16444256   0.893   7.761   7.328  0.3326  0.4629 -1.1643
  147MOL   H16544257   1.074   7.279   7.434 -1.6767  1.4347 -1.6224
  147MOL   H16644258   1.018   7.306   7.599 -2.4681 -0.1369  1.0299
  147MOL   C16744259   0.931   7.130   7.513  0.4491 -0.0679  0.0470
  147MOL   O16844260   0.902   7.069   7.388 -0.7409  0.0765  0.6812
  147MOL   C16944261   0.786   7.073   7.318  0.4279  0.1987 -0.1432
  147MOL   O17044262   0.680   7.122   7.362 -0.1633  0.1165 -0.4710
  147MOL   C17144263   0.778   7.018   7.180 -0.2853 -0.1909  0.1902
  147MOL   C17244264   0.779   7.126   7.075  0.3515 -0.0157  0.0045
  147MOL   C17344265   1.017   7.035   7.596 -0.5520 -1.2415 -0.3690
  147MOL   H17444266   0.834   7.145   7.562  0.6209 -0.6649  0.5828
  147MOL   H17544267   0.863   6.949   7.178  0.5918  0.8882 -0.4631
  147MOL   H17644268   0.693   6.951   7.170  0.7608 -1.4623 -0.4896
  147MOL   H17744269   0.862   7.194   7.096  1.1257 -0.3295 -1.8836
  147MOL   H17844270   0.805   7.066   6.987 -0.3498  0.7387 -0.7194
  147MOL   H17944271   0.689   7.185   7.062  0.4417  0.3652  1.0729
  147MOL   H18044272   1.114   7.018   7.549 -0.1147 -0.0751  0.0966
  147MOL   H18144273   1.041   7.090   7.688 -0.5491 -0.7407 -0.6656
  147MOL   C18244274   0.947   6.905   7.639  0.6052  0.6746  0.0353
  147MOL   O18344275   0.969   6.803   7.539 -0.6740 -0.3453 -0.2069
  147MOL   C18444276   0.858   6.750   7.493  0.0190  0.2130 -0.4584
  147MOL   O18544277   0.749   6.798   7.512  0.0328  0.1423 -0.2995
  147MOL   C18644278   0.879   6.635   7.395  0.8373 -0.0954  0.1048
  147MOL   C18744279   0.743   6.564   7.371 -0.1105  0.3205 -0.4180
  147MOL   C18844280   1.002   6.859   7.776 -0.2429  0.3048  0.1868
  147MOL   H18944281   0.844   6.932   7.664  1.6110  2.8162  2.0903
  147MOL   H19044282   0.914   6.681   7.303  0.7310  1.2888  0.7393
  147MOL   H19144283   0.946   6.558   7.433  2.1714 -0.2085 -2.3938
  147MOL   H19244284   0.745   6.478   7.305 -1.1680  0.7866 -1.0651
  147MOL   H19344285   0.696   6.535   7.465  1.1370  1.8511  0.7092
  147MOL   H19444286   0.673   6.629   7.319 -0.9630 -0.5055 -0.3127
  147MOL   H19544287   1.104   6.823   7.759 -1.1044 -1.6004 -1.1102
  147MOL   H19644288   1.017   6.950   7.835 -1.4134 -0.2362  1.3362
  147MOL   C19744289   0.917   6.754   7.856  0.6790  0.1336  0.4285
  147MOL   O19844290   1.004   6.656   7.920 -0.2234  0.4101  0.3216
  147MOL   C19944291   1.037   6.538   7.850  0.1784  0.0344 -0.0673
  147MOL   O20044292   0.969   6.500   7.754  0.3936 -0.0512 -0.0363
  147MOL   C20144293   1.153   6.463   7.915  0.1174  0.0974 -0.5026
  147MOL   C20244294   1.288   6.541   7.916 -0.3088  0.1802  0.6583
  147MOL   C20344295   0.828   6.808   0.020 -0.3079 -0.3633  0.3825
  147MOL   H20444296   0.860   6.702   7.780  2.4482  0.8865 -1.4621
  147MOL   H20544297   1.135   6.431   0.073  3.4563 -0.7279 -0.1197
  147MOL   H20644298   1.172   6.367   7.868  5.1179  1.0254 -0.7196
  147MOL   H20744299   1.370   6.495   0.025  0.3976  0.3887 -0.2282
  147MOL   H20844300   1.319   6.541   7.811 -0.5533  3.3887  0.5293
  147MOL   H20944301   1.280   6.646   0.000  0.3111 -0.1925  2.1889
  147MOL   H21044302   0.765   6.722   0.046  0.5680 -0.7092  1.3961
  147MOL   H21144303   0.894   6.841   0.100  1.1359 -0.8130 -0.6153
  147MOL   C21244304   0.735   6.924   7.930  0.0404  0.0133 -0.2678
  147MOL   O21344305   0.639   6.872   7.842 -0.5167 -0.2347  0.3310
  147MOL   C21444306   0.587   6.952   7.742  0.0613 -0.0385  0.2976
  147MOL   O21544307   0.638   7.063   7.714 -0.0805  0.0769  0.1999
  147MOL   C21644308   0.462   6.902   7.675 -0.2347  0.2329  0.4299
  147MOL   C21744309   0.365   6.817   7.756  0.7747 -0.0626  0.2878
  147MOL   C21844310   0.668   6.985   0.104 -0.2602  0.6613 -0.8847
  147MOL   H21944311   0.792   7.006   7.886 -0.8351  0.6943 -0.1394
  147MOL   H22044312   0.396   6.982   7.640 -2.0288 -0.8018  1.3639
  147MOL   H22144313   0.492   6.848   7.585  0.9281  0.9955  0.3449
  147MOL   H22244314   0.405   6.715   7.755 -2.7630 -1.4875 -1.8918
  147MOL   H22344315   0.351   6.848   7.860 -1.1037 -1.7980  0.5858
  147MOL   H22444316   0.268   6.813   7.708  1.8741  2.9953 -2.3174
  147MOL   H22544317   0.579   7.029   0.060 -1.7478  1.1318  2.4348
  147MOL   H22644318   0.633   6.898   0.160 -0.6217  0.6899 -1.0639
  147MOL   C22744319   0.750   7.085   0.196 -0.5453 -0.1351  0.5332
  147MOL   O22844320   0.732   7.203   0.124 -0.1180 -1.0370  0.6131
  147MOL   C22944321   0.831   7.292   0.109 -0.2138  0.0866 -0.2611
  147MOL   O23044322   0.945   7.285   0.158 -0.1670 -0.6804  0.1669
  147MOL   C23144323   0.788   7.410   0.028 -0.1561  0.7473  0.7199
  147MOL   C23244324   0.775   7.540   0.113 -0.5045  0.6260 -1.0431
  147MOL   C23344325   0.678   7.095   0.337  0.4954  0.6059  0.7614
  147MOL   H23444326   0.850   7.044   0.187  0.4784  2.4280 -0.1525
  147MOL   H23544327   0.858   7.422   7.890 -0.9168  0.9259  0.0986
  147MOL   H23644328   0.692   7.399   7.923  0.5635  1.9327 -0.9726
  147MOL   H23744329   0.868   7.560   0.167 -0.8861  0.7958 -0.4405
  147MOL   H23844330   0.752   7.624   0.048  0.2661  2.2630  0.7471
  147MOL   H23944331   0.698   7.543   0.190  0.4502  2.0097 -0.1008
  147MOL   H24044332   0.573   7.119   0.320  0.4808 -0.7813 -1.3499
  147MOL   H24144333   0.678   6.989   0.364  0.8910  0.0838 -1.1857
  147MOL   C24244334   0.741   7.186   0.444  0.4576  0.4499 -0.2145
  147MOL   O24344335   0.643   7.279   0.485 -0.0903  0.8541  0.3231
  147MOL   C24444336   0.656   7.414   0.470 -0.2184 -1.2790  0.1861
  147MOL   O24544337   0.762   7.470   0.425  0.1542  0.2294  0.1811
  147MOL   C24644338   0.548   7.497   0.547 -0.1551 -0.6356 -0.2113
  147MOL   C24744339   0.587   7.537   0.683  0.5779  0.8151  0.0735
  147MOL   C24844340   0.806   7.104   0.561 -0.0290 -0.0087 -1.0508
  147MOL   H24944341   0.815   7.246   0.391 -1.3213  2.5366 -0.4240
  147MOL   H25044342   0.523   7.584   0.486 -0.1832 -0.4273  0.0977
  147MOL   H25144343   0.454   7.445   0.564 -0.5662  1.0582  3.0578
  147MOL   H25244344   0.622   7.454   0.744 -1.1706  0.5127  0.6718
  147MOL   H25344345   0.676   7.600   0.675  1.0314  0.0900 -0.6526
  147MOL   H25444346   0.502   7.581   0.736  0.7919 -0.3749  1.4385
  147MOL   H25544347   0.833   7.175   0.639 -0.4162 -0.9074 -0.0880
  147MOL   H25644348   0.721   7.044   0.594  2.2071 -2.6492  0.2240
  147MOL   C25744349   0.929   7.018   0.524 -0.6470 -0.2887  0.2643
  147MOL   O25844350   1.030   7.120   0.536  0.6941  0.3440 -0.2234
  147MOL   C25944351   1.128   7.120   0.446  0.0523 -0.4861  0.1657
  147MOL   O26044352   1.129   7.050   0.346  0.1574 -0.5024 -0.5822
  147MOL   C26144353   1.242   7.211   0.474 -0.0921 -0.3632  0.2426
  147MOL   C26244354   1.345   7.236   0.360 -0.0622 -0.0227  0.1930
  147MOL   C26344355   0.966   6.907   0.627  0.2848 -0.0598 -0.3883
  147MOL   H26444356   0.909   6.976   0.426 -3.2054  0.8872  0.2401
  147MOL   H26544357   1.202   7.306   0.508  0.7711 -0.0844  0.4864
  147MOL   H26644358   1.282   7.186   0.572 -0.8339 -1.2205  0.3322
  147MOL   H26744359   1.316   7.283   0.266  2.0799 -0.4076 -0.6881
  147MOL   H26844360   1.420   7.301   0.405  1.0685 -0.7871 -0.5475
  147MOL   H26944361   1.388   7.143   0.322 -1.2232 -1.1119  1.4815
  147MOL   H27044362   0.983   6.964   0.719 -0.0939  1.0060 -0.9759
  147MOL   H27144363   0.873   6.857   0.652  0.2164  0.3849  0.2508
  147MOL   C27244364   1.073   6.796   0.596  0.2887 -0.6495 -0.1609
  147MOL   O27344365   1.074   6.729   0.717  0.3843  0.5018 -0.4767
  147MOL   C27444366   1.191   6.689   0.777 -0.0676 -0.4360  0.6033
  147MOL   O27544367   1.305   6.698   0.730 -0.2522  0.5703  0.3125
  147MOL   C27644368   1.171   6.642   0.922  0.0020  0.2313  0.0754
  147MOL   C27744369   1.271   6.707   1.023 -0.0372  0.1934  0.5865
  147MOL   C27844370   1.026   6.702   0.484  0.2468  0.3976 -0.3261
  147MOL   H27944371   1.166   6.850   0.574 -0.5459  1.6622  1.7511
  147MOL   H28044372   1.069   6.627   0.956 -1.0686  1.0400 -2.6587
  147MOL   H28144373   1.204   6.538   0.914  1.9256  0.8268  0.0253
  147MOL   H28244374   1.371   6.719   0.983 -0.9253  2.1053 -1.1922
  147MOL   H28344375   1.240   6.810   1.044  0.3937  0.2564  0.9028
  147MOL   H28444376   1.269   6.653   1.117  1.2672 -0.4327  0.2497
  147MOL   H28544377   0.969   6.624   0.535 -1.1623  1.8575  0.4000
  147MOL   H28644378   0.958   6.760   0.420  1.5241 -0.1297 -2.2050
  147MOL   C28744379   1.155   6.641   0.419 -0.7671  0.7788  0.9038
  147MOL   O28844380   1.129   6.505   0.381 -0.8971 -0.2165 -0.4751
  147MOL   C28944381   1.166   6.403   0.458  0.1819  1.2117 -0.4346
  147MOL   O29044382   1.213   6.398   0.574 -0.0805  0.0488  0.3154
  147MOL   C29144383   1.173   6.283   0.371  0.6290  0.0805 -0.1972
  147MOL   C29244384   1.197   6.152   0.441 -0.0933  0.3106  0.0696
  147MOL   C29344385   1.211   6.714   0.294 -0.0721  0.1826  0.6090
  147MOL   H29444386   1.230   6.636   0.498 -0.3083  1.7833  0.5424
  147MOL   H29544387   1.066   6.270   0.355  0.6007 -3.0226  1.8609
  147MOL   H29644388   1.230   6.301   0.280  1.6929 -0.4693  0.3381
  147MOL   H29744389   1.149   6.139   0.538 -1.8415 -0.9111 -0.9320
  147MOL   H29844390   1.136   6.078   0.390 -0.7527 -0.1030  1.4409
  147MOL   H29944391   1.295   6.107   0.422 -1.0059 -0.8718 -2.0291
  147MOL   H30044392   1.225   6.821   0.311  0.4768  0.1948  0.0848
  147MOL   H30144393   1.305   6.670   0.261  0.7172  2.2398  0.0592
  147MOL   H30244394   1.135   6.711   0.216 -1.3854  2.1847  1.7528
  148MOL     C144395   6.734   6.496   2.071 -0.0009 -0.7984  0.2700
  148MOL     O244396   6.848   6.540   1.997 -0.1622 -0.5714 -0.0182
  148MOL     C344397   6.932   6.454   1.947  0.0768  0.2881  0.5661
  148MOL     O444398   6.904   6.336   1.942  0.2257  0.2647  0.0749
  148MOL     C544399   7.052   6.507   1.884 -0.3154 -0.3243  0.1296
  148MOL     C644400   7.109   6.639   1.948  0.3198  0.3320  0.7945
  148MOL     C744401   6.619   6.463   1.982  0.6960  0.2934 -0.5495
  148MOL     H844402   6.708   6.582   2.133 -1.3003  0.5747 -2.1089
  148MOL     H944403   7.128   6.430   1.894  0.2353  0.1905 -0.1177
  148MOL    H1044404   7.037   6.524   1.777 -0.2742  0.9295  0.3168
  148MOL    H1144405   7.086   6.734   1.898  0.9158  0.1181  0.1043
  148MOL    H1244406   7.089   6.641   2.055  0.0396 -1.3773  0.7869
  148MOL    H1344407   7.217   6.638   1.934  0.0650 -2.6015 -1.2944
  148MOL    H1444408   6.561   6.555   1.972  1.6399  0.8396 -1.0899
  148MOL    H1544409   6.658   6.429   1.886 -0.0528  2.2905 -1.5903
  148MOL    H1644410   6.771   6.410   2.127  0.5154  0.0338  1.2304
  148MOL    C1744411   6.534   6.354   2.044 -0.7253 -0.2685  0.8219
  148MOL    O1844412   6.411   6.334   1.983  0.0224  0.3843  0.4953
  148MOL    C1944413   6.300   6.397   2.018  0.0068  0.8117  0.2258
  148MOL    O2044414   6.289   6.477   2.117 -0.6400  0.3523 -0.0955
  148MOL    C2144415   6.178   6.367   1.933  0.1898  0.4118 -0.1098
  148MOL    C2244416   6.113   6.238   1.979 -0.0839  0.4456 -0.5387
  148MOL    C2344417   6.615   6.214   2.030  0.2982 -0.5207 -0.1732
  148MOL    H2444418   6.516   6.375   2.149  0.9338 -0.5442  1.1587
  148MOL    H2544419   6.113   6.454   1.937  1.1189  1.0678  0.6159
  148MOL    H2644420   6.217   6.355   1.832 -0.5322 -0.9728 -0.2428
  148MOL    H2744421   6.046   6.198   1.903 -0.0118 -1.3555  0.3286
  148MOL    H2844422   6.188   6.161   1.996 -0.4294 -0.4380 -2.8930
  148MOL    H2944423   6.053   6.258   2.068  0.1287 -0.6795 -0.1382
  148MOL    H3044424   6.631   6.189   1.925  0.8954 -3.6226  0.6200
  148MOL    H3144425   6.711   6.228   2.079 -1.5229  0.9319  3.1454
  148MOL    C3244426   6.554   6.094   2.105  0.2528 -1.1218 -0.4239
  148MOL    O3344427   6.611   5.979   2.040 -0.6566  0.5196 -0.6738
  148MOL    C3444428   6.534   5.868   2.031  0.5480 -0.2098 -0.0002
  148MOL    O3544429   6.419   5.849   2.073  0.3525 -0.1166 -0.0009
  148MOL    C3644430   6.607   5.749   1.972  0.8508  1.0181  0.7361
  148MOL    C3744431   6.534   5.675   1.854  0.1568 -0.0866  0.7350
  148MOL    C3844432   6.561   6.083   2.256  0.4977  0.6778 -0.4179
  148MOL    H3944433   6.448   6.081   2.083 -0.1929  0.8535  0.3798
  148MOL    H4044434   6.696   5.797   1.930  0.9355  0.7636  0.6215
  148MOL    H4144435   6.642   5.679   2.049 -0.0455  1.7577  1.8365
  148MOL    H4244436   6.497   5.746   1.779 -1.9531 -1.4558  0.4188
  148MOL    H4344437   6.589   5.592   1.808 -0.2043  0.0288  0.0811
  148MOL    H4444438   6.447   5.630   1.901  0.8398 -1.0950  1.0416
  148MOL    H4544439   6.583   5.983   2.294 -0.2739 -0.2393 -2.3581
  148MOL    H4644440   6.644   6.145   2.293 -1.1157  1.2720  2.3250
  148MOL    C4744441   6.438   6.143   2.342 -0.5293  0.3712  0.0829
  148MOL    O4844442   6.322   6.069   2.297 -0.3451  0.3254  0.4323
  148MOL    C4944443   6.207   6.121   2.307  0.0713 -1.0426  0.5467
  148MOL    O5044444   6.183   6.241   2.323 -0.2974  0.2470 -0.3316
  148MOL    C5144445   6.094   6.018   2.294 -0.6146 -0.7961 -0.1368
  148MOL    C5244446   6.107   5.896   2.396  0.1154  0.0464 -0.7724
  148MOL    C5344447   6.468   6.117   2.491  0.7464 -0.1233  0.2036
  148MOL    H5444448   6.421   6.250   2.329  0.8480  1.0923  3.7633
  148MOL    H5544449   5.997   6.068   2.286 -0.6200 -1.1501 -3.0346
  148MOL    H5644450   6.116   5.967   2.200  2.9651 -2.5407  1.5442
  148MOL    H5744451   6.175   5.818   2.363  0.2507 -0.2595  0.2358
  148MOL    H5844452   6.128   5.924   2.499  2.3026 -0.0581 -1.1830
  148MOL    H5944453   6.012   5.845   2.410 -0.9554  2.0062 -0.6657
  148MOL    H6044454   6.368   6.109   2.535  1.4670  0.4855  2.0245
  148MOL    H6144455   6.512   6.018   2.500  0.5678 -0.2426 -0.2326
  148MOL    C6244456   6.557   6.223   2.573 -0.1468  0.1611 -0.3505
  148MOL    O6344457   6.505   6.353   2.551 -0.1815 -1.0499  0.1707
  148MOL    C6444458   6.541   6.429   2.448 -0.2552 -0.3155 -0.2930
  148MOL    O6544459   6.631   6.404   2.370 -0.2713 -0.1030 -0.9185
  148MOL    C6644460   6.443   6.552   2.430 -0.8839 -0.8046 -0.2063
  148MOL    C6744461   6.474   6.651   2.534  0.0632  0.1126  0.0133
  148MOL    C6844462   6.562   6.196   2.729  0.0456  0.4063  0.1357
  148MOL    H6944463   6.655   6.231   2.526  0.6870 -1.6191  0.9999
  148MOL    H7044464   6.449   6.595   2.330  2.5884 -1.2075 -0.2511
  148MOL    H7144465   6.342   6.516   2.448 -1.1219  0.0955  0.2457
  148MOL    H7244466   6.385   6.714   2.539 -1.3576 -1.4810 -3.7886
  148MOL    H7344467   6.505   6.615   2.632  1.0869 -1.5718 -0.9016
  148MOL    H7444468   6.546   6.727   2.502  1.3459 -0.9916  0.2423
  148MOL    H7544469   6.464   6.203   2.778 -0.1527  1.0730 -0.3517
  148MOL    H7644470   6.587   6.091   2.746  0.3801  0.4833  0.1033
  148MOL    C7744471   6.662   6.293   2.797 -0.4616  0.1427 -0.1335
  148MOL    O7844472   6.629   6.288   2.930  0.3378  0.5779 -0.5020
  148MOL    C7944473   6.554   6.379   2.990 -0.5548  0.1631 -0.0736
  148MOL    O8044474   6.505   6.473   2.936  0.2285 -0.1351 -0.0454
  148MOL    C8144475   6.537   6.356   3.137  0.2866  0.0591 -0.1496
  148MOL    C8244476   6.400   6.304   3.183  0.4125  0.0715  0.3863
  148MOL    C8344477   6.810   6.241   2.784  1.1796  0.2677 -0.0004
  148MOL    H8444478   6.653   6.392   2.753 -1.0363  0.0147 -0.3070
  148MOL    H8544479   6.614   6.283   3.161 -0.7261 -0.6380  1.0456
  148MOL    H8644480   6.563   6.440   3.201 -1.0838  0.5842 -0.2550
  148MOL    H8744481   6.379   6.219   3.118 -1.1299  0.0191  0.9296
  148MOL    H8844482   6.393   6.269   3.286  0.8554 -0.5065  0.2249
  148MOL    H8944483   6.328   6.384   3.168 -0.0910  0.0025  2.3248
  148MOL    H9044484   6.832   6.181   2.873  2.4881  1.6423  0.6220
  148MOL    H9144485   6.821   6.176   2.697  2.9745  0.6038 -0.0396
  148MOL    C9244486   6.911   6.357   2.776 -0.1533  0.5136 -0.3151
  148MOL    O9344487   6.919   6.432   2.900  0.2033  0.6972 -0.1035
  148MOL    C9444488   6.935   6.564   2.903 -0.0208 -0.3936  0.7717
  148MOL    O9544489   6.905   6.636   2.805 -0.0218  0.2183 -0.0469
  148MOL    C9644490   6.976   6.615   3.042  0.2348 -0.4553  0.1224
  148MOL    C9744491   7.092   6.717   3.025  0.2189  0.4603 -0.4653
  148MOL    C9844492   7.050   6.290   2.746 -0.5123  0.0889 -0.2808
  148MOL    H9944493   6.877   6.414   2.689 -0.6906  3.4459  1.7224
  148MOL   H10044494   6.884   6.661   3.078  0.2496 -1.1454  1.0550
  148MOL   H10144495   7.008   6.538   3.111  1.0848  1.2508  1.6798
  148MOL   H10244496   7.093   6.781   2.936 -0.0359  1.2057  0.0616
  148MOL   H10344497   7.099   6.776   3.116 -3.0048  1.9948 -1.1532
  148MOL   H10444498   7.185   6.661   3.033  0.1976  0.4039 -0.6109
  148MOL   H10544499   7.118   6.372   2.769  0.1190 -1.0979  2.3797
  148MOL   H10644500   7.060   6.207   2.817 -2.9628 -0.7319 -0.8329
  148MOL   C10744501   7.077   6.242   2.600 -0.5500  0.4461 -0.1165
  148MOL   O10844502   7.064   6.355   2.516 -0.2204 -0.0268  0.1879
  148MOL   C10944503   6.982   6.348   2.407  0.1602  0.4108  0.0279
  148MOL   O11044504   6.887   6.272   2.378  0.0486 -0.5606  0.2012
  148MOL   C11144505   7.012   6.478   2.321  0.1396 -0.0214  0.2868
  148MOL   C11244506   7.152   6.468   2.265  0.6316  0.3071 -0.4576
  148MOL   C11344507   7.227   6.207   2.588  0.4087 -0.8338 -0.1152
  148MOL   H11444508   7.004   6.165   2.574 -3.0683  1.8149  2.5456
  148MOL   H11544509   6.932   6.473   2.247 -0.0268  0.2942  0.4442
  148MOL   H11644510   6.996   6.568   2.381 -1.4514 -1.4737  2.0889
  148MOL   H11744511   7.231   6.437   2.334 -2.1279 -2.3781  1.6030
  148MOL   H11844512   7.156   6.394   2.185  1.7877 -0.5779  0.4106
  148MOL   H11944513   7.183   6.563   2.220  0.4194  2.1244  3.0383
  148MOL   H12044514   7.243   6.198   2.480 -1.9964 -4.2357 -0.2609
  148MOL   H12144515   7.287   6.290   2.625  1.9470 -2.7217  1.7551
  148MOL   C12244516   7.261   6.072   2.652 -0.4426 -0.1965 -0.4506
  148MOL   O12344517   7.207   5.981   2.555 -0.6770  0.0586 -0.2976
  148MOL   C12444518   7.158   5.861   2.588  0.1798  0.7623 -0.5952
  148MOL   O12544519   7.158   5.813   2.705  1.1452  0.5752 -0.2108
  148MOL   C12644520   7.102   5.779   2.467 -0.5980 -0.1209  0.1771
  148MOL   C12744521   6.959   5.818   2.432  0.1114 -0.3102  0.1601
  148MOL   C12844522   7.414   6.057   2.687 -0.6721 -0.0764  0.0223
  148MOL   H12944523   7.209   6.056   2.747 -0.6499 -2.3447 -0.9206
  148MOL   H13044524   7.161   5.812   2.381  1.2123  0.3255  1.5784
  148MOL   H13144525   7.116   5.672   2.481 -1.9046 -0.4671 -1.0055
  148MOL   H13244526   6.953   5.926   2.417  1.3212  0.0244  1.8653
  148MOL   H13344527   6.925   5.766   2.343  3.3177  0.6470 -1.7072
  148MOL   H13444528   6.894   5.806   2.519  0.5529  2.4147  0.9288
  148MOL   H13544529   7.421   5.950   2.705  1.1821  0.2985  1.7255
  148MOL   H13644530   7.474   6.060   2.596 -0.1954 -0.4056  0.3302
  148MOL   C13744531   7.457   6.143   2.807 -0.0262  0.1476  0.2433
  148MOL   O13844532   7.379   6.106   2.925  0.1766 -0.0103  0.0091
  148MOL   C13944533   7.295   6.185   2.977 -0.4520  0.2699  0.4688
  148MOL   O14044534   7.266   6.306   2.954  0.9164  0.4836  0.3204
  148MOL   C14144535   7.215   6.110   3.086  0.5141 -0.4237 -0.0988
  148MOL   C14244536   7.078   6.165   3.111  0.9847 -0.1797 -0.0074
  148MOL   C14344537   7.606   6.104   2.837 -0.8728 -0.0393  0.2582
  148MOL   H14444538   7.442   6.246   2.776 -3.8258 -0.6888 -0.9204
  148MOL   H14544539   7.199   6.008   3.053 -3.0075  0.6636 -2.0931
  148MOL   H14644540   7.274   6.110   3.177  0.6955 -1.3049 -0.2121
  148MOL   H14744541   7.064   6.273   3.105 -0.1332 -0.3572 -0.7565
  148MOL   H14844542   7.006   6.143   3.033  0.9644  0.6934 -0.2345
  148MOL   H14944543   7.053   6.119   3.207 -0.3263  0.2782 -0.1254
  148MOL   H15044544   7.618   5.997   2.846  0.4142 -0.0975 -1.7891
  148MOL   H15144545   7.676   6.134   2.759  1.4764  0.7284  2.6055
  148MOL   C15244546   7.664   6.162   2.971 -0.5156 -0.1180 -0.2409
  148MOL   O15344547   7.797   6.103   2.992 -0.0968 -0.6132 -0.4685
  148MOL   C15444548   7.817   6.008   3.082  0.2778 -1.1362  0.4198
  148MOL   O15544549   7.726   5.951   3.141 -0.0582 -0.4819  0.2964
  148MOL   C15644550   0.019   5.975   3.097  0.0349  0.5522  0.4305
  148MOL   C15744551   0.050   5.856   3.190  0.0316  0.2803  0.0863
  148MOL   C15844552   7.671   6.317   2.966 -0.1589  0.0971 -0.5244
  148MOL   H15944553   7.599   6.132   3.053 -0.1398 -0.7139 -0.1555
  148MOL   H16044554   0.050   5.950   2.995 -0.4583  1.1987  0.1189
  148MOL   H16144555   0.069   6.068   3.123 -1.0671  1.5423 -0.9021
  148MOL   H16244556   0.148   5.816   3.163 -0.3168 -0.2494 -0.3828
  148MOL   H16344557   0.046   5.885   3.295  0.6407  1.1488 -0.1186
  148MOL   H16444558   7.924   5.774   3.191  0.2702  0.0501 -1.5591
  148MOL   H16544559   7.719   6.348   2.873 -1.4225 -0.2222 -1.2901
  148MOL   H16644560   7.571   6.360   2.961 -0.0267  0.6396  1.1645
  148MOL   C16744561   7.734   6.394   3.081  0.1592 -0.0324 -0.0712
  148MOL   O16844562   7.876   6.370   3.085 -0.2353 -0.1160 -0.4590
  148MOL   C16944563   7.941   6.371   3.197  1.4086  0.6314 -1.0398
  148MOL   O17044564   7.891   6.384   3.312 -0.4321 -0.3609 -0.6148
  148MOL   C17144565   0.143   6.336   3.179  0.2106  0.2126  0.8705
  148MOL   C17244566   0.230   6.408   3.279 -0.0679 -0.3735 -0.1859
  148MOL   C17344567   7.710   6.546   3.081  0.1251  0.1867  0.7449
  148MOL   H17444568   7.687   6.346   3.167 -1.3720 -0.0657 -0.9252
  148MOL   H17544569   0.161   6.229   3.183  1.1948  0.3313 -0.0165
  148MOL   H17644570   0.167   6.371   3.078 -0.4004 -2.2938 -0.1698
  148MOL   H17744571   0.196   6.392   3.382  1.0795  1.0029  0.4290
  148MOL   H17844572   0.323   6.353   3.285 -0.4578 -0.9450  0.8391
  148MOL   H17944573   0.242   6.515   3.258  2.4961 -0.6416 -0.1876
  148MOL   H18044574   7.773   6.606   3.147 -0.8954  1.8983  0.1737
  148MOL   H18144575   7.714   6.587   2.980 -0.6339  0.7138  0.9259
  148MOL   C18244576   7.566   6.575   3.127  0.3772 -0.0357  0.5830
  148MOL   O18344577   7.563   6.549   3.267  0.2544  0.0905 -0.1575
  148MOL   C18444578   7.479   6.449   3.314  0.5552 -0.4616  0.2463
  148MOL   O18544579   7.409   6.373   3.246  0.0201 -0.0480  0.2198
  148MOL   C18644580   7.472   6.439   3.469 -0.1948  0.5648 -0.0742
  148MOL   C18744581   7.601   6.381   3.518  0.2111  0.1765  0.5447
  148MOL   C18844582   7.521   6.717   3.121  0.4116  0.6595 -0.0299
  148MOL   H18944583   7.494   6.509   3.077 -1.1963  1.5930  0.6632
  148MOL   H19044584   7.450   6.538   3.509  0.9894  0.2259  1.4231
  148MOL   H19144585   7.384   6.381   3.498  0.3735 -0.5823 -0.5956
  148MOL   H19244586   7.600   6.370   3.626 -0.1741 -2.7223  0.2909
  148MOL   H19344587   7.612   6.277   3.486 -2.5941 -0.2110  0.7535
  148MOL   H19444588   7.688   6.436   3.482  0.1899 -0.5408 -0.6289
  148MOL   H19544589   7.433   6.733   3.184  0.4905  0.0018  0.2452
  148MOL   H19644590   7.606   6.765   3.170  0.8101 -0.0867  0.0117
  148MOL   C19744591   7.507   6.782   2.982  0.4020 -0.4876  0.1996
  148MOL   O19844592   7.397   6.713   2.920  0.8684  0.7667 -0.1516
  148MOL   C19944593   7.414   6.622   2.821 -0.0480 -0.3687  0.5573
  148MOL   O20044594   7.520   6.579   2.789  0.0971  0.0066 -0.1916
  148MOL   C20144595   7.289   6.574   2.746 -0.3997  0.2637 -0.3089
  148MOL   C20244596   7.240   6.692   2.656  0.2286  0.5054 -0.1515
  148MOL   C20344597   7.463   6.926   2.998 -0.2846 -0.5216  0.0102
  148MOL   H20444598   7.599   6.768   2.924  1.1424  0.6759  1.0670
  148MOL   H20544599   7.315   6.489   2.683  2.6274 -0.8266  2.2410
  148MOL   H20644600   7.208   6.555   2.816  1.0382  2.8097  2.1807
  148MOL   H20744601   7.132   6.705   2.659  0.1472  1.1753 -3.4440
  148MOL   H20844602   7.297   6.783   2.677  2.2166 -1.0060  1.1605
  148MOL   H20944603   7.250   6.657   2.553 -1.7338 -0.4717 -0.0232
  148MOL   H21044604   7.367   6.924   3.050 -1.8021 -0.5231 -2.7201
  148MOL   H21144605   7.533   6.977   3.065 -0.8123  2.0395 -1.3095
  148MOL   C21244606   7.457   7.006   2.869  0.2631  0.8470 -0.0749
  148MOL   O21344607   7.341   7.100   2.885  0.1255  0.0648  0.3390
  148MOL   C21444608   7.230   7.103   2.815  0.0834 -0.6737  0.4283
  148MOL   O21544609   7.215   7.030   2.713 -0.1082 -0.3707 -0.6185
  148MOL   C21644610   7.120   7.180   2.877  0.4172 -0.2436  0.0077
  148MOL   C21744611   7.153   7.319   2.927  0.1368  0.0151 -0.1061
  148MOL   C21844612   7.579   7.092   2.827 -0.0740  0.3502 -0.2543
  148MOL   H21944613   7.430   6.934   2.793 -0.9570 -0.3476  1.4394
  148MOL   H22044614   7.040   7.186   2.803  0.1606 -1.3518  0.1958
  148MOL   H22144615   7.075   7.123   2.958  0.7090 -0.2947  0.1360
  148MOL   H22244616   7.077   7.393   2.902  0.9194  0.1962 -2.0061
  148MOL   H22344617   7.170   7.312   3.035 -0.0995 -0.0480 -0.0717
  148MOL   H22444618   7.248   7.349   2.884 -0.1700  0.1974 -0.6587
  148MOL   H22544619   7.558   7.185   2.878 -1.7285 -0.6574  0.9554
  148MOL   H22644620   7.673   7.046   2.860 -0.2557  0.8883  1.0372
  148MOL   C22744621   7.588   7.113   2.673  0.4102  0.2735 -0.7673
  148MOL   O22844622   7.477   7.207   2.637 -0.0051  0.2375 -0.3548
  148MOL   C22944623   7.426   7.207   2.512 -0.6042 -0.1234  0.3558
  148MOL   O23044624   7.460   7.127   2.426 -0.2561  0.3566  0.4151
  148MOL   C23144625   7.343   7.328   2.469 -0.1215  0.3384  0.2032
  148MOL   C23244626   7.288   7.405   2.590 -0.6262 -0.6233 -0.3393
  148MOL   C23344627   7.719   7.158   2.618  0.2151 -0.6172 -0.2979
  148MOL   H23444628   7.565   7.026   2.611  1.2401 -0.3244 -0.2416
  148MOL   H23544629   7.418   7.387   2.415  0.0258  0.8093  0.9160
  148MOL   H23644630   7.259   7.302   2.405 -0.2517 -0.9873  0.8960
  148MOL   H23744631   7.220   7.335   2.638 -0.1011 -1.6236 -1.0283
  148MOL   H23844632   7.361   7.423   2.669 -0.5659 -0.4184 -0.4415
  148MOL   H23944633   7.242   7.500   2.564 -0.4690 -0.2377  0.8023
  148MOL   H24044634   7.703   7.190   2.515 -1.3711  0.4485  0.2659
  148MOL   H24144635   7.741   7.255   2.663  0.9045 -0.6810 -0.4852
  148MOL   C24244636   7.835   7.055   2.624 -0.1532 -0.5469  0.0605
  148MOL   O24344637   7.782   6.944   2.546 -0.0880 -0.0040  0.2489
  148MOL   C24444638   7.768   6.819   2.587 -0.3385 -0.4490  0.1329
  148MOL   O24544639   7.811   6.766   2.690 -0.2450 -0.3398  0.7812
  148MOL   C24644640   7.688   6.744   2.486  0.0407 -0.0942  0.8121
  148MOL   C24744641   7.549   6.804   2.457  0.2941  0.6627 -0.0015
  148MOL   C24844642   0.022   7.106   2.572 -0.0027 -0.4448 -0.0385
  148MOL   H24944643   7.845   7.028   2.729 -0.8531  0.8355  0.4896
  148MOL   H25044644   7.734   6.744   2.387  0.9535  1.6084  1.2128
  148MOL   H25144645   7.682   6.639   2.514 -1.4378 -0.1795  0.1668
  148MOL   H25244646   7.570   6.897   2.404 -0.7017  0.1738 -1.2919
  148MOL   H25344647   7.494   6.735   2.393  0.7972 -0.6019  0.9130
  148MOL   H25444648   7.484   6.821   2.543 -0.3218  1.6593 -0.6452
  148MOL   H25544649   0.019   7.142   2.470  3.0462 -1.3967 -0.5267
  148MOL   H25644650   0.054   7.193   2.630 -1.3490 -1.0707  1.6822
  148MOL   C25744651   0.145   7.002   2.580 -0.5223 -0.2318  0.0856
  148MOL   O25844652   0.132   6.890   2.492 -0.6440 -0.5904  0.5307
  148MOL   C25944653   0.184   6.768   2.531 -0.0099 -1.0060 -0.2815
  148MOL   O26044654   0.262   6.743   2.621 -0.2368 -0.0285  0.5876
  148MOL   C26144655   0.140   6.648   2.440 -0.2290 -0.3150 -0.5790
  148MOL   C26244656   0.193   6.676   2.301 -0.2363 -0.1660  0.1122
  148MOL   C26344657   0.273   7.076   2.560 -0.4199  0.1915  0.2816
  148MOL   H26444658   0.156   6.956   2.679  0.8575 -0.5763 -0.2200
  148MOL   H26544659   0.183   6.551   2.467 -1.6732 -0.4110  1.4548
  148MOL   H26644660   0.032   6.636   2.446 -0.1680  0.1706  2.0889
  148MOL   H26744661   0.299   6.702   2.303 -0.6812  1.8816 -1.6047
  148MOL   H26844662   0.178   6.590   2.236 -1.2238  0.5430 -0.6084
  148MOL   H26944663   0.140   6.759   2.254  0.5531 -0.4210 -1.2354
  148MOL   H27044664   0.347   7.000   2.537  0.6589  1.8095 -1.8519
  148MOL   H27144665   0.258   7.130   2.466 -1.6948  0.8208  0.8398
  148MOL   C27244666   0.329   7.175   2.665  0.5623 -0.0311 -0.8395
  148MOL   O27344667   0.352   7.095   2.781 -0.5555 -0.6233 -0.0950
  148MOL   C27444668   0.332   7.141   2.903 -0.4385 -0.2239 -0.5636
  148MOL   O27544669   0.283   7.251   2.922 -0.1056 -0.0709 -0.0683
  148MOL   C27644670   0.355   7.045   3.022  0.5579  0.1235  0.6113
  148MOL   C27744671   0.474   6.953   3.011  0.4190  0.1185 -0.1197
  148MOL   C27844672   0.457   7.233   2.613 -0.6359  0.3108  0.1083
  148MOL   H27944673   0.248   7.244   2.690  1.0054  0.1187  0.2183
  148MOL   H28044674   0.361   7.108   3.111  3.4880  0.9102 -0.1074
  148MOL   H28144675   0.260   6.991   3.032  0.2845  0.6478  0.8427
  148MOL   H28244676   0.453   6.864   2.951 -1.9786  1.9401 -2.0952
  148MOL   H28344677   0.570   7.000   2.992  0.2946  0.5468  0.3180
  148MOL   H28444678   0.501   6.913   3.109 -1.3983  0.3014  0.4710
  148MOL   H28544679   0.538   7.220   2.686  0.4530  0.3791 -1.0680
  148MOL   H28644680   0.491   7.185   2.521  0.4104  1.5611 -0.1923
  148MOL   C28744681   0.452   7.387   2.603  1.0322  0.3090  0.5782
  148MOL   O28844682   0.575   7.438   2.630 -0.6065  0.3787 -0.7294
  148MOL   C28944683   0.598   7.525   2.732  0.0565  0.1290 -0.0354
  148MOL   O29044684   0.513   7.561   2.820  0.0039 -1.1346 -0.1528
  148MOL   C29144685   0.744   7.568   2.738 -0.0352 -0.5326  0.3471
  148MOL   C29244686   0.792   7.656   2.857  0.8622  0.1265  0.4459
  148MOL   C29344687   0.400   7.434   2.469 -0.0417 -0.2655  0.5819
  148MOL   H29444688   0.377   7.414   2.677 -0.4599 -1.2760 -0.2962
  148MOL   H29544689   0.784   7.466   2.731 -2.1769 -1.2967 -1.4664
  148MOL   H29644690   0.771   7.621   2.647 -0.2904  1.4393  1.3870
  148MOL   H29744691   0.714   7.722   2.894 -1.0343 -0.6095 -2.0635
  148MOL   H29844692   0.830   7.589   2.934  0.2456 -0.5412  0.1695
  148MOL   H29944693   0.883   7.710   2.829  1.8517 -1.2654  0.9113
  148MOL   H30044694   0.292   7.415   2.472 -0.1482  0.3553  0.7359
  148MOL   H30144695   0.412   7.542   2.466  0.3663 -0.3297 -0.1034
  148MOL   H30244696   0.441   7.378   2.385  0.8702  1.6600 -0.2729
  149MOL     C144697   4.148   5.056   5.810  0.7140  0.6071 -0.4539
  149MOL     O244698   4.035   5.023   5.897 -0.3399  0.1171 -0.1230
  149MOL     C344699   3.920   4.992   5.830  0.2824  0.0607  0.3706
  149MOL     O444700   3.907   4.984   5.710  0.1836  0.1071  0.1563
  149MOL     C544701   3.804   4.963   5.923 -0.5622  0.8621  0.4780
  149MOL     C644702   3.807   5.047   6.049 -0.1975  0.0378 -0.3761
  149MOL     C744703   4.255   5.114   5.898 -0.1646 -0.3226 -0.5265
  149MOL     H844704   4.120   5.135   5.740  1.4599  0.4540 -0.9331
  149MOL     H944705   3.710   4.978   5.869 -2.0768  3.7113  3.6857
  149MOL    H1044706   3.811   4.855   5.931  1.0977  0.8619 -0.7746
  149MOL    H1144707   3.812   5.151   6.017 -0.6713  0.9153  2.2719
  149MOL    H1244708   3.713   5.043   6.104 -0.5575 -0.7000 -1.0406
  149MOL    H1344709   3.893   5.030   6.114  1.2989  2.8622 -1.5445
  149MOL    H1444710   4.272   5.045   5.981  2.2713  0.7548 -0.0974
  149MOL    H1544711   4.349   5.106   5.843 -0.6355 -3.2931 -1.0070
  149MOL    H1644712   4.178   4.963   5.761 -0.8853 -1.6856  2.7083
  149MOL    C1744713   4.231   5.255   5.965  0.9241  0.8757 -0.0066
  149MOL    O1844714   4.211   5.355   5.870  0.2798  0.4381  0.0978
  149MOL    C1944715   4.295   5.462   5.876  0.0817 -0.8864 -0.0921
  149MOL    O2044716   4.378   5.487   5.959  0.0721  0.2697  0.2725
  149MOL    C2144717   4.298   5.553   5.754 -0.3850 -0.5630  0.1728
  149MOL    C2244718   4.300   5.701   5.792 -0.1014 -0.9482 -0.0240
  149MOL    C2344719   4.104   5.265   6.061  0.0512 -0.0485 -0.2728
  149MOL    H2444720   4.314   5.284   6.029  0.3817 -0.3295  1.2658
  149MOL    H2544721   4.391   5.541   5.698  0.8878 -4.1755  2.8717
  149MOL    H2644722   4.215   5.534   5.687 -0.1399 -0.1128 -0.2659
  149MOL    H2744723   4.203   5.737   5.826 -0.7139 -1.2106 -1.4793
  149MOL    H2844724   4.351   5.717   5.887 -0.4483  0.1749 -0.0185
  149MOL    H2944725   4.339   5.771   5.718 -0.1643 -0.6730  0.2002
  149MOL    H3044726   4.009   5.271   6.007  1.2111  0.1449 -2.3262
  149MOL    H3144727   4.090   5.170   6.111  2.5371 -0.8346 -1.0075
  149MOL    C3244728   4.097   5.383   6.165  0.1804 -0.6241  1.2448
  149MOL    O3344729   3.965   5.441   6.170  0.1911  0.0108 -0.3505
  149MOL    C3444730   3.923   5.525   6.073 -0.0191  0.4991 -0.7601
  149MOL    O3544731   3.977   5.569   5.979  0.6779  0.0084 -0.3060
  149MOL    C3644732   3.789   5.577   6.112 -0.1386  0.0225  0.1364
  149MOL    C3744733   3.678   5.479   6.174  0.5259 -0.2679  0.2518
  149MOL    C3844734   4.126   5.331   6.307  0.1975  0.1935  0.5659
  149MOL    H3944735   4.169   5.461   6.140  1.6961 -2.0604  1.0105
  149MOL    H4044736   3.808   5.655   6.186 -1.4321 -0.5982  1.1635
  149MOL    H4144737   3.758   5.626   6.020  0.8371  1.7596  0.6972
  149MOL    H4244738   3.671   5.385   6.119  2.3962  0.5139 -1.3732
  149MOL    H4344739   3.681   5.458   6.281 -1.9338 -3.4129 -0.2275
  149MOL    H4444740   3.584   5.534   6.160  0.5374 -0.6388 -1.2862
  149MOL    H4544741   4.106   5.412   6.377 -0.2902  0.8383 -0.3054
  149MOL    H4644742   4.046   5.259   6.328 -0.1691 -0.3195 -2.3302
  149MOL    C4744743   4.265   5.258   6.322 -0.3948  0.4155  0.3081
  149MOL    O4844744   4.369   5.353   6.303  0.3771  0.0061  0.1298
  149MOL    C4944745   4.482   5.311   6.228 -0.1861 -0.4873  0.1769
  149MOL    O5044746   4.488   5.205   6.164 -0.2340 -0.1664  0.1384
  149MOL    C5144747   4.602   5.411   6.247 -0.1385 -0.0603  0.1326
  149MOL    C5244748   4.726   5.342   6.305 -0.2677 -0.4137 -0.9960
  149MOL    C5344749   4.280   5.208   6.465 -0.0428 -0.1497  0.0145
  149MOL    H5444750   4.272   5.170   6.258 -0.0407  0.4362  0.3205
  149MOL    H5544751   4.626   5.456   6.151 -0.3207  3.6027  1.7061
  149MOL    H5644752   4.576   5.499   6.306 -1.8606  1.6015 -2.9521
  149MOL    H5744753   4.808   5.415   6.304  0.0979 -0.8202 -0.7596
  149MOL    H5844754   4.706   5.320   6.410 -0.9400  1.3050 -0.7325
  149MOL    H5944755   4.769   5.263   6.245 -0.0145 -0.5786 -0.6018
  149MOL    H6044756   4.383   5.183   6.490  0.6176  2.0284 -0.4606
  149MOL    H6144757   4.248   5.282   6.538  0.5881  1.1821 -1.0366
  149MOL    C6244758   4.192   5.083   6.497 -0.7426 -0.5326  0.3966
  149MOL    O6344759   4.240   4.979   6.418  0.1352  0.0653 -0.3329
  149MOL    C6444760   4.167   4.909   6.330 -0.3097 -0.3097  0.5772
  149MOL    O6544761   4.048   4.934   6.300  0.2404  0.0149 -0.2280
  149MOL    C6644762   4.255   4.805   6.260  0.3058  0.4286 -0.0424
  149MOL    C6744763   4.189   4.745   6.128 -0.5086 -1.0329  0.3108
  149MOL    C6844764   4.197   5.039   6.645 -0.1516 -1.1317  0.2427
  149MOL    H6944765   4.089   5.114   6.482 -0.3517  2.0017  2.5063
  149MOL    H7044766   4.343   4.862   6.230 -0.1759  2.0184  1.4870
  149MOL    H7144767   4.290   4.728   6.329 -0.6336 -1.4850 -1.6476
  149MOL    H7244768   4.096   4.793   6.098 -0.6009 -2.6206 -2.0810
  149MOL    H7344769   4.258   4.747   6.043  0.5813 -1.3574  1.1781
  149MOL    H7444770   4.172   4.645   6.165 -0.7955 -0.0680  2.8811
  149MOL    H7544771   4.139   4.947   6.653  1.2097 -2.3652 -3.3685
  149MOL    H7644772   4.298   5.014   6.676 -0.3450 -2.7542 -0.3847
  149MOL    C7744773   4.114   5.135   6.746  0.2288 -0.4544 -0.7832
  149MOL    O7844774   3.970   5.120   6.732 -0.3732 -0.1486  0.0472
  149MOL    C7944775   3.893   5.211   6.667 -0.4415 -0.5730 -0.0350
  149MOL    O8044776   3.933   5.316   6.617  0.0588 -0.1518  0.5255
  149MOL    C8144777   3.747   5.181   6.669  0.6241 -0.0612 -0.2845
  149MOL    C8244778   3.641   5.297   6.651  0.1208 -0.5164 -0.0857
  149MOL    C8344779   4.150   5.116   6.895 -0.4804  0.0048  0.0069
  149MOL    H8444780   4.133   5.240   6.722 -1.3331  0.3217  1.2319
  149MOL    H8544781   3.726   5.108   6.590  1.2634  0.2402 -0.7375
  149MOL    H8644782   3.723   5.126   6.759  3.1522 -1.9402 -0.7186
  149MOL    H8744783   3.639   5.349   6.555  0.3472 -1.7904 -0.7926
  149MOL    H8844784   3.535   5.279   6.670 -0.4222  0.4983 -1.9759
  149MOL    H8944785   3.667   5.378   6.720  1.0331 -1.4388  0.6675
  149MOL    H9044786   4.097   5.187   6.959 -0.4671 -1.7552  2.0414
  149MOL    H9144787   4.131   5.013   6.927  2.0703 -0.5540 -0.2222
  149MOL    C9244788   4.294   5.153   6.940  0.4603  0.6254 -0.0998
  149MOL    O9344789   4.317   5.287   6.912 -0.3738 -0.4069 -0.1534
  149MOL    C9444790   4.386   5.337   6.807 -0.6356 -0.2698 -0.2377
  149MOL    O9544791   4.438   5.268   6.719  0.4500 -0.3219  0.1051
  149MOL    C9644792   4.387   5.487   6.821 -0.5638  0.1861  0.3059
  149MOL    C9744793   4.250   5.556   6.857 -0.1595  0.0594 -0.4966
  149MOL    C9844794   4.323   5.134   7.094 -0.4999  0.4895  0.5117
  149MOL    H9944795   4.360   5.079   6.895 -1.4648 -1.6102  0.6623
  149MOL   H10044796   4.463   5.516   6.893 -1.4772  0.6695  1.0911
  149MOL   H10144797   4.421   5.525   6.725 -0.4772 -1.7557 -0.4419
  149MOL   H10244798   4.179   5.541   6.776 -0.3682  1.2296 -0.5306
  149MOL   H10344799   4.212   5.513   6.950  1.7476 -1.7541 -0.5140
  149MOL   H10444800   4.257   5.663   6.878 -2.4597 -0.0770  1.1233
  149MOL   H10544801   4.335   5.028   7.117 -1.4221 -0.1811 -1.9978
  149MOL   H10644802   4.425   5.172   7.094 -1.0073  1.8667  0.5500
  149MOL   C10744803   4.241   5.222   7.190  0.3908  0.1086 -0.1280
  149MOL   O10844804   4.106   5.190   7.201 -0.3506 -0.6121 -0.1875
  149MOL   C10944805   4.056   5.070   7.225 -0.4077  0.2843 -0.4768
  149MOL   O11044806   4.128   4.970   7.260  0.1805  0.1192  0.2867
  149MOL   C11144807   3.905   5.064   7.216 -0.2854  0.2360 -0.1033
  149MOL   C11244808   3.870   4.994   7.088 -0.3010  0.5242  0.0773
  149MOL   C11344809   4.299   5.233   7.332 -0.3675  0.2596  0.5878
  149MOL   H11444810   4.251   5.316   7.135 -1.7806 -0.7587 -2.1017
  149MOL   H11544811   3.858   5.025   7.306  0.3126 -2.1481 -0.8050
  149MOL   H11644812   3.867   5.166   7.210  1.8281  1.0294 -0.7275
  149MOL   H11744813   3.916   5.050   7.007 -0.0298 -1.0072 -0.8550
  149MOL   H11844814   3.896   4.888   7.092  0.2413  0.6959  1.0101
  149MOL   H11944815   3.763   4.999   7.065 -0.2628 -1.4289 -0.6354
  149MOL   H12044816   4.283   5.148   7.398  0.3543 -0.2422  0.1206
  149MOL   H12144817   4.408   5.241   7.329 -0.3413  0.7195  2.2486
  149MOL   C12244818   4.257   5.365   7.404  0.7018  0.0527  0.6815
  149MOL   O12344819   4.121   5.343   7.439  0.4080 -0.5881  0.4156
  149MOL   C12444820   4.029   5.450   7.433  0.3055 -1.2104 -0.0114
  149MOL   O12544821   4.050   5.569   7.406  0.2265  0.1213  0.4269
  149MOL   C12644822   3.889   5.396   7.461  0.3370 -0.7218 -0.1210
  149MOL   C12744823   3.865   5.336   7.596 -0.0086 -0.3896 -0.6547
  149MOL   C12844824   4.344   5.386   7.536  0.6911 -0.4831  0.4800
  149MOL   H12944825   4.263   5.452   7.338 -1.6229 -0.4055 -0.1780
  149MOL   H13044826   3.814   5.470   7.433  0.3324 -0.3690  0.8200
  149MOL   H13144827   3.879   5.314   7.389 -0.3192 -2.3472  1.7841
  149MOL   H13244828   3.778   5.271   7.594 -2.1246  2.3570 -0.4188
  149MOL   H13344829   3.948   5.283   7.643 -0.0032 -0.6705 -0.9782
  149MOL   H13444830   3.824   5.414   7.661  1.1124 -2.1606  2.3014
  149MOL   H13544831   4.328   5.302   7.603  0.2379 -1.3697 -0.7138
  149MOL   H13644832   4.449   5.364   7.522  0.3527 -1.6940 -0.2110
  149MOL   C13744833   4.325   5.525   7.600 -0.2082 -0.3443  0.8696
  149MOL   O13844834   4.400   5.534   7.720 -0.8717  0.1104  0.3671
  149MOL   C13944835   4.341   5.496   7.837 -0.0615  0.4356 -0.4735
  149MOL   O14044836   4.227   5.459   7.847 -0.1462 -0.4314  0.0359
  149MOL   C14144837   4.431   5.516   0.011  0.4086  0.6375  0.7879
  149MOL   C14244838   4.451   5.667   0.033 -0.1561 -0.4163 -0.4445
  149MOL   C14344839   4.377   5.646   7.522 -0.0836 -0.1151  0.0773
  149MOL   H14444840   4.221   5.552   7.615 -0.2540 -0.5732  0.9604
  149MOL   H14544841   4.400   5.460   0.099 -0.8196 -0.8578 -0.5580
  149MOL   H14644842   4.527   5.468   7.935 -0.1284 -0.0559 -0.1526
  149MOL   H14744843   4.495   5.691   0.130  2.0132  0.0232 -1.5032
  149MOL   H14844844   4.496   5.717   7.892  0.8383 -0.1225  0.2384
  149MOL   H14944845   4.354   5.711   0.053  0.2812  0.1568  0.4466
  149MOL   H15044846   4.306   5.673   7.443 -1.3592 -1.1053  0.8549
  149MOL   H15144847   4.384   5.737   7.582 -0.2923  0.0987 -0.2201
  149MOL   C15244848   4.513   5.638   7.444  0.1012  0.2257 -0.1245
  149MOL   O15344849   4.504   5.728   7.331 -0.4694  0.3654  0.8589
  149MOL   C15444850   4.445   5.691   7.209  0.5604  0.8423 -0.4276
  149MOL   O15544851   4.407   5.579   7.180  0.6680  0.4975  0.7716
  149MOL   C15644852   4.443   5.808   7.111  0.3676 -1.0398  0.0051
  149MOL   C15744853   4.340   5.907   7.155 -0.6520  0.3551 -0.6074
  149MOL   C15844854   4.633   5.661   7.533  0.6447  0.1802  0.4404
  149MOL   H15944855   4.525   5.535   7.410  0.9902  0.4129 -0.3836
  149MOL   H16044856   4.538   5.854   7.136 -1.7929  1.8364  3.5325
  149MOL   H16144857   4.441   5.777   7.007  0.6403  1.9669 -0.9456
  149MOL   H16244858   4.351   5.929   7.262 -1.8980 -0.6922 -0.2493
  149MOL   H16344859   4.349   5.999   7.098  1.8101  2.3042  2.6991
  149MOL   H16444860   4.248   5.852   7.135 -0.1804 -0.3386 -0.8592
  149MOL   H16544861   4.620   5.747   7.600 -1.0865 -0.8791  1.4945
  149MOL   H16644862   4.643   5.575   7.599 -0.0716  0.3962  0.8295
  149MOL   C16744863   4.759   5.671   7.443  0.1028  0.5239 -0.9323
  149MOL   O16844864   4.771   5.811   7.420  0.0259  0.0956 -0.1650
  149MOL   C16944865   4.786   5.864   7.290  0.1361  0.2025  0.8341
  149MOL   O17044866   4.791   5.798   7.184 -0.0091  0.0313  0.2593
  149MOL   C17144867   4.827   6.011   7.299  0.4249 -0.0393 -0.4204
  149MOL   C17244868   4.703   6.103   7.309 -0.6734  0.3890  0.4443
  149MOL   C17344869   4.897   5.612   7.503 -0.5693 -0.0093 -0.3002
  149MOL   H17444870   4.739   5.613   7.353 -1.5720  1.0620 -0.9319
  149MOL   H17544871   4.897   6.025   7.381 -0.3941 -0.6054  0.3862
  149MOL   H17644872   4.881   6.014   7.204  1.0156 -0.2061 -0.0870
  149MOL   H17744873   4.684   6.128   7.413  2.0037 -1.7588  1.5240
  149MOL   H17844874   4.721   6.197   7.257  0.7019  0.1782  0.5162
  149MOL   H17944875   4.620   6.064   7.250 -0.2355 -0.2544  0.2406
  149MOL   H18044876   4.977   5.657   7.444  0.8312 -0.5376  1.1688
  149MOL   H18144877   4.911   5.641   7.607  2.2129 -0.5910 -0.4731
  149MOL   C18244878   4.901   5.455   7.503  0.4048  0.5801  0.2718
  149MOL   O18344879   4.891   5.403   7.366  0.7741  0.0232  0.1965
  149MOL   C18444880   4.783   5.342   7.314 -0.2001 -0.8465 -0.3183
  149MOL   O18544881   4.672   5.350   7.365 -0.1005 -0.2549  0.1461
  149MOL   C18644882   4.812   5.280   7.178 -0.3698  0.0901  0.6337
  149MOL   C18744883   4.888   5.143   7.179  0.3317  0.3520 -0.1238
  149MOL   C18844884   5.019   5.388   7.577 -0.3730 -0.8610  0.0208
  149MOL   H18944885   4.810   5.434   7.558  0.9128  0.5675  1.1083
  149MOL   H19044886   4.714   5.268   7.131 -0.2145 -1.7391  0.7304
  149MOL   H19144887   4.850   5.348   7.102 -2.2309  1.4271  0.8709
  149MOL   H19244888   4.822   5.075   7.232  2.1935 -0.7064  0.8972
  149MOL   H19344889   4.911   5.116   7.075 -0.9219 -0.3627 -0.2259
  149MOL   H19444890   4.984   5.153   7.230  0.1398  0.8603  0.1354
  149MOL   H19544891   5.040   5.436   7.673 -2.1003  0.9446 -0.4497
  149MOL   H19644892   4.977   5.292   7.605  0.8641 -1.5280 -0.3892
  149MOL   C19744893   5.148   5.388   7.486 -0.2472 -0.0617  0.3804
  149MOL   O19844894   5.194   5.508   7.430  0.1898 -0.0269  0.1076
  149MOL   C19944895   5.246   5.517   7.297 -0.5545  0.4422 -0.5080
  149MOL   O20044896   5.256   5.424   7.225 -0.1097  0.0716  0.2361
  149MOL   C20144897   5.310   5.651   7.264 -0.2136 -0.5753 -0.4470
  149MOL   C20244898   5.203   5.765   7.269 -0.0040  0.1711 -0.0812
  149MOL   C20344899   5.256   5.340   7.581 -0.9539  0.5049 -1.1648
  149MOL   H20444900   5.127   5.312   7.411 -3.5005  0.1208  1.0271
  149MOL   H20544901   5.398   5.673   7.325  0.2995  1.5614 -1.9100
  149MOL   H20644902   5.347   5.642   7.162  1.0232  2.0993 -0.2864
  149MOL   H20744903   5.105   5.739   7.229  0.6367 -0.5945 -1.1995
  149MOL   H20844904   5.169   5.785   7.370 -0.5974  2.0685 -0.6302
  149MOL   H20944905   5.237   5.865   7.240  0.7419 -0.1102 -0.1889
  149MOL   H21044906   5.283   5.415   7.655 -0.8243  0.3127 -1.0168
  149MOL   H21144907   5.221   5.251   7.634  3.4642 -0.4641  0.2955
  149MOL   C21244908   5.383   5.285   7.515  0.0167  0.7380  0.7433
  149MOL   O21344909   5.485   5.273   7.615  0.6166 -0.3033  0.0632
  149MOL   C21444910   5.568   5.377   7.631 -0.4611  0.2423 -0.2565
  149MOL   O21544911   5.567   5.482   7.571  0.1525  0.1684  0.3706
  149MOL   C21644912   5.668   5.368   7.749  0.3796 -0.5411  0.4765
  149MOL   C21744913   5.801   5.340   7.680  0.3862 -0.2243  0.4598
  149MOL   C21844914   5.368   5.146   7.437  0.0933 -0.8046  0.0661
  149MOL   H21944915   5.417   5.363   7.447 -2.9347  1.1581 -0.3434
  149MOL   H22044916   5.682   5.466   7.794  0.2446 -0.3485  0.0935
  149MOL   H22144917   5.636   5.300   7.828 -2.0265 -1.4865 -1.2494
  149MOL   H22244918   5.823   5.396   7.589 -1.7059  0.6579  0.4622
  149MOL   H22344919   5.884   5.370   7.744 -0.0223  0.8871  0.4735
  149MOL   H22444920   5.810   5.232   7.662 -0.1771 -0.1927 -0.0420
  149MOL   H22544921   5.338   5.062   7.499 -1.6519  1.5469  2.5334
  149MOL   H22644922   5.284   5.153   7.368  0.6164 -0.6682 -0.5644
  149MOL   C22744923   5.502   5.109   7.369 -0.3817  0.4981  0.4760
  149MOL   O22844924   5.507   4.967   7.336  0.4883  0.2767  0.1957
  149MOL   C22944925   5.611   4.895   7.365  0.0358  0.4094  0.1105
  149MOL   O23044926   5.719   4.929   7.414 -0.0262 -0.2882 -0.4303
  149MOL   C23144927   5.584   4.748   7.341  0.8260 -0.2468  0.3637
  149MOL   C23244928   5.713   4.669   7.299  0.1641 -0.3626 -0.0610
  149MOL   C23344929   5.531   5.178   7.232  0.4587  0.6195 -0.0249
  149MOL   H23444930   5.581   5.128   7.442 -2.3127  2.3525  2.1517
  149MOL   H23544931   5.538   4.709   7.431  1.9740  0.0088  1.0701
  149MOL   H23644932   5.514   4.761   7.258  1.9542  0.1638 -0.5414
  149MOL   H23744933   5.691   4.562   7.307 -0.0448 -0.4378 -1.4048
  149MOL   H23844934   5.740   4.685   7.194  1.0904 -0.2671  0.1862
  149MOL   H23944935   5.798   4.694   7.362  0.1603 -1.1982  0.2778
  149MOL   H24044936   5.490   5.125   7.146  0.7432  0.2514  0.0628
  149MOL   H24144937   5.485   5.277   7.225  0.6691  0.6682 -0.7382
  149MOL   C24244938   5.685   5.186   7.192  0.1398  0.6466 -0.1504
  149MOL   O24344939   5.696   5.237   7.060 -0.1304  0.5145  0.3556
  149MOL   C24444940   5.724   5.156   6.955  0.1226  0.8370 -0.3219
  149MOL   O24544941   5.730   5.029   6.963  0.3362 -0.6600  0.4850
  149MOL   C24644942   5.751   5.245   6.836  0.4485  0.1992  0.0292
  149MOL   C24744943   5.888   5.312   6.837 -0.2701 -0.2574  0.1813
  149MOL   C24844944   5.757   5.297   7.273  0.0699 -0.2127 -0.1797
  149MOL   H24944945   5.732   5.088   7.199  2.2507  1.7523  1.6940
  149MOL   H25044946   5.733   5.180   6.751  2.0641 -1.1397  0.6789
  149MOL   H25144947   5.677   5.324   6.826 -0.0225 -0.2988 -0.4601
  149MOL   H25244948   5.921   5.357   6.744  1.3558 -1.6754  0.0548
  149MOL   H25344949   5.888   5.388   6.916  0.5167  2.6347 -2.4829
  149MOL   H25444950   5.958   5.233   6.864  1.0992  1.7309  2.7415
  149MOL   H25544951   5.722   5.395   7.241 -1.0937 -0.1043  1.3367
  149MOL   H25644952   5.728   5.305   7.378  1.2011  0.6502  0.0813
  149MOL   C25744953   5.907   5.285   7.277 -0.5597 -0.5360 -0.7712
  149MOL   O25844954   5.967   5.406   7.334 -0.5225  0.3886  0.1496
  149MOL   C25944955   6.069   5.465   7.274 -0.5189 -0.4600  0.3067
  149MOL   O26044956   6.110   5.421   7.170  0.2646 -0.1242 -0.1403
  149MOL   C26144957   6.116   5.585   7.350  0.6527  0.9498  0.6382
  149MOL   C26244958   6.263   5.570   7.383 -0.9912 -0.2807 -0.2939
  149MOL   C26344959   5.956   5.160   7.355  0.5073 -0.7234 -0.7351
  149MOL   H26444960   5.927   5.264   7.172 -0.4327  1.2045 -1.1014
  149MOL   H26544961   6.094   5.679   7.300  1.4374  1.4293  1.1749
  149MOL   H26644962   6.060   5.585   7.444  0.4521 -0.5201  0.5234
  149MOL   H26744963   6.283   5.655   7.448  0.5494 -2.4478  2.1502
  149MOL   H26844964   6.285   5.483   7.444 -0.0738  0.5732  0.6016
  149MOL   H26944965   6.326   5.577   7.294  0.3210  0.6245  0.6932
  149MOL   H27044966   5.959   5.183   7.462  0.1343 -1.0706 -0.6497
  149MOL   H27144967   5.882   5.080   7.361  0.5208 -0.7866 -1.4146
  149MOL   C27244968   6.087   5.091   7.307  0.0425  0.7776  0.2972
  149MOL   O27344969   6.128   5.026   7.425 -0.3583 -0.5167  0.4620
  149MOL   C27444970   6.241   5.066   7.488  0.4520  0.0334 -0.5532
  149MOL   O27544971   6.310   5.161   7.460 -0.2096 -0.0614 -0.1660
  149MOL   C27644972   6.289   4.971   7.600 -0.2048 -0.0254  0.2857
  149MOL   C27744973   6.191   4.958   7.720 -0.5325  0.5369  0.0544
  149MOL   C27844974   6.053   4.991   7.194  0.4495 -0.1579  0.5279
  149MOL   H27944975   6.146   5.177   7.276 -0.2988  0.7409 -0.4743
  149MOL   H28044976   6.339   4.879   7.570  1.5466  1.4143 -1.3521
  149MOL   H28144977   6.383   5.010   7.640  0.2571 -0.8519  0.0211
  149MOL   H28244978   6.146   4.862   7.697  2.3614 -0.6372 -1.0130
  149MOL   H28344979   6.258   4.944   7.805 -0.9880 -0.4854  0.2586
  149MOL   H28444980   6.133   5.047   7.742 -0.3826  1.2115 -2.1720
  149MOL   H28544981   6.017   4.896   7.235  1.9715 -1.3376 -0.8041
  149MOL   H28644982   5.980   5.023   7.120 -0.2381  2.1059  2.1386
  149MOL   C28744983   6.179   4.946   7.113 -0.7019  0.5505 -0.2406
  149MOL   O28844984   6.180   4.812   7.062  0.2687  0.3162 -0.6711
  149MOL   C28944985   6.232   4.706   7.128  0.4664 -0.7421  0.5144
  149MOL   O29044986   6.291   4.717   7.232  0.0278 -0.3099 -0.4443
  149MOL   C29144987   6.212   4.561   7.068 -0.1371 -1.2609  0.1713
  149MOL   C29244988   6.280   4.552   6.930  0.6978 -0.5407  0.4370
  149MOL   C29344989   6.208   5.039   6.997 -0.0862  0.1117  0.0129
  149MOL   H29444990   6.264   4.960   7.179 -0.5207  0.0902 -0.3702
  149MOL   H29544991   6.272   4.511   7.144 -0.0831 -1.5032 -0.0322
  149MOL   H29644992   6.109   4.527   7.072 -0.5631  0.1549  1.7908
  149MOL   H29744993   6.264   4.453   6.888  0.1081 -0.2328 -0.0665
  149MOL   H29844994   6.249   4.628   6.858  1.0885 -0.5237  0.2859
  149MOL   H29944995   6.386   4.575   6.941  0.5786 -0.0371  0.5454
  149MOL   H30044996   6.126   5.031   6.926  0.0699 -0.4604 -0.1045
  149MOL   H30144997   6.221   5.139   7.037 -0.3031 -0.5732  1.8578
  149MOL   H30244998   6.295   4.995   6.948 -1.1119 -1.6692 -0.2490
  150MOL     C144999   0.280   5.515   1.662  0.1175  0.4662 -0.0815
  150MOL     O245000   0.330   5.623   1.740 -0.1317  0.1596  0.0784
  150MOL     C345001   0.289   5.747   1.700 -0.7276  0.2909 -0.2174
  150MOL     O445002   0.247   5.771   1.590 -0.1415 -0.2067  0.2829
  150MOL     C545003   0.310   5.855   1.813  0.2393  0.4793 -0.2322
  150MOL     C645004   0.248   5.991   1.778  0.3492  0.3568  0.7416
  150MOL     C745005   0.379   5.466   1.559 -0.4721 -0.2907  0.0165
  150MOL     H845006   0.187   5.538   1.610 -0.7305 -0.8444  0.8134
  150MOL     H945007   0.276   5.821   1.910 -0.8694  1.2467 -0.3412
  150MOL    H1045008   0.417   5.867   1.830  0.5803  1.0820 -2.5998
  150MOL    H1145009   0.142   5.966   1.782  0.4551 -0.2080  0.0677
  150MOL    H1245010   0.265   6.056   1.864  1.6392  0.9309  0.0666
  150MOL    H1345011   0.271   6.043   1.685 -2.6019  1.3334  0.5090
  150MOL    H1445012   0.429   5.553   1.515  1.0223 -1.1973 -0.0880
  150MOL    H1545013   0.459   5.416   1.614 -1.5247  0.4042  2.2515
  150MOL    H1645014   0.246   5.432   1.723 -1.4626  0.8600 -0.4090
  150MOL    C1745015   0.325   5.374   1.448  0.5742  0.6158  0.0970
  150MOL    O1845016   0.276   5.442   1.334  0.8193  0.0343  0.0290
  150MOL    C1945017   0.141   5.461   1.313 -0.3577 -0.7372  0.0399
  150MOL    O2045018   0.046   5.422   1.383 -0.4838  0.0661  0.2745
  150MOL    C2145019   0.117   5.537   1.182  0.8438 -0.1307 -0.7109
  150MOL    C2245020   0.165   5.462   1.049  0.0582 -0.8665 -0.1982
  150MOL    C2345021   0.426   5.277   1.389 -0.2790 -0.1345  0.0512
  150MOL    H2445022   0.246   5.319   1.498 -0.1386  0.1814 -1.4693
  150MOL    H2545023   0.010   5.559   1.175  0.3786  0.0347  4.5379
  150MOL    H2645024   0.167   5.633   1.191 -0.4992  0.5467 -0.3634
  150MOL    H2745025   0.219   5.526   0.979 -1.8488 -0.0021 -0.9088
  150MOL    H2845026   0.232   5.379   1.070 -0.3005 -1.2179 -0.4426
  150MOL    H2945027   0.078   5.419   0.999 -1.4881  1.1071  0.6999
  150MOL    H3045028   0.388   5.231   1.298  0.4361 -0.3295 -0.1512
  150MOL    H3145029   0.520   5.320   1.354  0.7207 -2.0635  0.2404
  150MOL    C3245030   0.442   5.158   1.494 -0.6120 -0.4144  0.0026
  150MOL    O3345031   0.322   5.094   1.509  0.4830 -0.3446 -0.2505
  150MOL    C3445032   0.244   5.099   1.616 -0.0680  0.4105 -0.6623
  150MOL    O3545033   0.269   5.153   1.725  0.2309 -0.1821  1.1132
  150MOL    C3645034   0.113   5.027   1.598  0.1788 -0.0761 -0.9762
  150MOL    C3745035   0.018   5.115   1.520 -0.0296  0.2928  0.0373
  150MOL    C3845036   0.552   5.060   1.447 -0.4158 -0.4229 -0.1288
  150MOL    H3945037   0.476   5.190   1.592 -0.8552 -0.7658  0.2010
  150MOL    H4045038   0.129   4.935   1.542 -1.6874 -2.0358  1.6025
  150MOL    H4145039   0.067   4.999   1.692  1.7338  2.3695  0.5593
  150MOL    H4245040   7.893   5.163   1.589  1.6104 -0.3851  2.2151
  150MOL    H4345041   0.070   5.189   1.458  0.1827  0.9442  0.9762
  150MOL    H4445042   7.900   5.054   1.455  1.5813 -0.6053 -0.6936
  150MOL    H4545043   0.561   4.960   1.490 -1.0929 -1.1559 -1.6463
  150MOL    H4645044   0.513   5.037   1.348 -2.7532 -0.1244  0.6967
  150MOL    C4745045   0.702   5.115   1.447  0.6458  0.4382  0.6041
  150MOL    O4845046   0.765   5.106   1.572 -0.2461 -0.0572 -0.1655
  150MOL    C4945047   0.761   5.218   1.651  0.1210  0.3923 -0.0915
  150MOL    O5045048   0.689   5.317   1.633  0.2999  0.3995  0.4338
  150MOL    C5145049   0.849   5.213   1.774 -0.1785  0.2971  0.0521
  150MOL    C5245050   0.856   5.327   1.870 -0.5684  0.4891 -0.2671
  150MOL    C5345051   0.802   5.045   1.355 -1.3680  0.1074  0.1969
  150MOL    H5445052   0.697   5.220   1.419  2.0317  0.2839 -0.2720
  150MOL    H5545053   0.824   5.121   1.826  0.6030  0.0370 -0.0180
  150MOL    H5645054   0.949   5.210   1.729 -1.4121 -0.3846 -2.7389
  150MOL    H5745055   0.761   5.363   1.908 -0.4614  1.3325 -0.7886
  150MOL    H5845056   0.907   5.302   1.963 -1.0446  0.2829 -0.0612
  150MOL    H5945057   0.920   5.395   1.815  1.2256  0.8248  2.1597
  150MOL    H6045058   0.790   5.086   1.255 -0.5708  0.2432  0.1594
  150MOL    H6145059   0.902   5.070   1.388 -1.6220  0.5808  0.6225
  150MOL    C6245060   0.781   4.888   1.340  1.0162 -0.6674  0.0070
  150MOL    O6345061   0.746   4.816   1.461  0.8249 -0.1894 -0.5085
  150MOL    C6445062   0.840   4.780   1.548 -0.2238 -0.5860 -0.4309
  150MOL    O6545063   0.957   4.808   1.528  0.4493 -0.5324  0.0592
  150MOL    C6645064   0.797   4.692   1.664  0.2086  0.0461  0.2941
  150MOL    C6745065   0.759   4.765   1.800 -0.1953  0.6495 -0.1902
  150MOL    C6845066   0.671   4.853   1.238 -0.1491 -0.6536 -0.1143
  150MOL    H6945067   0.872   4.848   1.295 -0.6405 -2.2898 -2.0362
  150MOL    H7045068   0.709   4.638   1.630  0.8006 -0.5278 -0.3364
  150MOL    H7145069   0.868   4.612   1.684  0.1326 -0.5594 -1.6822
  150MOL    H7245070   0.849   4.798   1.852  0.2174  1.3609 -1.3512
  150MOL    H7345071   0.698   4.846   1.762 -0.2742  0.3425 -0.7270
  150MOL    H7445072   0.704   4.708   1.876  0.2681 -1.0838 -1.1244
  150MOL    H7545073   0.580   4.837   1.294 -2.0365 -1.5085 -3.3056
  150MOL    H7645074   0.652   4.938   1.172 -0.4786  0.9185  1.9854
  150MOL    C7745075   0.688   4.723   1.155 -0.2534 -0.8885 -0.1761
  150MOL    O7845076   0.708   4.615   1.243 -0.0344 -0.3924  0.1386
  150MOL    C7945077   0.801   4.521   1.216  0.1737 -0.2391 -0.7024
  150MOL    O8045078   0.885   4.533   1.133 -0.0475  0.3511 -0.6960
  150MOL    C8145079   0.797   4.407   1.314 -0.3225 -0.9086 -0.0470
  150MOL    C8245080   0.817   4.437   1.452  0.5128 -0.2057 -0.6411
  150MOL    C8345081   0.561   4.685   1.072 -0.1711 -0.4517 -0.4949
  150MOL    H8445082   0.776   4.739   1.093 -0.0108 -0.5007  0.2638
  150MOL    H8545083   0.705   4.353   1.290 -1.9154  1.2940  0.8966
  150MOL    H8645084   0.884   4.358   1.271 -0.6990  1.2636 -3.5070
  150MOL    H8745085   0.897   4.509   1.470 -0.2349  0.3026  0.7332
  150MOL    H8845086   0.722   4.473   1.492 -0.0569 -1.4211 -0.8775
  150MOL    H8945087   0.851   4.350   1.509  1.2018  0.2291 -0.3741
  150MOL    H9045088   0.583   4.593   1.018 -0.7094 -0.6677 -0.3550
  150MOL    H9145089   0.485   4.666   1.147  0.6118  1.2415  0.7506
  150MOL    C9245090   0.524   4.792   0.962  0.2831 -0.4780 -0.4574
  150MOL    O9345091   0.647   4.818   0.895  0.2934  0.5757  0.7358
  150MOL    C9445092   0.660   4.947   0.841  0.2979 -0.0253 -0.5067
  150MOL    O9545093   0.578   5.040   0.845  0.2116 -0.1976  0.4987
  150MOL    C9645094   0.800   4.982   0.768 -0.0507 -0.5486  0.5696
  150MOL    C9745095   0.825   4.878   0.659  0.7925 -0.3430  0.1854
  150MOL    C9845096   0.415   4.753   0.873 -0.1189  0.6731  0.3245
  150MOL    H9945097   0.495   4.885   1.011  0.0121  0.4850 -2.4124
  150MOL   H10045098   0.800   5.086   0.736  2.1797 -0.2637  1.3848
  150MOL   H10145099   0.887   4.985   0.834 -0.3315  1.1974  0.8972
  150MOL   H10245100   0.919   4.898   0.607  1.5796 -1.4756  1.1379
  150MOL   H10345101   0.829   4.780   0.705  0.9950 -0.3296  0.1953
  150MOL   H10445102   0.743   4.898   0.590 -0.4571  0.4962  1.8706
  150MOL   H10545103   0.410   4.819   0.786  2.4777 -0.5134 -0.7652
  150MOL   H10645104   0.435   4.656   0.828  2.8281  0.1513  2.6735
  150MOL   C10745105   0.276   4.764   0.942  0.0904  0.2340 -0.2476
  150MOL   O10845106   0.242   4.898   0.958 -0.0824 -0.4328 -0.2045
  150MOL   C10945107   0.256   4.957   1.083 -0.3674  0.0658 -0.1966
  150MOL   O11045108   0.288   4.897   1.188  0.2218  0.9968  0.0273
  150MOL   C11145109   0.214   5.104   1.065 -0.3222  0.2601 -0.8129
  150MOL   C11245110   0.106   5.142   1.170 -0.2982 -0.1934  0.1330
  150MOL   C11345111   0.166   4.699   0.860  0.2242 -0.6972 -0.5913
  150MOL   H11445112   0.274   4.709   1.036 -3.9190  0.5974 -0.0353
  150MOL   H11545113   0.306   5.161   1.081  0.0789 -1.1767  2.2920
  150MOL   H11645114   0.174   5.121   0.965 -0.5622 -0.0706 -0.7738
  150MOL   H11745115   0.074   5.246   1.159 -0.0234 -0.1834 -0.5866
  150MOL   H11845116   0.019   5.080   1.152 -0.0690  0.6168 -4.0690
  150MOL   H11945117   0.150   5.120   1.268  1.3909  0.7682 -0.3891
  150MOL   H12045118   0.071   4.726   0.907 -1.3168 -1.7780 -2.9743
  150MOL   H12145119   0.169   4.741   0.759 -0.7215 -0.5427 -0.5566
  150MOL   C12245120   0.177   4.548   0.842 -0.4711  0.6120 -0.3341
  150MOL   O12345121   0.199   4.484   0.975 -0.3474  0.3905 -0.2747
  150MOL   C12445122   0.309   4.410   1.001 -0.3703  0.1365  0.3568
  150MOL   O12545123   0.394   4.368   0.921  0.2301  0.3235  0.3901
  150MOL   C12645124   0.323   4.387   1.147 -0.4960 -0.1469 -0.5966
  150MOL   C12745125   0.208   4.298   1.196  0.6763  0.1311 -0.5210
  150MOL   C12845126   0.062   4.491   0.772  0.3244  0.7080  0.3386
  150MOL   H12945127   0.260   4.540   0.773  0.6118  2.0647  0.7824
  150MOL   H13045128   0.422   4.350   1.172  0.2674  0.2879 -2.8305
  150MOL   H13145129   0.321   4.490   1.183  0.3023  0.2203 -1.5852
  150MOL   H13245130   0.224   4.272   1.300  1.3875 -1.3151 -0.9808
  150MOL   H13345131   0.107   4.339   1.188  0.7424  0.2650 -0.6896
  150MOL   H13445132   0.209   4.202   1.145 -0.2963 -0.2483  0.1743
  150MOL   H13545133   7.922   4.500   0.840  0.8766 -0.7866  1.2600
  150MOL   H13645134   0.027   4.550   0.687  0.7545 -0.0339 -0.3588
  150MOL   C13745135   0.097   4.344   0.721  0.1973  0.1508  0.3908
  150MOL   O13845136   7.916   4.291   0.677 -0.6646  0.0291 -0.2952
  150MOL   C13945137   7.858   4.185   0.750 -0.3111 -0.5081  0.0237
  150MOL   O14045138   7.909   4.139   0.850  0.0224 -0.2909  0.1490
  150MOL   C14145139   7.736   4.120   0.687  0.6939 -0.9544 -0.4283
  150MOL   C14245140   7.644   4.054   0.787 -0.0237  0.1933  0.6569
  150MOL   C14345141   0.194   4.337   0.606  0.5330  0.4755  0.7452
  150MOL   H14445142   0.132   4.285   0.806  1.5957 -1.8835 -1.5310
  150MOL   H14545143   7.691   4.205   0.636  3.8696  0.0951 -1.6469
  150MOL   H14645144   7.775   4.043   0.620  0.4689 -1.6911  0.2873
  150MOL   H14745145   7.578   3.985   0.735  0.6055  0.4990 -0.5560
  150MOL   H14845146   7.710   3.985   0.839 -0.7682 -1.3236 -0.3746
  150MOL   H14945147   7.579   4.112   0.853 -0.3655  1.0654 -0.4446
  150MOL   H15045148   0.142   4.403   0.535 -0.5221 -0.2990  0.7923
  150MOL   H15145149   0.291   4.384   0.621 -0.0748  2.2712 -0.6745
  150MOL   C15245150   0.214   4.193   0.556 -0.2109  0.7348  0.1393
  150MOL   O15345151   0.302   4.187   0.445 -0.0908  0.6007  0.6165
  150MOL   C15445152   0.275   4.222   0.328  0.2460 -0.3298 -0.2873
  150MOL   O15545153   0.174   4.284   0.293 -0.1762 -0.3499 -0.7454
  150MOL   C15645154   0.368   4.171   0.221  0.7295  0.1657 -0.3164
  150MOL   C15745155   0.484   4.262   0.198  0.0507  0.4754 -0.4286
  150MOL   C15845156   0.302   4.119   0.663 -0.0520  0.1297  0.5762
  150MOL   H15945157   0.123   4.141   0.527  0.5908 -0.7340  0.2322
  150MOL   H16045158   0.397   4.072   0.256 -1.7874 -1.0533 -1.5316
  150MOL   H16145159   0.317   4.142   0.129 -0.4626 -0.7201  0.6083
  150MOL   H16245160   0.562   4.217   0.137 -0.5023  0.6882 -1.2953
  150MOL   H16345161   0.452   4.348   0.139  1.6472  0.5876 -1.1569
  150MOL   H16445162   0.532   4.287   0.293 -0.1180 -0.6642 -0.0332
  150MOL   H16545163   0.408   4.138   0.646 -0.0322 -0.8269 -0.4415
  150MOL   H16645164   0.281   4.167   0.759  1.2945 -0.2378  1.0698
  150MOL   C16745165   0.284   3.967   0.671 -0.1373  0.3245 -0.2136
  150MOL   O16845166   0.395   3.896   0.623 -0.4251  0.8284  0.2804
  150MOL   C16945167   0.386   3.856   0.496 -0.1573  0.5534 -0.6286
  150MOL   O17045168   0.287   3.861   0.421 -0.4672 -0.4494  0.2212
  150MOL   C17145169   0.525   3.795   0.454 -0.6238  0.5694 -0.0046
  150MOL   C17245170   0.556   3.845   0.308 -0.3313 -0.2810  0.7343
  150MOL   C17345171   0.265   3.914   0.812 -0.1188  0.3043 -0.0549
  150MOL   H17445172   0.193   3.947   0.613  0.0748  2.0046 -1.1630
  150MOL   H17545173   0.603   3.811   0.528  0.9041  0.1466 -1.4893
  150MOL   H17645174   0.487   3.695   0.433 -1.0520  0.8784 -0.7220
  150MOL   H17745175   0.631   3.785   0.257  1.2551  1.4610  0.9854
  150MOL   H17845176   0.467   3.830   0.247 -0.3030  1.5672  0.2265
  150MOL   H17945177   0.582   3.950   0.318  1.0270 -0.6229  0.7942
  150MOL   H18045178   0.358   3.905   0.868 -0.7779 -3.8136  0.4964
  150MOL   H18145179   0.219   3.999   0.863 -0.4669  0.1237 -0.0656
  150MOL   C18245180   0.183   3.777   0.822 -0.8295  0.7328 -0.8848
  150MOL   O18345181   0.274   3.673   0.787 -0.4789 -0.4216  0.1432
  150MOL   C18445182   0.242   3.590   0.682  0.8867 -0.3597 -0.7190
  150MOL   O18545183   0.135   3.585   0.620  0.3458  0.0396 -0.7003
  150MOL   C18645184   0.357   3.501   0.646 -0.3615  0.7618  0.0056
  150MOL   C18745185   0.399   3.416   0.765  0.4636 -0.2730 -0.4618
  150MOL   C18845186   0.123   3.747   0.961  0.5433  0.3238 -1.2820
  150MOL   H18945187   0.105   3.783   0.746 -1.3613  2.8768 -0.2225
  150MOL   H19045188   0.342   3.427   0.566  1.2806  0.0177  0.3574
  150MOL   H19145189   0.435   3.563   0.602  0.5125  0.5314  1.1986
  150MOL   H19245190   0.313   3.362   0.806  2.2798 -1.7154  1.5435
  150MOL   H19345191   0.475   3.348   0.726  1.9451 -0.1457  2.0925
  150MOL   H19445192   0.449   3.467   0.846  0.3906 -1.2581  0.2079
  150MOL   H19545193   0.206   3.760   1.030  0.3515  0.0724 -1.0046
  150MOL   H19645194   0.057   3.829   0.989  0.8303 -0.3662  1.4981
  150MOL   C19745195   0.072   3.602   0.991 -0.3389  0.0209  0.1541
  150MOL   O19845196   0.058   3.584   1.128 -0.4527  0.2126  0.3099
  150MOL   C19945197   0.157   3.547   1.213 -0.1398  0.2170  0.1052
  150MOL   O20045198   0.278   3.529   1.180 -0.3401  0.0402  0.2806
  150MOL   C20145199   0.103   3.511   1.357 -0.1014 -0.9082  0.1264
  150MOL   C20245200   7.938   3.601   1.410 -0.0273  0.8408 -0.1810
  150MOL   C20345201   7.880   3.582   0.926 -0.3764  0.1084  0.1584
  150MOL   H20445202   0.146   3.529   0.959  1.2012  0.2239  3.0320
  150MOL   H20545203   0.067   3.409   1.346 -2.2740 -0.3129  1.3710
  150MOL   H20645204   0.204   3.513   1.398  1.0694  0.0612 -2.6705
  150MOL   H20745205   0.032   3.703   1.402  0.0120  0.9209  0.8725
  150MOL   H20845206   7.850   3.590   1.347 -0.6188  0.3155  0.7214
  150MOL   H20945207   7.910   3.581   1.513 -0.3632 -2.0106 -0.8081
  150MOL   H21045208   7.804   3.638   0.981 -1.6624  1.0812 -2.5538
  150MOL   H21145209   7.883   3.610   0.821  2.5945 -2.0766 -0.4112
  150MOL   C21245210   7.825   3.443   0.937 -0.7256 -0.0448  0.5115
  150MOL   O21345211   7.683   3.441   0.900 -0.0301  0.2591  0.6181
  150MOL   C21445212   7.581   3.421   0.993  0.1403  0.2564 -0.2264
  150MOL   O21545213   7.596   3.378   1.103  0.0631 -0.3672 -0.3790
  150MOL   C21645214   7.437   3.442   0.931 -0.9420 -0.3977  0.1592
  150MOL   C21745215   7.421   3.582   0.892 -0.4621  0.3716 -0.2715
  150MOL   C21845216   7.890   3.352   0.829  0.7257  0.0124  0.0093
  150MOL   H21945217   7.845   3.397   1.034  1.4391  2.4551  1.2892
  150MOL   H22045218   7.421   3.368   0.853  1.9457  0.9558 -1.8210
  150MOL   H22145219   7.369   3.413   1.012 -1.1507 -0.6557 -0.1059
  150MOL   H22245220   7.483   3.604   0.806  2.5107  1.0033  1.9834
  150MOL   H22345221   7.315   3.580   0.864 -0.2284  0.3805 -1.1538
  150MOL   H22445222   7.433   3.657   0.970  0.8941 -0.0230 -0.1018
  150MOL   H22545223   7.843   3.370   0.733  1.2115 -1.8106 -0.5902
  150MOL   H22645224   0.053   3.361   0.817  1.1499  0.4931  3.6505
  150MOL   C22745225   7.876   3.199   0.854 -0.4607 -0.7703 -0.4593
  150MOL   O22845226   0.006   3.168   0.969 -0.1492  0.0921 -0.4158
  150MOL   C22945227   0.083   3.066   0.983 -0.0296  0.1635  0.0664
  150MOL   O23045228   0.101   2.987   0.890 -0.0612  0.1946 -0.5015
  150MOL   C23145229   0.165   3.057   1.107  0.0384  0.5489  0.2058
  150MOL   C23245230   0.151   3.172   1.206 -0.3237  0.4184 -0.3376
  150MOL   C23345231   7.732   3.139   0.853  0.6516 -0.1339  0.1693
  150MOL   H23445232   7.931   3.163   0.767 -2.1356 -1.1851 -1.3600
  150MOL   H23545233   0.128   2.970   1.160  1.1846  0.5138  0.9691
  150MOL   H23645234   0.268   3.039   1.076 -0.2581 -0.8521  0.0194
  150MOL   H23745235   0.049   3.181   1.243 -0.6384 -1.6012 -0.6387
  150MOL   H23845236   0.222   3.160   1.288  0.2642  1.2658 -0.7132
  150MOL   H23945237   0.177   3.264   1.153  1.0003 -0.8944 -2.0045
  150MOL   H24045238   7.687   3.146   0.953  1.2844  0.1738  0.4360
  150MOL   H24145239   7.675   3.203   0.786 -0.3053  0.1155  1.1950
  150MOL   C24245240   7.718   2.998   0.785 -0.0233  0.0218 -0.2123
  150MOL   O24345241   7.590   2.947   0.804  0.3247 -0.7360  0.1168
  150MOL   C24445242   7.564   2.871   0.918  0.4618 -0.0373  0.4619
  150MOL   O24545243   7.649   2.840   0.998  0.2264 -0.9606 -0.3097
  150MOL   C24645244   7.413   2.835   0.924  0.1647  0.1400  0.1450
  150MOL   C24745245   7.328   2.950   0.987 -0.0465 -0.1162  0.5845
  150MOL   C24845246   7.771   2.997   0.642  0.2692  0.2388  0.2413
  150MOL   H24945247   7.792   2.940   0.841 -0.2522  0.1585  0.2316
  150MOL   H25045248   7.376   2.805   0.826  0.4685 -1.7562  0.5955
  150MOL   H25145249   7.392   2.743   0.978  1.4669  0.1151  0.6350
  150MOL   H25245250   7.325   2.943   1.096  2.2386  0.9483  0.7445
  150MOL   H25345251   7.368   3.051   0.977 -2.4640  0.5676 -3.2689
  150MOL   H25445252   7.227   2.955   0.946  0.3581 -0.3480 -0.4531
  150MOL   H25545253   7.714   3.079   0.597 -1.1846  0.3221  2.1333
  150MOL   H25645254   7.875   3.029   0.645 -0.1848  2.0403 -2.2954
  150MOL   C25745255   7.745   2.860   0.573  0.0116 -0.0137 -0.2266
  150MOL   O25845256   7.771   2.871   0.432 -0.3613  0.3593 -0.3120
  150MOL   C25945257   7.675   2.889   0.343 -0.2707  0.0265  0.9778
  150MOL   O26045258   7.555   2.903   0.363 -0.0591  0.2147  0.3923
  150MOL   C26145259   7.732   2.862   0.200 -0.5743  0.0805 -0.1823
  150MOL   C26245260   7.687   2.971   0.104  0.6131  0.2686 -0.2800
  150MOL   C26345261   7.827   2.738   0.626  0.2623 -0.0686  0.0318
  150MOL   H26445262   7.638   2.848   0.590 -0.0475  2.3247  1.4754
  150MOL   H26545263   7.840   2.853   0.201 -0.6833 -1.6601  2.6405
  150MOL   H26645264   7.684   2.770   0.168  0.9689 -0.9121  0.3133
  150MOL   H26745265   7.747   2.964   0.013  0.7106  3.3837 -0.5329
  150MOL   H26845266   7.584   2.963   0.071 -0.3300 -0.4733  2.6801
  150MOL   H26945267   7.713   3.071   0.141  0.2129 -0.1437  1.1249
  150MOL   H27045268   7.926   2.748   0.582  1.4553  0.3327  2.7127
  150MOL   H27145269   7.856   2.752   0.730 -0.0405 -0.5359  0.1844
  150MOL   C27245270   7.776   2.602   0.593  0.3832 -0.2543 -0.1674
  150MOL   O27345271   7.876   2.506   0.635 -0.3621 -0.3372 -0.2247
  150MOL   C27445272   7.924   2.417   0.547 -0.0048  0.5090  0.0346
  150MOL   O27545273   7.863   2.380   0.445  0.4298 -0.0099  0.0135
  150MOL   C27645274   0.115   2.351   0.586 -0.5948  0.4272  0.5537
  150MOL   C27745275   0.102   2.269   0.711 -0.5034 -0.4877  0.1847
  150MOL   C27845276   7.647   2.567   0.670 -0.6750  0.2373 -0.3328
  150MOL   H27945277   7.754   2.595   0.487  2.5775 -0.9125 -0.5952
  150MOL   H28045278   0.151   2.288   0.505 -0.9130  0.1616  0.6196
  150MOL   H28145279   0.187   2.433   0.594  0.5557 -0.7005  2.1861
  150MOL   H28245280   0.087   2.335   0.796  0.2598 -0.1018  0.0285
  150MOL   H28345281   0.025   2.192   0.707 -0.9154 -0.2205  2.2256
  150MOL   H28445282   0.192   2.212   0.735  0.3234  0.1283 -1.3744
  150MOL   H28545283   7.663   2.573   0.778  1.1498  0.6482 -0.6140
  150MOL   H28645284   7.578   2.650   0.653 -1.1830 -0.1551 -0.2051
  150MOL   C28745285   7.595   2.434   0.627  0.3531 -1.0077 -0.0215
  150MOL   O28845286   7.494   2.397   0.724 -0.6069  0.6200 -0.3949
  150MOL   C28945287   7.498   2.284   0.787  0.0745  0.4878  0.6636
  150MOL   O29045288   7.591   2.207   0.773 -0.5187 -0.0388 -0.1036
  150MOL   C29145289   7.369   2.251   0.864  0.4419  0.3286 -0.3484
  150MOL   C29245290   7.378   2.124   0.957 -0.4693 -0.4056  0.6179
  150MOL   C29345291   7.535   2.418   0.487  0.4462 -0.2594 -0.0103
  150MOL   H29445292   7.686   2.373   0.630  0.5410 -0.6934  1.3718
  150MOL   H29545293   7.346   2.337   0.927  1.4894  0.3059  0.0848
  150MOL   H29645294   7.293   2.254   0.787  0.1133  3.1521  0.0247
  150MOL   H29745295   7.451   2.155   1.031 -1.4794  0.4233  1.2877
  150MOL   H29845296   7.288   2.095   1.012  0.4501 -0.0398  2.3209
  150MOL   H29945297   7.412   2.036   0.901 -3.3758 -0.9928 -0.3501
  150MOL   H30045298   7.611   2.413   0.409  1.1714 -2.9140  0.8018
  150MOL   H30145299   7.481   2.324   0.474  2.2934 -1.4817  1.0866
  150MOL   H30245300   7.463   2.498   0.470 -0.0431 -0.1150  2.6585
  151MOL     C145301   4.514   6.975   1.951  0.0304  0.3452  0.2085
  151MOL     O245302   4.510   7.078   2.044  0.2520 -0.4227 -0.3753
  151MOL     C345303   4.450   7.074   2.162 -0.1096 -0.2621  1.0002
  151MOL     O445304   4.378   6.976   2.197 -0.2626  0.6125  0.5061
  151MOL     C545305   4.468   7.201   2.247  0.0863 -0.2581 -0.5070
  151MOL     C645306   4.381   7.308   2.192 -0.6716 -1.0788  0.2586
  151MOL     C745307   4.661   6.945   1.920  0.2897  0.2030  0.2441
  151MOL     H845308   4.461   7.011   1.863 -1.7157 -0.9711  0.6995
  151MOL     H945309   4.441   7.167   2.346  0.4360  0.1820 -0.2589
  151MOL    H1045310   4.575   7.222   2.251  0.4820 -1.7935 -2.4435
  151MOL    H1145311   4.424   7.327   2.093 -0.0571 -2.1637  0.3062
  151MOL    H1245312   4.282   7.272   2.166 -0.9636 -0.4363  0.4915
  151MOL    H1345313   4.379   7.398   2.253  2.2010 -0.7506 -0.0394
  151MOL    H1445314   4.715   7.031   1.881 -1.5160  0.8030 -0.9688
  151MOL    H1545315   4.710   6.913   2.012 -1.4390  1.5223  1.6346
  151MOL    H1645316   4.465   6.883   1.981 -0.8734  0.9113  0.4915
  151MOL    C1745317   4.673   6.823   1.829  0.7675  0.1393  0.1221
  151MOL    O1845318   4.624   6.853   1.699 -0.5009 -0.6850 -0.2242
  151MOL    C1945319   4.510   6.820   1.647 -0.0540  0.2475 -0.2990
  151MOL    O2045320   4.429   6.734   1.696 -0.0561  0.4560  0.2917
  151MOL    C2145321   4.463   6.908   1.528  0.0090  0.6264 -1.0715
  151MOL    C2245322   4.311   6.929   1.524 -0.4037  0.0499  0.2508
  151MOL    C2345323   4.818   6.763   1.816  0.3967 -0.0132 -0.5465
  151MOL    H2445324   4.616   6.740   1.872  1.3210 -0.2214  0.1701
  151MOL    H2545325   4.510   7.004   1.548  0.9928 -0.2248  0.8338
  151MOL    H2645326   4.507   6.868   1.436 -0.2037  1.2705 -1.4507
  151MOL    H2745327   4.301   7.037   1.513 -0.1735  0.1906  1.4319
  151MOL    H2845328   4.253   6.870   1.453  0.9126 -0.8143 -0.1270
  151MOL    H2945329   4.254   6.910   1.615  0.3910 -2.5702  0.2498
  151MOL    H3045330   4.876   6.825   1.747 -1.0967 -1.6713 -3.4125
  151MOL    H3145331   4.862   6.774   1.915  1.4101  2.0323 -1.2059
  151MOL    C3245332   4.819   6.622   1.774 -0.0388  0.4292 -0.3146
  151MOL    O3345333   4.944   6.591   1.702  0.5454  0.2647  0.1150
  151MOL    C3445334   4.958   6.619   1.577  0.0145 -0.4015 -0.0635
  151MOL    O3545335   4.870   6.650   1.499 -0.2040  0.1984 -0.5869
  151MOL    C3645336   5.102   6.616   1.531 -0.3541 -0.0516 -0.0508
  151MOL    C3745337   5.102   6.591   1.375 -0.0990 -0.4499 -0.5933
  151MOL    C3845338   4.819   6.525   1.896 -0.1701 -0.3404  0.6524
  151MOL    H3945339   4.733   6.616   1.708  0.8162 -0.4582 -1.3635
  151MOL    H4045340   5.153   6.709   1.556 -0.4826  0.2135 -0.7413
  151MOL    H4145341   5.153   6.532   1.578  0.0632 -0.1431 -0.6501
  151MOL    H4245342   5.086   6.487   1.346 -0.7883 -0.9569  1.4824
  151MOL    H4345343   5.037   6.657   1.317  1.0583  0.2731 -1.0656
  151MOL    H4445344   5.199   6.601   1.328 -0.4967  0.8894 -1.1565
  151MOL    H4545345   4.911   6.531   1.954 -1.7603  0.6297  3.1352
  151MOL    H4645346   4.751   6.575   1.965 -0.9364 -0.9762  0.3626
  151MOL    C4745347   4.784   6.374   1.854  0.6406  0.3315 -0.4823
  151MOL    O4845348   4.905   6.315   1.825 -0.1512 -0.5472 -0.1916
  151MOL    C4945349   4.909   6.210   1.741 -0.3853 -0.4784 -0.1216
  151MOL    O5045350   4.817   6.179   1.676  0.2150 -0.1906  0.0492
  151MOL    C5145351   5.054   6.154   1.722  0.4280  0.0149  0.2437
  151MOL    C5245352   5.126   6.143   1.855  0.8913  0.0120  0.8183
  151MOL    C5345353   4.715   6.305   1.966 -0.1016 -0.2874  0.0393
  151MOL    H5445354   4.717   6.372   1.768  2.9698 -1.8176 -2.3395
  151MOL    H5545355   5.053   6.052   1.684 -0.6556 -0.3366  1.1870
  151MOL    H5645356   5.122   6.219   1.667  1.6600 -1.2289  0.2584
  151MOL    H5745357   5.052   6.099   1.922  0.8273  2.4062  2.4076
  151MOL    H5845358   5.227   6.102   1.849  1.2363  0.7874  1.1256
  151MOL    H5945359   5.145   6.248   1.881 -0.5793  0.5832 -0.3505
  151MOL    H6045360   4.750   6.203   1.983 -2.5550 -0.6765  3.3861
  151MOL    H6145361   4.721   6.358   2.061  3.5854  0.8816 -0.7702
  151MOL    C6245362   4.558   6.293   1.940 -0.1256  0.1350  0.1506
  151MOL    O6345363   4.489   6.421   1.945  0.2584 -0.0146  0.4120
  151MOL    C6445364   4.380   6.442   2.019 -0.0014  0.5443  0.1096
  151MOL    O6545365   4.324   6.360   2.096 -0.4994 -0.2342 -0.0620
  151MOL    C6645366   4.326   6.590   2.009  0.4252 -0.3241 -0.0539
  151MOL    C6745367   4.216   6.620   2.116 -0.0540 -0.0102 -0.2091
  151MOL    C6845368   4.520   6.226   1.813 -0.3641  0.6180  0.3514
  151MOL    H6945369   4.517   6.239   2.026  1.2974  0.1129  0.8175
  151MOL    H7045370   4.405   6.665   1.998 -0.7469  0.7260 -1.5698
  151MOL    H7145371   4.278   6.590   1.911  0.5851 -1.2550 -0.1362
  151MOL    H7245372   4.115   6.585   2.096 -0.6216 -0.6656  3.4966
  151MOL    H7345373   4.237   6.595   2.220 -0.1033  0.9088  0.0335
  151MOL    H7445374   4.186   6.725   2.110  1.6820  0.6133  1.5625
  151MOL    H7545375   4.414   6.235   1.788 -0.3912 -0.0509  0.1943
  151MOL    H7645376   4.554   6.280   1.724  3.3743  0.5040  1.6243
  151MOL    C7745377   4.556   6.077   1.805  0.5626  0.3584 -0.6614
  151MOL    O7845378   4.490   5.998   1.911 -0.3979 -0.0859 -0.7776
  151MOL    C7945379   4.559   5.921   2.001  0.3845  0.5775 -0.4104
  151MOL    O8045380   4.680   5.910   1.997  0.3291 -0.2168  0.1832
  151MOL    C8145381   4.475   5.834   2.099 -0.5859 -0.3076  0.0045
  151MOL    C8245382   4.380   5.918   2.184  0.0405  0.1678  0.2102
  151MOL    C8345383   4.500   6.006   1.675 -0.2487 -0.8722 -0.7704
  151MOL    H8445384   4.663   6.064   1.817  0.3175 -1.2557  0.0729
  151MOL    H8545385   4.428   5.753   2.043 -0.2347 -0.7820  0.3820
  151MOL    H8645386   4.549   5.779   2.157 -1.1495 -1.0924 -0.0089
  151MOL    H8745387   4.426   6.004   2.231  2.0020 -0.8294  0.1651
  151MOL    H8845388   4.306   5.954   2.112 -0.1819 -0.3635  0.1694
  151MOL    H8945389   4.344   5.858   2.267 -2.9125 -1.3072 -2.0450
  151MOL    H9045390   4.392   6.007   1.688 -0.2241  0.4484 -0.5875
  151MOL    H9145391   4.521   6.066   1.587  3.0011  0.2080  0.6325
  151MOL    C9245392   4.552   5.864   1.653  0.6865 -0.0762 -0.0491
  151MOL    O9345393   4.456   5.809   1.559 -0.7527  0.2408 -0.3010
  151MOL    C9445394   4.421   5.678   1.563  0.7302  0.2837 -0.5404
  151MOL    O9545395   4.475   5.598   1.634  0.1392  0.3694  0.2309
  151MOL    C9645396   4.321   5.631   1.457  0.6812 -0.6443  0.2015
  151MOL    C9745397   4.390   5.613   1.322 -0.0530  0.2313  0.5613
  151MOL    C9845398   4.689   5.846   1.569  0.1479 -0.2262 -0.1521
  151MOL    H9945399   4.544   5.809   1.746  1.5264  0.4717  0.3480
  151MOL   H10045400   4.289   5.529   1.481 -0.2558 -0.3157  0.3505
  151MOL   H10145401   4.231   5.690   1.441  0.8820 -0.5201 -0.4778
  151MOL   H10245402   4.326   5.559   1.253 -0.0197 -1.0442  1.4987
  151MOL   H10345403   4.423   5.709   1.282 -0.7303  0.4005  0.4073
  151MOL   H10445404   4.476   5.547   1.333  2.4051  2.9050 -1.6855
  151MOL   H10545405   4.673   5.846   1.461 -4.6827 -2.0000  0.4383
  151MOL   H10645406   4.748   5.937   1.581  0.3880 -0.1768 -1.5787
  151MOL   C10745407   4.778   5.733   1.603 -0.2367 -0.3387  0.0961
  151MOL   O10845408   4.886   5.726   1.508 -0.0046  0.4067  0.0786
  151MOL   C10945409   4.922   5.607   1.456  0.1608 -0.2355  0.1330
  151MOL   O11045410   4.880   5.496   1.477 -0.0769 -0.8579  0.3019
  151MOL   C11145411   5.031   5.624   1.356  0.0429 -0.0042 -0.3423
  151MOL   C11245412   5.168   5.602   1.418  0.9162 -0.6484 -0.6381
  151MOL   C11345413   4.842   5.764   1.746  0.1437  0.8819 -0.0328
  151MOL   H11445414   4.727   5.638   1.618 -1.0491  0.2418  1.0296
  151MOL   H11545415   5.014   5.545   1.283 -1.5425 -0.2750  0.2894
  151MOL   H11645416   5.041   5.714   1.296 -0.6821 -0.6627 -1.4740
  151MOL   H11745417   5.175   5.509   1.476 -2.3433 -1.8768 -2.1357
  151MOL   H11845418   5.248   5.602   1.344  1.9224  0.5275  0.4152
  151MOL   H11945419   5.201   5.688   1.476 -0.9937  0.6349 -1.4336
  151MOL   H12045420   4.898   5.856   1.732 -1.5999  1.8702 -0.5089
  151MOL   H12145421   4.768   5.775   1.825 -2.2717 -0.2903 -2.0476
  151MOL   C12245422   4.952   5.667   1.796  0.2178  0.1487  0.0669
  151MOL   O12345423   5.018   5.727   1.910 -0.4714 -0.1902  0.6444
  151MOL   C12445424   5.139   5.786   1.894  0.5538 -0.3538 -0.0252
  151MOL   O12545425   5.199   5.788   1.784  0.1420 -0.3702  0.1195
  151MOL   C12645426   5.194   5.835   2.026 -0.0953 -0.3427 -0.4585
  151MOL   C12745427   5.345   5.830   2.031  0.1187  0.0408 -0.6538
  151MOL   C12845428   4.908   5.527   1.839 -0.3368 -0.2077 -0.1550
  151MOL   H12945429   5.010   5.666   1.704 -0.1216 -1.7930 -0.1334
  151MOL   H13045430   5.163   5.939   2.036  0.5128 -0.1561 -0.4565
  151MOL   H13145431   5.156   5.776   2.109 -0.5827  0.1384 -0.3346
  151MOL   H13245432   5.372   5.857   2.133 -1.3905 -1.4209  0.1615
  151MOL   H13345433   5.382   5.728   2.021 -1.3186 -1.0086  3.5589
  151MOL   H13445434   5.394   5.891   1.955 -2.1353  2.3606 -0.3110
  151MOL   H13545435   4.882   5.518   1.944 -2.0071  1.7601 -0.3728
  151MOL   H13645436   4.809   5.497   1.803 -0.2475 -1.0201  0.2683
  151MOL   C13745437   5.004   5.420   1.781 -0.5386  0.4215 -0.1967
  151MOL   O13845438   5.132   5.434   1.848 -0.4753  0.1367  0.0253
  151MOL   C13945439   5.245   5.397   1.795 -0.0090 -0.1535  0.0694
  151MOL   O14045440   5.258   5.376   1.675 -0.8730 -0.5006  0.7541
  151MOL   C14145441   5.361   5.387   1.895 -0.3767 -0.2636 -0.3721
  151MOL   C14245442   5.343   5.276   1.994 -0.6630  0.8740 -0.2938
  151MOL   C14345443   4.949   5.274   1.806  0.0218  0.0625 -0.3054
  151MOL   H14445444   5.013   5.444   1.675  0.7104 -0.0170 -0.2065
  151MOL   H14545445   5.455   5.362   1.847 -0.0900 -2.6199  1.3111
  151MOL   H14645446   5.374   5.481   1.948 -2.7310  0.5426 -1.1571
  151MOL   H14745447   5.362   5.299   2.099 -0.7165 -0.4348  0.0108
  151MOL   H14845448   5.243   5.233   1.995  0.7161 -2.4596  1.7043
  151MOL   H14945449   5.408   5.193   1.963 -1.1502 -0.0717  1.1801
  151MOL   H15045450   4.960   5.269   1.915  2.3311 -0.3958 -0.5214
  151MOL   H15145451   4.842   5.270   1.785  0.2298 -1.6664 -1.1053
  151MOL   C15245452   5.008   5.157   1.728 -0.6412  0.0696  0.1548
  151MOL   O15345453   4.968   5.034   1.789 -0.5359 -0.1950 -0.3512
  151MOL   C15445454   5.049   4.977   1.882  0.5873  0.3842 -0.1342
  151MOL   O15545455   5.147   5.019   1.934 -0.2397  0.3186  0.1654
  151MOL   C15645456   4.996   4.834   1.922 -0.1282 -0.1052 -0.4046
  151MOL   C15745457   4.846   4.824   1.956  0.0536 -0.2434  0.1561
  151MOL   C15845458   4.972   5.162   1.579 -0.8905  0.7877  0.3235
  151MOL   H15945459   5.116   5.170   1.732 -0.3564  0.1753 -4.9858
  151MOL   H16045460   5.027   4.761   1.847  0.6192 -1.1712  0.9267
  151MOL   H16145461   5.052   4.810   2.013  1.4423  1.9988 -0.7739
  151MOL   H16245462   4.826   4.915   2.013 -0.3618 -0.0982 -0.2235
  151MOL   H16345463   4.801   4.836   1.858 -1.2053 -3.0150  0.3535
  151MOL   H16445464   4.804   4.738   2.007 -0.1368 -0.0468  0.3301
  151MOL   H16545465   4.872   5.125   1.556  0.4051 -2.5126 -0.1905
  151MOL   H16645466   4.963   5.270   1.564  2.2078  1.3955  2.5558
  151MOL   C16745467   5.076   5.110   1.476  0.4114  0.1907 -0.4026
  151MOL   O16845468   5.075   4.969   1.484  0.3839 -0.1554  0.6733
  151MOL   C16945469   5.183   4.895   1.455  0.1371  1.0974  0.3569
  151MOL   O17045470   5.299   4.939   1.439 -0.1048  0.1715 -0.1818
  151MOL   C17145471   5.149   4.748   1.461 -0.0890  0.1369  0.5001
  151MOL   C17245472   5.269   4.651   1.470  0.1457  0.4851  0.2194
  151MOL   C17345473   5.068   5.177   1.331 -0.8656  0.1521  0.5320
  151MOL   H17445474   5.174   5.141   1.511  0.0083  1.8268 -0.7164
  151MOL   H17545475   5.083   4.732   1.547  1.1158  1.3411  1.6762
  151MOL   H17645476   5.075   4.730   1.383 -0.5396  0.5088  0.8413
  151MOL   H17745477   5.234   4.548   1.478  0.5561  0.3652  0.4476
  151MOL   H17845478   5.345   4.668   1.394  0.6306  2.0452  1.0320
  151MOL   H17945479   5.302   4.676   1.571 -0.8714  0.6898  0.5043
  151MOL   H18045480   5.087   5.284   1.336 -1.9356  0.3873 -0.3669
  151MOL   H18145481   5.148   5.132   1.273  0.2902  2.3663  0.3869
  151MOL   C18245482   4.940   5.141   1.249  0.0200 -0.6552  0.0962
  151MOL   O18345483   4.838   5.226   1.299 -0.1193 -0.2888 -0.0405
  151MOL   C18445484   4.706   5.189   1.274 -0.0980  0.4395 -0.4751
  151MOL   O18545485   4.679   5.086   1.219  0.5565 -0.2125 -0.0050
  151MOL   C18645486   4.602   5.287   1.316 -0.0625  0.3522  0.0972
  151MOL   C18745487   4.599   5.305   1.469  0.1527  0.1868 -0.5900
  151MOL   C18845488   4.956   5.173   1.093 -0.3579  0.0341 -1.1165
  151MOL   H18945489   4.919   5.035   1.266  0.9177 -0.5444  2.0136
  151MOL   H19045490   4.632   5.379   1.265 -2.1039  1.3019  0.5136
  151MOL   H19145491   4.503   5.258   1.281 -0.0976  3.1239 -2.2904
  151MOL   H19245492   4.683   5.268   1.528 -2.5962 -2.6791  1.7752
  151MOL   H19345493   4.578   5.409   1.495 -1.5762 -0.0902 -0.8257
  151MOL   H19445494   4.508   5.261   1.511 -1.3675  2.3398 -1.5406
  151MOL   H19545495   4.858   5.172   1.044  0.2697 -2.0488 -2.3989
  151MOL   H19645496   4.995   5.271   1.069  1.1764  0.2055  1.9072
  151MOL   C19745497   5.033   5.064   1.010  0.2289  0.1391 -0.0851
  151MOL   O19845498   4.944   4.962   0.978 -0.2496 -0.5373  0.2178
  151MOL   C19945499   4.930   4.853   1.052  0.0941 -0.5662 -0.4254
  151MOL   O20045500   4.995   4.827   1.153 -0.0652 -0.1173 -0.2501
  151MOL   C20145501   4.817   4.759   1.011 -0.2975  0.0353 -0.3911
  151MOL   C20245502   4.868   4.654   0.917 -0.2727  0.2176 -0.0211
  151MOL   C20345503   5.101   5.114   0.881  0.2890 -0.0683 -0.1323
  151MOL   H20445504   5.112   5.034   1.079 -0.6574  1.4358  1.5503
  151MOL   H20545505   4.799   4.700   1.101  0.7551 -0.9337 -0.8072
  151MOL   H20645506   4.728   4.806   0.969  0.1335 -0.0998 -1.4685
  151MOL   H20745507   4.782   4.600   0.877 -0.4478 -0.1028  0.7671
  151MOL   H20845508   4.935   4.684   0.837  0.7061 -3.1148 -0.5376
  151MOL   H20945509   4.925   4.578   0.970  0.7310  0.3103 -0.9536
  151MOL   H21045510   5.133   5.028   0.821  0.1261 -0.0191 -0.2884
  151MOL   H21145511   5.023   5.164   0.824 -0.3349 -1.3771 -0.4513
  151MOL   C21245512   5.211   5.211   0.901 -0.4667  0.0393 -0.0837
  151MOL   O21345513   5.308   5.152   0.980  0.0541  0.3117 -1.0363
  151MOL   C21445514   5.354   5.216   1.097  0.1928 -0.4453 -0.2943
  151MOL   O21545515   5.322   5.331   1.124 -0.5336  0.1257 -0.4275
  151MOL   C21645516   5.438   5.125   1.195 -0.2047 -0.1321  0.3153
  151MOL   C21745517   5.534   5.207   1.283  0.3548 -0.1373 -0.2271
  151MOL   C21845518   5.263   5.268   0.776 -0.4273 -0.1915 -0.3090
  151MOL   H21945519   5.157   5.291   0.951  1.0308  0.7973  0.3475
  151MOL   H22045520   5.364   5.076   1.258 -1.4971 -0.1194 -1.1426
  151MOL   H22145521   5.480   5.048   1.131 -0.9163  1.4496 -2.1225
  151MOL   H22245522   5.597   5.266   1.216  1.0508 -1.2247 -0.5455
  151MOL   H22345523   5.484   5.277   1.351  1.6657 -0.8354  1.4949
  151MOL   H22445524   5.599   5.159   1.356  0.7340  0.7957  0.0535
  151MOL   H22545525   5.357   5.317   0.800  0.9125  0.0743 -5.5694
  151MOL   H22645526   5.293   5.185   0.712 -0.4764 -2.2715  2.2581
  151MOL   C22745527   5.177   5.375   0.709  0.4706  0.3144  0.6208
  151MOL   O22845528   5.132   5.478   0.792  0.0861 -0.3162  0.3347
  151MOL   C22945529   4.998   5.493   0.830  0.0288  0.0053  0.6776
  151MOL   O23045530   4.902   5.417   0.795 -0.1770 -0.6020  0.0530
  151MOL   C23145531   4.978   5.614   0.915  0.3572 -0.2458  0.4529
  151MOL   C23245532   4.830   5.651   0.947 -0.0299  0.0112  0.0420
  151MOL   C23345533   5.268   5.446   0.606 -0.2254 -0.2068  0.6674
  151MOL   H23445534   5.090   5.330   0.661  1.3126 -0.9477  0.2563
  151MOL   H23545535   5.029   5.591   1.009  0.3389 -3.4414 -0.2600
  151MOL   H23645536   5.035   5.699   0.879 -1.3470  0.5018 -0.5442
  151MOL   H23745537   4.819   5.735   1.015 -1.0526 -0.3118  0.2739
  151MOL   H23845538   4.787   5.689   0.854 -1.0662 -1.3400 -0.0406
  151MOL   H23945539   4.761   5.568   0.961 -0.6035  1.0266  3.9255
  151MOL   H24045540   5.360   5.484   0.650 -0.5252  0.4236  0.7629
  151MOL   H24145541   5.298   5.361   0.546  1.9662  1.4816 -0.7092
  151MOL   C24245542   5.213   5.555   0.516 -0.0880  0.4483 -1.1186
  151MOL   O24345543   5.323   5.613   0.445 -0.3169  0.3139  0.4393
  151MOL   C24445544   5.319   5.741   0.421  0.5155 -0.5882 -0.2902
  151MOL   O24545545   5.228   5.822   0.444 -0.3597  0.0851  0.1142
  151MOL   C24645546   5.453   5.792   0.356  0.1055 -0.1811 -0.8276
  151MOL   C24745547   5.558   5.787   0.466  0.0148  0.3275 -0.0196
  151MOL   C24845548   5.114   5.500   0.410 -0.3073 -0.0751 -0.1854
  151MOL   H24945549   5.156   5.624   0.578  0.2916  1.5473 -1.9836
  151MOL   H25045550   5.469   5.714   0.281 -1.4248 -0.9442 -0.3774
  151MOL   H25145551   5.440   5.888   0.307 -2.0065  0.6908  1.3592
  151MOL   H25245552   5.551   5.697   0.527 -1.4862  0.7269  0.4263
  151MOL   H25345553   5.655   5.787   0.418  0.7038 -0.8838  1.3217
  151MOL   H25445554   5.555   5.877   0.528  2.5263 -0.5573  1.4599
  151MOL   H25545555   5.162   5.458   0.321  1.3548  0.6338  0.3678
  151MOL   H25645556   5.075   5.417   0.469  1.6634 -1.3217 -0.6077
  151MOL   C25745557   4.993   5.592   0.364  0.3273  0.8292 -0.5815
  151MOL   O25845558   4.941   5.540   0.241  0.3892 -0.8195 -0.4660
  151MOL   C25945559   4.888   5.634   0.162 -0.3803 -0.1947  0.1522
  151MOL   O26045560   4.908   5.758   0.189 -0.3035  0.1094 -0.4307
  151MOL   C26145561   4.825   5.576   0.032  0.2544 -0.7660 -0.0375
  151MOL   C26245562   4.896   5.450   7.917 -1.1389 -0.1367  0.3153
  151MOL   C26345563   4.889   5.592   0.473  0.2366  1.0420  0.0377
  151MOL   H26445564   5.038   5.690   0.355  0.2564  0.8439 -0.7881
  151MOL   H26545565   4.720   5.552   0.044  0.1508 -1.2097 -1.7486
  151MOL   H26645566   4.835   5.655   7.903  1.2452 -0.1110  0.7852
  151MOL   H26745567   4.981   5.487   7.860 -0.0771 -1.7013  0.8705
  151MOL   H26845568   4.929   5.376   0.045  1.8347  2.2511  1.5448
  151MOL   H26945569   4.831   5.419   7.836  1.3772  0.9466 -2.2042
  151MOL   H27045570   4.809   5.519   0.459  1.0226  0.1396  0.2405
  151MOL   H27145571   4.931   5.570   0.571 -1.3514 -2.7739 -0.0412
  151MOL   C27245572   4.818   5.729   0.483  0.2185 -0.5310  0.2512
  151MOL   O27345573   4.704   5.703   0.569  0.0537 -0.0887  0.0796
  151MOL   C27445574   4.587   5.665   0.521  0.6394 -0.4719 -0.2457
  151MOL   O27545575   4.562   5.647   0.404 -0.0821  0.7612  0.4400
  151MOL   C27645576   4.473   5.638   0.623  0.1557 -0.5179  0.6305
  151MOL   C27745577   4.523   5.561   0.749 -0.3987 -0.2507 -0.5799
  151MOL   C27845578   4.910   5.842   0.543 -0.0307 -0.1057 -1.2470
  151MOL   H27945579   4.785   5.765   0.386  0.0189  0.7268  0.7853
  151MOL   H28045580   4.429   5.734   0.650  1.2502 -0.0448  0.7850
  151MOL   H28145581   4.405   5.566   0.578  0.4372  0.6539 -1.7224
  151MOL   H28245582   4.597   5.623   0.800  0.9997 -1.8423 -0.6381
  151MOL   H28345583   4.446   5.535   0.822 -2.8166 -0.9136 -3.2984
  151MOL   H28445584   4.566   5.468   0.711  2.5992  0.8177  0.0335
  151MOL   H28545585   4.973   5.810   0.627  0.7203  1.4484 -1.2090
  151MOL   H28645586   4.968   5.876   0.458  0.8416  0.5566 -0.4004
  151MOL   C28745587   4.825   5.968   0.589  0.9398  0.4809 -0.5600
  151MOL   O28845588   4.758   5.937   0.716 -0.0912  0.4440 -0.1771
  151MOL   C28945589   4.629   5.963   0.742  0.0650 -0.2535  0.6628
  151MOL   O29045590   4.549   6.005   0.658  0.0858  0.2566  0.5289
  151MOL   C29145591   4.586   5.944   0.887 -0.6308  0.6343 -0.4063
  151MOL   C29245592   4.694   5.993   0.980 -0.2979 -0.0790 -0.2744
  151MOL   C29345593   4.910   6.087   0.624 -1.5250  0.4813 -0.0368
  151MOL   H29445594   4.749   6.002   0.519  1.5249  2.6088 -0.2061
  151MOL   H29545595   4.487   5.985   0.912 -1.5662 -2.3735  1.0051
  151MOL   H29645596   4.571   5.837   0.903  2.3125  0.0742 -1.2096
  151MOL   H29745597   4.676   5.956   1.081  1.5724 -2.2787 -0.6900
  151MOL   H29845598   4.791   5.944   0.963 -1.2226 -1.9590 -0.3274
  151MOL   H29945599   4.694   6.101   0.988 -1.2445 -0.0039 -1.1228
  151MOL   H30045600   4.971   6.054   0.709 -3.2736 -2.6394  0.0596
  151MOL   H30145601   4.985   6.110   0.549 -0.7672 -1.8801 -0.0256
  151MOL   H30245602   4.854   6.172   0.663 -3.1182 -1.1419  1.2897
  152MOL     C145603   7.863   3.831   6.870 -0.2210  0.1775 -0.1982
  152MOL     O245604   7.771   3.744   6.934 -0.5778  0.2287  0.2564
  152MOL     C345605   7.743   3.627   6.875  0.2464 -0.2882 -0.0552
  152MOL     O445606   7.795   3.592   6.774  0.5905 -0.1820  0.1923
  152MOL     C545607   7.654   3.529   6.957 -0.0956 -0.0372  0.2220
  152MOL     C645608   7.743   3.456   7.061 -0.2124 -0.2787  0.1362
  152MOL     C745609   7.882   3.961   6.956 -0.2890  0.7358  0.9037
  152MOL     H845610   7.844   3.848   6.764  0.7169 -4.4812 -1.2149
  152MOL     H945611   7.583   3.589   7.014 -1.1604  1.5838 -2.7155
  152MOL    H1045612   7.592   3.463   6.897 -0.5408 -0.8005  1.4947
  152MOL    H1145613   7.777   3.360   7.021  0.4187  0.3292 -0.8180
  152MOL    H1245614   7.830   3.514   7.092  0.6822 -1.8908  0.6985
  152MOL    H1345615   7.681   3.431   7.147 -1.8764 -0.0668 -0.9948
  152MOL    H1445616   7.793   4.024   6.959  1.2377  3.2317 -2.3356
  152MOL    H1545617   7.906   3.923   7.055 -0.8727 -0.0688  0.7442
  152MOL    H1645618   0.006   3.767   6.877  0.5878  1.4757  2.0470
  152MOL    C1745619   0.057   4.041   6.903  0.4465 -0.7373 -0.2760
  152MOL    O1845620   0.183   3.955   6.899 -0.0391 -0.3104  0.1531
  152MOL    C1945621   0.274   3.952   6.986 -0.0879 -0.3791 -0.7406
  152MOL    O2045622   0.289   4.035   7.077 -0.0785 -0.1347 -0.4675
  152MOL    C2145623   0.365   3.826   6.976  0.2674 -0.2691  0.3322
  152MOL    C2245624   0.325   3.693   7.055  0.3860 -0.7928  0.2878
  152MOL    C2345625   0.033   4.104   6.762  0.8537  0.1731  0.1102
  152MOL    H2445626   0.082   4.119   6.974  0.1323  0.3542 -1.3524
  152MOL    H2545627   0.375   3.798   6.871  0.6323 -0.6166  0.4580
  152MOL    H2645628   0.466   3.852   7.007 -0.5909  0.3602  2.6999
  152MOL    H2745629   0.378   3.608   7.013  2.2909  1.7046 -2.4987
  152MOL    H2845630   0.340   3.705   7.163  1.8716  1.5915 -0.1387
  152MOL    H2945631   0.219   3.670   7.044  0.1266 -0.0247  1.1271
  152MOL    H3045632   0.128   4.135   6.719 -0.8883  3.6363 -1.4504
  152MOL    H3145633   7.936   4.028   6.696  0.3696  1.3867 -1.0092
  152MOL    C3245634   7.898   4.236   6.773  0.0002  0.1965  0.5561
  152MOL    O3345635   0.039   4.327   6.840  0.4528 -0.7616 -0.1059
  152MOL    C3445636   7.940   4.443   6.900  0.6034  0.5264 -0.3872
  152MOL    O3545637   7.822   4.479   6.902 -0.4235  0.0596  0.3148
  152MOL    C3645638   0.107   4.514   6.978  0.4075 -0.2014 -0.2043
  152MOL    C3745639   0.175   4.410   7.071  0.1277  0.6460 -0.4966
  152MOL    C3845640   7.853   4.285   6.638 -0.1582 -0.7867 -0.4420
  152MOL    H3945641   7.810   4.218   6.835  1.7391 -1.2019  2.6707
  152MOL    H4045642   0.172   4.570   6.911  0.9177 -0.0140  0.4387
  152MOL    H4145643   0.062   4.597   7.033 -1.1197 -0.8484 -0.4434
  152MOL    H4245644   0.112   4.337   7.121  2.1688 -0.6950  0.1802
  152MOL    H4345645   0.251   4.353   7.017 -0.6211 -2.0530  1.1918
  152MOL    H4445646   0.239   4.454   7.148  1.9569  0.4135 -1.8458
  152MOL    H4545647   7.797   4.375   6.665  0.2397 -1.0583  1.3707
  152MOL    H4645648   7.938   4.327   6.584 -1.9091  3.1348 -0.3542
  152MOL    C4745649   7.775   4.187   6.552 -0.0013  0.2971  0.0089
  152MOL    O4845650   7.654   4.152   6.630  0.0242 -0.2827  0.3922
  152MOL    C4945651   7.609   4.029   6.646  0.0537 -0.5120  0.0075
  152MOL    O5045652   7.665   3.929   6.587  0.1675  0.5974  0.0754
  152MOL    C5145653   7.489   4.021   6.737 -0.7310 -0.1631 -0.2158
  152MOL    C5245654   7.406   3.896   6.712 -0.3114 -0.3203  0.3447
  152MOL    C5345655   7.712   4.251   6.426 -0.3903 -0.5331  0.6127
  152MOL    H5445656   7.833   4.102   6.516  1.1765  0.4721  1.4959
  152MOL    H5545657   7.533   4.026   6.837 -0.2658  1.4311 -0.4923
  152MOL    H5645658   7.436   4.116   6.747  1.9623  1.2624  1.4162
  152MOL    H5745659   7.354   3.907   6.617  0.3949  0.4623  0.0393
  152MOL    H5845660   7.477   3.815   6.697 -0.0792  0.3928 -2.6800
  152MOL    H5945661   7.336   3.882   6.794 -2.7033  2.7028 -1.0547
  152MOL    H6045662   7.647   4.179   6.376  0.1571 -1.8574  1.7826
  152MOL    H6145663   7.641   4.328   6.457  0.4772  0.2634  0.6342
  152MOL    C6245664   7.802   4.311   6.321 -0.3220 -0.1580  0.0560
  152MOL    O6345665   7.880   4.210   6.251 -0.7484  0.1255 -0.2364
  152MOL    C6445666   0.058   4.172   6.290 -0.3187  0.9302  0.3118
  152MOL    O6545667   0.128   4.223   6.383  0.6652  0.1477 -0.1872
  152MOL    C6645668   0.107   4.048   6.218 -0.0574 -0.3715  0.1331
  152MOL    C6745669   0.249   4.016   6.225 -0.3303  0.2272 -0.1368
  152MOL    C6845670   7.724   4.393   6.219  0.4042 -0.3178  0.6568
  152MOL    H6945671   7.873   4.374   6.375 -1.9738  0.2418  1.8150
  152MOL    H7045672   0.050   3.970   6.269 -1.1475 -0.3865 -1.0768
  152MOL    H7145673   0.080   4.034   6.113 -0.0705  0.1140  0.0747
  152MOL    H7245674   0.305   4.074   6.152 -2.0719  1.0148 -0.8703
  152MOL    H7345675   0.286   4.040   6.325  0.4233  0.8745 -0.5653
  152MOL    H7445676   0.270   3.912   6.198  1.3092  0.3404  0.6655
  152MOL    H7545677   7.673   4.317   6.160 -0.2305 -0.6400  1.6032
  152MOL    H7645678   7.645   4.449   6.270 -0.5633  0.1432 -1.2909
  152MOL    C7745679   7.808   4.488   6.129 -0.2145 -0.3597  0.1896
  152MOL    O7845680   7.716   4.547   6.025 -0.3159  0.3589 -0.3657
  152MOL    C7945681   7.738   4.513   5.892 -0.5801  0.7255 -0.1741
  152MOL    O8045682   7.822   4.434   5.854 -0.1058  0.3275 -0.0960
  152MOL    C8145683   7.634   4.577   5.801 -0.3214 -0.0258 -0.4403
  152MOL    C8245684   7.488   4.542   5.828 -0.1113  0.2663 -0.1298
  152MOL    C8345685   7.865   4.602   6.213  0.4575  0.2460 -0.0960
  152MOL    H8445686   7.884   4.423   6.086 -0.3041 -0.1691 -0.2689
  152MOL    H8545687   7.644   4.686   5.801 -1.1235  0.0641 -1.8238
  152MOL    H8645688   7.668   4.556   5.700 -1.7081 -2.1451 -0.4898
  152MOL    H8745689   7.438   4.598   5.907  1.2355  3.8000 -1.7126
  152MOL    H8845690   7.433   4.569   5.738  1.7134  1.5418 -0.9012
  152MOL    H8945691   7.479   4.438   5.860 -2.0697  1.0198  1.8337
  152MOL    H9045692   7.841   4.697   6.165  4.8729  0.5438 -1.9310
  152MOL    H9145693   7.823   4.606   6.314  0.3272 -1.5859 -0.0587
  152MOL    C9245694   0.077   4.606   6.226  0.1604 -0.3093 -0.4668
  152MOL    O9345695   0.133   4.633   6.091  1.4683 -0.5684  0.4406
  152MOL    C9445696   0.214   4.536   6.034  0.4549  0.5319  0.4538
  152MOL    O9545697   0.247   4.429   6.085 -0.2872 -0.3110  0.2955
  152MOL    C9645698   0.272   4.590   5.903  0.0291  0.1889 -0.1957
  152MOL    C9745699   0.388   4.510   5.851  0.4025  0.4046  0.3884
  152MOL    C9845700   0.142   4.699   6.332 -0.2224 -0.9149 -0.6088
  152MOL    H9945701   0.101   4.505   6.257  0.0910  0.4474  2.2327
  152MOL   H10045702   0.189   4.578   5.834  0.3433  0.7317 -0.6645
  152MOL   H10145703   0.293   4.697   5.899  0.8557  0.0627  0.5408
  152MOL   H10245704   0.445   4.548   5.766  0.7033  1.3802  1.0160
  152MOL   H10345705   0.451   4.492   5.937 -1.9917  2.4588  2.6644
  152MOL   H10445706   0.349   4.411   5.829 -2.0704  1.3273  0.4520
  152MOL   H10545707   0.144   4.801   6.294  2.8478  0.1586  2.2290
  152MOL   H10645708   0.082   4.693   6.422 -2.6458  0.2340 -2.1066
  152MOL   C10745709   0.283   4.650   6.358  0.0428  0.1894 -0.3943
  152MOL   O10845710   0.370   4.756   6.311 -0.3674  0.0646 -0.5086
  152MOL   C10945711   0.498   4.734   6.269  0.0739  0.1553  0.2849
  152MOL   O11045712   0.558   4.627   6.255 -0.0626 -0.2941  0.4897
  152MOL   C11145713   0.568   4.868   6.247  0.0896 -1.0346  0.3223
  152MOL   C11245714   0.484   4.951   6.150 -0.6042  0.0399  0.2480
  152MOL   C11345715   0.318   4.615   6.506 -1.1505 -0.1765 -0.6095
  152MOL   H11445716   0.299   4.557   6.304  0.6022  0.2258 -0.3008
  152MOL   H11545717   0.572   4.916   6.345 -0.3233 -0.1400 -0.0872
  152MOL   H11645718   0.668   4.864   6.205 -0.2826  1.1928 -0.8540
  152MOL   H11745719   0.377   4.930   6.157 -0.9919  2.1142  0.6951
  152MOL   H11845720   0.502   5.056   6.172 -1.9972  0.7589 -1.9704
  152MOL   H11945721   0.516   4.930   6.048  2.2628 -0.1574  1.1509
  152MOL   H12045722   0.338   4.713   6.550  0.2269 -0.0777 -1.4333
  152MOL   H12145723   0.232   4.569   6.555  0.9820 -0.2404  3.1844
  152MOL   C12245724   0.438   4.526   6.545 -0.2796  0.2549  0.3909
  152MOL   O12345725   0.443   4.501   6.683  0.5305 -0.5313 -0.2240
  152MOL   C12445726   0.486   4.596   6.768  0.3146 -0.2530  0.2852
  152MOL   O12545727   0.499   4.715   6.739  0.9264  0.1731  0.2085
  152MOL   C12645728   0.510   4.543   6.911  0.8576  0.7460 -0.3732
  152MOL   C12745729   0.600   4.628   7.003 -0.1817 -0.6189 -0.3258
  152MOL   C12845730   0.437   4.391   6.476  0.0884  0.4362 -0.3879
  152MOL   H12945731   0.530   4.576   6.514  0.0077  0.4071  1.4871
  152MOL   H13045732   0.412   4.540   6.958 -0.2433  0.5428 -2.5855
  152MOL   H13145733   0.557   4.446   6.896  2.2558  1.5955 -1.7070
  152MOL   H13245734   0.597   4.737   6.990  0.0431 -0.6349 -0.5446
  152MOL   H13345735   0.573   4.612   7.107 -0.4045  1.2259 -0.0839
  152MOL   H13445736   0.704   4.604   6.979 -0.6338 -3.1900  0.1829
  152MOL   H13545737   0.352   4.332   6.509  0.5585 -0.5271 -0.8606
  152MOL   H13645738   0.418   4.407   6.370 -0.9167 -2.0436 -0.6091
  152MOL   C13745739   0.573   4.317   6.486 -0.0432  0.4607 -0.0290
  152MOL   O13845740   0.584   4.235   6.601 -0.3660  0.2086 -0.2266
  152MOL   C13945741   0.691   4.252   6.685 -0.5517 -0.2132 -0.4263
  152MOL   O14045742   0.789   4.328   6.671  0.3382  0.4735  0.0309
  152MOL   C14145743   0.677   4.162   6.807  0.0059 -0.2642 -0.6020
  152MOL   C14245744   0.537   4.146   6.869 -0.1531  0.3104  0.8142
  152MOL   C14345745   0.591   4.224   6.360 -0.4545 -0.2083 -0.0294
  152MOL   H14445746   0.652   4.392   6.477  1.5689 -0.8553  2.4312
  152MOL   H14545747   0.734   4.070   6.789  0.3445 -0.4315  1.2790
  152MOL   H14645748   0.734   4.211   6.885  0.2346 -2.0129  0.3479
  152MOL   H14745749   0.550   4.071   6.947 -0.2661  1.5613  2.0606
  152MOL   H14845750   0.498   4.237   6.916  0.7199  2.3337 -2.2338
  152MOL   H14945751   0.468   4.106   6.795  0.5135  1.9008 -0.7206
  152MOL   H15045752   0.508   4.153   6.361 -0.7577  0.1445  0.1764
  152MOL   H15145753   0.578   4.280   6.267  0.7092  0.0955 -0.0178
  152MOL   C15245754   0.730   4.166   6.337  0.5173  0.1681  0.6738
  152MOL   O15345755   0.714   4.047   6.266 -0.3922  0.4787  0.0179
  152MOL   C15445756   0.729   3.928   6.329 -0.6910 -0.1924 -0.1290
  152MOL   O15545757   0.759   3.921   6.449 -0.4620 -0.7598  0.6158
  152MOL   C15645758   0.724   3.805   6.245  1.2387  0.3197  0.4814
  152MOL   C15745759   0.739   3.663   6.318 -0.1015  0.2159  1.1145
  152MOL   C15845760   0.820   4.273   6.266 -0.4708  0.2259  0.1023
  152MOL   H15945761   0.774   4.147   6.435  0.6207 -3.0650  0.0591
  152MOL   H16045762   0.630   3.810   6.189  1.4938  1.5987  0.1499
  152MOL   H16145763   0.801   3.815   6.168  0.6958 -2.3993 -0.4846
  152MOL   H16245764   0.656   3.610   6.363 -0.2313 -1.4813 -1.0101
  152MOL   H16345765   0.788   3.588   6.256 -1.5043  1.2619 -1.3339
  152MOL   H16445766   0.806   3.677   6.403  0.1943  1.0322  0.7551
  152MOL   H16545767   0.782   4.276   6.163 -4.0946  0.1126  1.3619
  152MOL   H16645768   0.804   4.368   6.317 -0.4548 -0.8844  2.2320
  152MOL   C16745769   0.960   4.242   6.266 -0.0440  0.2997 -0.6502
  152MOL   O16845770   1.031   4.316   6.164  0.3023 -0.0940  0.1315
  152MOL   C16945771   1.102   4.248   6.072  0.0181  1.5156  0.5134
  152MOL   O17045772   1.125   4.127   6.065  0.0575  0.1402  0.1394
  152MOL   C17145773   1.201   4.333   5.994  0.2492  0.4058  0.2962
  152MOL   C17245774   1.244   4.270   5.862 -0.1952  0.0474 -0.0358
  152MOL   C17345775   1.034   4.255   6.407  0.1134  0.1232 -0.3114
  152MOL   H17445776   0.972   4.137   6.239  2.7130  0.9244 -2.0399
  152MOL   H17545777   1.158   4.431   5.974  3.1467  1.5582 -0.5627
  152MOL   H17645778   1.294   4.347   6.050  0.7597 -0.7243 -0.2647
  152MOL   H17745779   1.300   4.350   5.813  0.1350  1.1403  2.0631
  152MOL   H17845780   1.313   4.186   5.878 -0.8376 -0.9400 -2.2994
  152MOL   H17945781   1.153   4.236   5.813  0.7278 -1.2315 -0.8916
  152MOL   H18045782   0.986   4.210   6.493 -0.0092 -2.4377 -1.6826
  152MOL   H18145783   1.130   4.206   6.390  0.0070  0.1939 -1.1686
  152MOL   C18245784   1.069   4.401   6.450 -0.6854  0.1021 -0.1972
  152MOL   O18345785   0.968   4.465   6.527  0.1287 -1.0890 -0.1219
  152MOL   C18445786   0.947   4.602   6.518 -0.3234 -0.0232 -0.1207
  152MOL   O18545787   1.000   4.673   6.429  0.9270 -0.0440  0.4318
  152MOL   C18645788   0.863   4.654   6.630  0.2176 -0.2070 -0.3307
  152MOL   C18745789   0.831   4.797   6.616  0.0348 -0.2969 -0.2693
  152MOL   C18845790   1.200   4.407   6.530 -0.7341  0.3914 -0.5870
  152MOL   H18945791   1.079   4.465   6.362 -0.0631  2.0248  1.2252
  152MOL   H19045792   0.767   4.606   6.614  0.6313 -1.3542  0.5324
  152MOL   H19145793   0.907   4.617   6.723  0.2693 -2.9701 -1.4016
  152MOL   H19245794   0.749   4.823   6.683  1.0489  0.8738  0.5564
  152MOL   H19345795   0.905   4.869   6.652  1.5246 -1.6383 -0.6154
  152MOL   H19445796   0.798   4.823   6.516 -1.2502 -1.5930 -0.1863
  152MOL   H19545797   1.204   4.482   6.609 -2.6684 -1.6920  1.5618
  152MOL   H19645798   1.209   4.318   6.594 -1.2515  0.5894 -0.2369
  152MOL   C19745799   1.324   4.419   6.441  0.1559  0.1621 -0.5188
  152MOL   O19845800   1.354   4.552   6.425 -0.0347 -0.0344 -0.3249
  152MOL   C19945801   1.335   4.612   6.314 -0.8158  0.0637  0.5685
  152MOL   O20045802   1.308   4.555   6.209 -0.3278  0.2841 -0.5289
  152MOL   C20145803   1.318   4.769   6.315 -0.5674  0.0167 -0.1528
  152MOL   C20245804   1.210   4.810   6.215 -0.0070 -0.1528  0.2054
  152MOL   C20345805   1.452   4.357   6.505 -0.1787 -0.1552  0.5615
  152MOL   H20445806   1.306   4.371   6.344 -1.7468 -1.2976  0.5045
  152MOL   H20545807   1.280   4.802   6.412 -0.7289 -2.6596  0.7402
  152MOL   H20645808   1.404   4.829   6.284 -1.8402  1.6076 -0.7387
  152MOL   H20745809   1.110   4.789   6.254 -0.5633 -0.7427 -1.4956
  152MOL   H20845810   1.212   4.918   6.202 -0.3892 -0.1617  0.0801
  152MOL   H20945811   1.213   4.764   6.117 -4.4279  0.5357 -0.3518
  152MOL   H21045812   1.477   4.391   6.606  1.0300  0.2095  0.1461
  152MOL   H21145813   1.439   4.249   6.508 -0.1666 -0.1254  2.0068
  152MOL   C21245814   1.581   4.369   6.427 -0.1599 -0.5339 -0.2411
  152MOL   O21345815   1.627   4.501   6.414 -0.1476 -0.3976 -0.1777
  152MOL   C21445816   1.683   4.569   6.519  0.3101  0.3557  0.4369
  152MOL   O21545817   1.691   4.533   6.635 -0.1623 -0.1056 -0.3057
  152MOL   C21645818   1.732   4.704   6.485 -0.3334 -0.1843  0.9472
  152MOL   C21745819   1.877   4.689   6.429 -0.1578  0.0538  0.0795
  152MOL   C21845820   1.692   4.268   6.460 -0.5165  0.3091  1.1241
  152MOL   H21945821   1.554   4.346   6.324  0.7841 -0.4351 -0.5209
  152MOL   H22045822   1.664   4.748   6.413  0.8891 -0.4062 -0.3816
  152MOL   H22145823   1.722   4.766   6.574 -2.0545 -0.8443  1.2165
  152MOL   H22245824   1.929   4.778   6.394  1.4799 -1.3594 -1.0976
  152MOL   H22345825   1.942   4.643   6.503  0.0654  1.2527  0.6478
  152MOL   H22445826   1.879   4.615   6.349 -1.0476  2.0396 -1.8457
  152MOL   H22545827   1.788   4.304   6.423 -0.1770 -0.4991  1.2312
  152MOL   H22645828   1.695   4.276   6.569  0.5360 -0.2474  1.1416
  152MOL   C22745829   1.666   4.127   6.409  0.4014 -0.5497 -0.2183
  152MOL   O22845830   1.668   4.138   6.264  0.0987  0.2881 -0.1212
  152MOL   C22945831   1.553   4.112   6.191  0.2356 -0.1424  0.2330
  152MOL   O23045832   1.441   4.087   6.239  0.8084 -0.1575 -0.0548
  152MOL   C23145833   1.585   4.112   6.038  0.8108  0.1118 -0.5080
  152MOL   C23245834   1.626   4.254   5.985  0.1408 -0.2944  0.4898
  152MOL   C23345835   1.775   4.030   6.437  0.3171  0.8992  1.3048
  152MOL   H23445836   1.573   4.078   6.437  1.6497 -2.5510  0.5180
  152MOL   H23545837   1.670   4.048   6.019  0.5495  0.0664 -1.5978
  152MOL   H23645838   1.498   4.074   5.984 -0.3632  2.1262 -0.1080
  152MOL   H23745839   1.694   4.302   6.055  0.1880 -2.5403  2.0456
  152MOL   H23845840   1.677   4.241   5.889 -0.0624 -0.5306  0.4111
  152MOL   H23945841   1.527   4.298   5.969  1.2103  1.7628 -0.6672
  152MOL   H24045842   1.746   3.942   6.380  2.4495  0.6619  0.5667
  152MOL   H24145843   1.868   4.072   6.399 -0.3094  2.6167  1.6131
  152MOL   C24245844   1.783   3.992   6.587  0.2777 -0.1708 -0.6187
  152MOL   O24345845   1.662   3.948   6.634 -0.2326  0.1718 -0.3159
  152MOL   C24445846   1.597   4.017   6.731  0.3289 -0.2045 -0.2869
  152MOL   O24545847   1.633   4.130   6.777  0.4884 -0.2529  0.2084
  152MOL   C24645848   1.478   3.940   6.789  0.1259  0.1342 -0.0561
  152MOL   C24745849   1.524   3.828   6.881  0.4277  0.1119 -0.4492
  152MOL   C24845850   1.884   3.880   6.607 -0.1666  0.7519 -0.5846
  152MOL   H24945851   1.815   4.077   6.647  2.9768 -1.9058  0.5333
  152MOL   H25045852   1.403   4.005   6.834 -1.8908  1.0840 -4.5245
  152MOL   H25145853   1.430   3.892   6.703 -0.9410  0.5562  0.2938
  152MOL   H25245854   1.573   3.749   6.825  0.5414  0.1098 -0.3456
  152MOL   H25345855   1.581   3.876   6.961  0.7336 -2.4031  0.8887
  152MOL   H25445856   1.436   3.777   6.922  1.7436 -2.0172 -0.2059
  152MOL   H25545857   1.861   3.795   6.543 -0.7685 -0.0156  0.6323
  152MOL   H25645858   1.977   3.923   6.569 -0.9961  2.4855 -0.7050
  152MOL   C25745859   1.909   3.825   6.746  0.0092 -0.2208 -0.3357
  152MOL   O25845860   2.009   3.721   6.748 -0.4678  0.0984 -0.3497
  152MOL   C25945861   1.973   3.587   6.751 -0.0004 -0.1312  0.0834
  152MOL   O26045862   1.863   3.535   6.753  0.6742 -0.7513 -0.3654
  152MOL   C26145863   2.103   3.498   6.762 -0.1394  0.3341  0.5505
  152MOL   C26245864   2.162   3.481   6.902 -0.0575 -0.2454  0.4805
  152MOL   C26345865   1.963   3.926   6.852  0.2789 -0.1299 -0.1277
  152MOL   H26445866   1.813   3.784   6.777 -0.3477 -1.6535 -3.1814
  152MOL   H26545867   2.077   3.400   6.721  3.8044  0.3449 -2.2775
  152MOL   H26645868   2.171   3.549   6.694 -0.7623 -2.5178 -2.3190
  152MOL   H26745869   2.103   3.426   6.975  0.3302  0.5091  1.3816
  152MOL   H26845870   2.267   3.451   6.892 -0.3343 -1.1295  0.1914
  152MOL   H26945871   2.166   3.583   6.942 -0.3575 -1.3629  3.4845
  152MOL   H27045872   2.065   3.949   6.824  0.2921  0.6419  0.5379
  152MOL   H27145873   1.904   4.018   6.848  0.1428 -0.2755 -1.4990
  152MOL   C27245874   1.973   3.880   6.997 -0.4313  0.1015  0.3392
  152MOL   O27345875   2.024   3.985   7.069 -0.5030  0.0558 -0.2441
  152MOL   C27445876   2.154   3.982   7.096  0.3682  0.4921  0.3737
  152MOL   O27545877   2.234   3.885   7.092  0.0067  0.4631 -0.0222
  152MOL   C27645878   2.197   4.124   7.134  0.8531  0.3073  0.0093
  152MOL   C27745879   2.349   4.141   7.107  0.4506  0.4067  0.4976
  152MOL   C27845880   1.838   3.834   7.058 -0.8151 -0.2922  0.6629
  152MOL   H27945881   2.045   3.799   6.992  0.4717  0.9828 -1.6946
  152MOL   H28045882   2.156   4.193   7.059  2.0528  1.1175  0.0903
  152MOL   H28145883   2.162   4.153   7.233  0.5972  1.0021 -0.2781
  152MOL   H28245884   2.376   4.244   7.084 -0.6886  0.6510  0.2604
  152MOL   H28345885   2.393   4.106   7.200 -0.9167 -0.0395  0.9868
  152MOL   H28445886   2.379   4.084   7.019 -0.2499 -1.0557  1.1988
  152MOL   H28545887   1.772   3.902   7.113 -3.1369 -1.6143 -0.4055
  152MOL   H28645888   1.777   3.793   6.978 -0.5341  0.3797  0.1006
  152MOL   C28745889   1.855   3.714   7.158  0.4602 -0.4347  0.2849
  152MOL   O28845890   1.916   3.754   7.278  0.4613 -0.4839 -0.0443
  152MOL   C28945891   2.024   3.685   7.327 -0.2163 -0.1197  0.1985
  152MOL   O29045892   2.079   3.584   7.278  0.3122 -0.0080 -0.2054
  152MOL   C29145893   2.085   3.763   7.446 -0.3681  0.2068 -0.0417
  152MOL   C29245894   2.175   3.877   7.404  0.0802  0.0030 -0.1755
  152MOL   C29345895   1.723   3.656   7.201  0.6771  0.2192 -0.1154
  152MOL   H29445896   1.913   3.636   7.109  1.0464 -0.0875  0.4147
  152MOL   H29545897   2.002   3.798   7.508  0.2501 -1.1055  1.5657
  152MOL   H29645898   2.145   3.693   7.503 -2.3886 -2.6166 -1.2855
  152MOL   H29745899   2.258   3.861   7.335  1.2956  0.6605  1.0920
  152MOL   H29845900   2.108   3.948   7.356  0.0292 -0.9878 -1.5974
  152MOL   H29945901   2.214   3.920   7.497  0.2890  1.7265 -1.0375
  152MOL   H30045902   1.676   3.742   7.249  1.4457  0.5397  0.0709
  152MOL   H30145903   1.670   3.622   7.113 -1.3475  0.3282  1.0288
  152MOL   H30245904   1.734   3.566   7.261  0.0426 -0.0538 -0.4057
  153MOL     C145905   5.973   6.380   0.325  0.2856  0.3954 -0.8474
  153MOL     O245906   6.055   6.459   0.235 -0.1960 -0.7867  0.1317
  153MOL     C345907   6.181   6.431   0.203  0.3362  0.1421 -0.3851
  153MOL     O445908   6.250   6.342   0.257  0.0564  0.5273  0.6359
  153MOL     C545909   6.228   6.514   0.091  0.0577 -0.0036  0.3120
  153MOL     C645910   6.149   6.504   7.907 -0.1020  0.3929  0.6178
  153MOL     C745911   5.842   6.335   0.253  0.3066 -0.0618 -0.5160
  153MOL     H845912   5.939   6.422   0.419  1.5724 -2.3091  0.9007
  153MOL     H945913   6.225   6.617   0.128  0.1715  0.7420 -1.7111
  153MOL    H1045914   6.334   6.492   0.077 -0.0034 -0.3763  0.4477
  153MOL    H1145915   6.159   6.586   7.836  0.7590  0.9049  1.3202
  153MOL    H1245916   6.178   6.414   7.852  1.0984  1.9619 -1.3908
  153MOL    H1345917   6.042   6.485   7.915 -0.4084  0.8606 -1.9249
  153MOL    H1445918   5.801   6.428   0.214  1.2702  0.1188 -1.1233
  153MOL    H1545919   5.874   6.267   0.173  1.6299 -1.9374  1.5623
  153MOL    H1645920   6.033   6.299   0.367  1.7604  1.7389 -0.3632
  153MOL    C1745921   5.746   6.260   0.339  0.8247 -0.1925  0.2425
  153MOL    O1845922   5.701   6.335   0.446  0.5282 -0.1168  0.2960
  153MOL    C1945923   5.695   6.281   0.572 -0.3773 -0.2614  0.0836
  153MOL    O2045924   5.729   6.167   0.603  0.3731  0.2593 -0.6390
  153MOL    C2145925   5.658   6.373   0.682  0.1196 -0.9434  0.2005
  153MOL    C2245926   5.558   6.480   0.644  0.3127 -0.0468 -0.1613
  153MOL    C2345927   5.622   6.216   0.257  0.0690  0.2282  0.2108
  153MOL    H2445928   5.792   6.169   0.377  0.1868 -0.3169  0.7331
  153MOL    H2545929   5.624   6.317   0.769  3.0451  0.0043  2.0268
  153MOL    H2645930   5.745   6.426   0.720 -0.8888  1.8467 -1.1893
  153MOL    H2745931   5.603   6.553   0.577  0.3411  0.5086  0.4501
  153MOL    H2845932   5.474   6.441   0.586 -0.1333 -0.0163  0.4542
  153MOL    H2945933   5.524   6.534   0.733  0.1479  2.0881 -1.4929
  153MOL    H3045934   5.563   6.155   0.327 -0.4090 -0.5430 -0.8554
  153MOL    H3145935   5.569   6.306   0.228 -0.1322 -0.2030 -0.7745
  153MOL    C3245936   5.650   6.127   0.135  0.1105  0.3711  0.4002
  153MOL    O3345937   5.722   6.009   0.184  0.1314  0.6360 -0.0532
  153MOL    C3445938   5.852   5.989   0.151 -0.0356  0.3579 -0.0410
  153MOL    O3545939   5.912   6.044   0.065  0.5696  0.0111 -0.4956
  153MOL    C3645940   5.923   5.882   0.228 -0.0559 -0.5433 -0.1239
  153MOL    C3745941   5.890   5.744   0.166 -0.7659  0.1980  0.3580
  153MOL    C3845942   5.526   6.073   0.059 -0.3192 -0.1437  0.8143
  153MOL    H3945943   5.703   6.185   0.059  0.3034 -0.9978 -0.5287
  153MOL    H4045944   6.025   5.911   0.252  0.0606  0.3137 -1.6615
  153MOL    H4145945   5.893   5.891   0.333 -0.3146  1.4550 -0.3524
  153MOL    H4245946   5.914   5.756   0.060 -2.3979  2.2884  0.1920
  153MOL    H4345947   5.945   5.666   0.219 -1.0781 -1.6608 -1.9550
  153MOL    H4445948   5.782   5.731   0.167 -0.7782  0.0887 -1.4329
  153MOL    H4545949   5.474   6.001   0.123 -0.0900  0.6701  1.9226
  153MOL    H4645950   5.456   6.155   0.046 -0.8280 -0.9645 -2.0080
  153MOL    C4745951   5.570   6.016   7.866  0.4254 -0.6433  0.0004
  153MOL    O4845952   5.475   5.923   7.823  0.8718  0.3422  0.8710
  153MOL    C4945953   5.487   5.782   7.845  0.3041 -0.0574  0.5216
  153MOL    O5045954   5.576   5.730   7.915 -0.1428  0.0137 -0.4686
  153MOL    C5145955   5.397   5.694   7.761  0.5850 -0.1147 -0.2830
  153MOL    C5245956   5.250   5.733   7.759  0.3941 -0.5213 -0.9809
  153MOL    C5345957   5.588   6.128   7.762  0.2896 -0.6550 -0.0839
  153MOL    H5445958   5.667   5.968   7.867 -0.2014 -1.9431  2.6274
  153MOL    H5545959   5.438   5.702   7.660  1.1737  1.4987  0.0799
  153MOL    H5645960   5.407   5.589   7.789  2.1955  0.7024  2.4095
  153MOL    H5745961   5.207   5.685   7.671  0.1847 -0.3149 -0.9915
  153MOL    H5845962   5.218   5.705   7.859  0.7212  0.1606 -0.6848
  153MOL    H5945963   5.236   5.837   7.732 -2.7141 -0.4322  0.8380
  153MOL    H6045964   5.508   6.201   7.755  2.3666  1.6892 -0.1644
  153MOL    H6145965   5.670   6.194   7.792 -0.6363  0.2942  0.3832
  153MOL    C6245966   5.619   6.081   7.619 -0.7791 -0.2542  0.0628
  153MOL    O6345967   5.513   6.133   7.536 -0.4752 -0.2926  0.2178
  153MOL    C6445968   5.409   6.057   7.502  0.8315  0.3530 -0.7976
  153MOL    O6545969   5.388   5.935   7.535  0.0959  0.4968 -0.5776
  153MOL    C6645970   5.295   6.128   7.428  0.4267 -0.1121  0.3209
  153MOL    C6745971   5.184   6.166   7.526 -0.8078 -0.1985  0.4313
  153MOL    C6845972   5.749   6.136   7.553 -0.1021  0.0222  0.5400
  153MOL    H6945973   5.615   5.972   7.612 -2.5559 -0.1612 -0.7982
  153MOL    H7045974   5.342   6.206   7.367 -1.1913 -0.1579 -1.0180
  153MOL    H7145975   5.255   6.058   7.354  1.1323 -0.5965  0.3934
  153MOL    H7245976   5.105   6.231   7.487  0.4784  1.3785  0.3576
  153MOL    H7345977   5.126   6.083   7.564 -0.7741 -1.3961 -2.0883
  153MOL    H7445978   5.234   6.205   7.615  1.2812 -0.0675 -0.7467
  153MOL    H7545979   5.740   6.110   7.447 -1.1893  1.5837  0.2386
  153MOL    H7645980   5.749   6.244   7.562 -2.0978  0.1654 -0.8850
  153MOL    C7745981   5.874   6.087   7.625  0.1036 -0.5973  0.5087
  153MOL    O7845982   5.868   5.949   7.647 -0.0264 -0.2025 -0.3368
  153MOL    C7945983   5.838   5.854   7.558  0.8511 -0.5434  0.0843
  153MOL    O8045984   5.805   5.871   7.443  0.0044 -0.1053  0.1087
  153MOL    C8145985   5.852   5.713   7.626 -0.1575  0.1699 -0.2134
  153MOL    C8245986   5.993   5.706   7.696  0.5593 -0.5299 -0.5178
  153MOL    C8345987   5.996   6.129   7.541  0.4329 -0.0732 -0.4152
  153MOL    H8445988   5.870   6.134   7.724 -1.5042 -0.1208  0.2277
  153MOL    H8545989   5.775   5.700   7.703 -0.5763 -1.5063 -0.9134
  153MOL    H8645990   5.840   5.639   7.548 -0.1411  0.7838 -0.8056
  153MOL    H8745991   6.014   5.789   7.763 -0.8476 -1.5212  1.2043
  153MOL    H8845992   6.005   5.614   7.753  1.6235  0.0643  0.2421
  153MOL    H8945993   6.073   5.705   7.622  1.1853 -1.1525  0.1493
  153MOL    H9045994   5.978   6.093   7.439  0.6664 -0.1234 -0.4371
  153MOL    H9145995   5.995   6.238   7.541  1.1017 -0.0705  0.4080
  153MOL    C9245996   6.129   6.073   7.589  0.0674  0.2781 -0.5179
  153MOL    O9345997   6.229   6.119   7.501 -0.2978  0.0501  0.5583
  153MOL    C9445998   6.300   6.042   7.420 -0.1780  0.4377  0.0698
  153MOL    O9545999   6.281   5.921   7.415 -0.1415 -0.1469 -0.3859
  153MOL    C9646000   6.401   6.119   7.340 -0.0173 -0.0299  0.5049
  153MOL    C9746001   6.332   6.228   7.252  0.1969  0.6963  0.9487
  153MOL    C9846002   6.156   6.110   7.734  0.0946  0.2996 -0.7389
  153MOL    H9946003   6.124   5.964   7.587  1.8502  0.1945 -2.3112
  153MOL   H10046004   6.473   6.170   7.404  0.4466  0.6614 -0.5650
  153MOL   H10146005   6.464   6.055   7.277 -1.9866 -0.0779 -1.4831
  153MOL   H10246006   6.414   6.286   7.211  1.6477 -2.2723 -0.5214
  153MOL   H10346007   6.276   6.180   7.172  0.9991 -0.3248  0.9886
  153MOL   H10446008   6.268   6.295   7.309  0.2809 -0.6329  2.6670
  153MOL   H10546009   6.182   6.216   7.742  5.2465 -1.0045  1.5138
  153MOL   H10646010   6.073   6.108   7.805  1.1803 -3.0366  0.5135
  153MOL   C10746011   6.264   6.023   7.802  0.4136 -0.0271 -0.5838
  153MOL   O10846012   6.372   5.995   7.721  0.6600 -0.2094  0.1619
  153MOL   C10946013   6.410   5.862   7.706 -0.1642  0.2549  0.4807
  153MOL   O11046014   6.359   5.765   7.757  0.6327 -0.0706 -0.3802
  153MOL   C11146015   6.534   5.848   7.626  0.2305 -0.0612 -0.1173
  153MOL   C11246016   6.656   5.825   7.712 -0.8365  0.1496 -1.1668
  153MOL   C11346017   6.299   6.082   7.939  0.1905 -0.0993  0.9009
  153MOL   H11446018   6.200   5.942   7.836 -0.5159  1.6327  1.7780
  153MOL   H11546019   6.527   5.760   7.562  0.2960 -2.0619  2.5340
  153MOL   H11646020   6.540   5.937   7.563 -1.2094  0.1858  0.0856
  153MOL   H11746021   6.661   5.732   7.769 -1.3973  0.6684 -0.2425
  153MOL   H11846022   6.746   5.838   7.653  0.2447  0.6489  0.5520
  153MOL   H11946023   6.661   5.900   7.792  1.1433  0.9146 -1.9682
  153MOL   H12046024   6.342   6.181   7.920 -0.0939  0.2115  1.8394
  153MOL   H12146025   6.206   6.095   0.049 -0.2431  5.5808 -0.8077
  153MOL   C12246026   6.385   5.990   0.079  0.3464 -0.0888 -0.3254
  153MOL   O12346027   6.437   6.077   0.182 -0.2372 -0.0783 -0.0991
  153MOL   C12446028   6.567   6.076   0.219 -0.1197 -0.4230 -0.1343
  153MOL   O12546029   6.657   6.006   0.174  0.1218  0.8669  0.1290
  153MOL   C12646030   6.589   6.170   0.344  1.0167 -0.4586  0.4217
  153MOL   C12746031   6.548   6.106   0.469 -0.2548  0.2850 -0.2079
  153MOL   C12846032   6.317   5.868   0.144 -0.2241 -0.0092 -0.0715
  153MOL   H12946033   6.469   5.957   0.018  0.3772  0.9478 -0.8495
  153MOL   H13046034   6.684   6.222   0.350  0.5968  0.5138 -1.0401
  153MOL   H13146035   6.515   6.249   0.333  1.5171 -0.1369 -0.7276
  153MOL   H13246036   6.556   6.169   0.557  1.4531 -0.1810 -0.0113
  153MOL   H13346037   6.448   6.065   0.481  0.0538  0.3015  2.8771
  153MOL   H13446038   6.621   6.025   0.466 -0.5930  0.0110 -1.5281
  153MOL   H13546039   6.248   5.896   0.224 -0.0796  0.9381 -0.2811
  153MOL   H13646040   6.270   5.801   0.072  1.3939  0.8315 -1.9368
  153MOL   C13746041   6.420   5.774   0.217 -0.3799  0.0020  0.5857
  153MOL   O13846042   6.341   5.690   0.293  0.6607  0.4325  0.1569
  153MOL   C13946043   6.313   5.723   0.423 -0.1263  0.6832  0.4783
  153MOL   O14046044   6.364   5.812   0.486  0.8978 -0.7551  0.0640
  153MOL   C14146045   6.214   5.627   0.489 -0.3196  0.2810  0.4695
  153MOL   C14246046   6.255   5.474   0.470  0.4254 -0.0680  0.2589
  153MOL   C14346047   6.507   5.679   0.121  0.2390 -0.3476 -0.3813
  153MOL   H14446048   6.484   5.842   0.272 -0.1796 -0.2364  0.6497
  153MOL   H14546049   6.213   5.650   0.595  1.0231  2.0039  0.1423
  153MOL   H14646050   6.115   5.642   0.447 -0.0121 -2.0488 -1.2082
  153MOL   H14746051   6.292   5.452   0.370  0.0102 -0.7588  0.2573
  153MOL   H14846052   6.334   5.451   0.542  0.3771  1.2561  0.7555
  153MOL   H14946053   6.170   5.407   0.481 -1.0471  1.7865  0.5304
  153MOL   H15046054   6.441   5.617   0.060  1.7213  0.7788 -3.2158
  153MOL   H15146055   6.554   5.742   0.046 -0.9058  2.4100  1.1185
  153MOL   C15246056   6.624   5.595   0.181  0.5286 -0.4761  0.1409
  153MOL   O15346057   6.723   5.687   0.220  0.9206  0.2789 -0.2589
  153MOL   C15446058   6.835   5.712   0.141 -0.7734 -0.3960 -0.0700
  153MOL   O15546059   6.865   5.648   0.040  0.3700 -0.4845 -0.3301
  153MOL   C15646060   6.934   5.814   0.195  0.2797 -0.0853  0.5268
  153MOL   C15746061   7.011   5.746   0.308  0.1889 -0.3303  0.1563
  153MOL   C15846062   6.594   5.496   0.295 -0.0391 -0.0758  0.5498
  153MOL   H15946063   6.665   5.536   0.099  0.5150 -0.3111  0.0145
  153MOL   H16046064   7.010   5.830   0.119  0.0045 -0.5997  0.1416
  153MOL   H16146065   6.893   5.913   0.213 -1.7724 -0.1804 -3.1227
  153MOL   H16246066   7.086   5.812   0.353  0.0645  0.9177 -1.4079
  153MOL   H16346067   6.935   5.725   0.383  0.3376 -0.2657  0.3269
  153MOL   H16446068   7.064   5.655   0.277  0.7731 -0.0140  0.2096
  153MOL   H16546069   6.553   5.550   0.381  1.4154  1.3206  0.3852
  153MOL   H16646070   6.511   5.431   0.266  0.9077 -1.4978  1.0021
  153MOL   C16746071   6.707   5.410   0.351 -0.1187 -0.1300  0.1314
  153MOL   O16846072   6.680   5.401   0.489 -0.1850  0.1532  0.5513
  153MOL   C16946073   6.776   5.385   0.576  0.0334  0.0959 -0.6363
  153MOL   O17046074   6.899   5.394   0.557  0.5138 -0.4281  0.4661
  153MOL   C17146075   6.710   5.359   0.712 -0.1247 -0.4024 -0.1340
  153MOL   C17246076   6.675   5.213   0.734 -0.4332  0.1461 -0.1099
  153MOL   C17346077   6.713   5.263   0.293 -0.1087 -0.1980 -0.2811
  153MOL   H17446078   6.804   5.458   0.335 -1.8085  2.4888 -2.8102
  153MOL   H17546079   6.793   5.387   0.776  1.0171  1.8385 -2.4838
  153MOL   H17646080   6.624   5.422   0.735 -0.1971 -0.1417 -1.0846
  153MOL   H17746081   6.769   5.163   0.710  0.2049  0.9805  0.5933
  153MOL   H17846082   6.638   5.185   0.833 -1.2827 -2.8067 -1.1952
  153MOL   H17946083   6.601   5.172   0.665  1.8201 -4.6298  0.0814
  153MOL   H18046084   6.778   5.204   0.357 -1.8489 -1.8054  0.0494
  153MOL   H18146085   6.613   5.222   0.310  0.5759 -1.3675  1.0466
  153MOL   C18246086   6.752   5.239   0.147  0.4519  0.5440  0.1222
  153MOL   O18346087   6.887   5.275   0.138  0.3299 -0.2957  0.6244
  153MOL   C18446088   6.931   5.338   0.026 -0.0360 -0.8826  0.1208
  153MOL   O18546089   6.883   5.343   7.861  0.2060 -0.0771  0.3607
  153MOL   C18646090   7.067   5.403   0.057 -0.6388 -0.4202  0.6118
  153MOL   C18746091   7.138   5.463   7.878 -0.5935 -0.2845 -0.8797
  153MOL   C18846092   6.723   5.090   0.108 -0.0460  0.1571 -0.0936
  153MOL   H18946093   6.684   5.300   0.087 -1.0085 -0.8572  0.3108
  153MOL   H19046094   7.047   5.487   0.124  1.3218  2.1127 -1.8345
  153MOL   H19146095   7.136   5.336   0.109  3.1774  4.1357  1.7589
  153MOL   H19246096   7.099   5.563   7.859 -0.9865  0.3064  2.7629
  153MOL   H19346097   7.247   5.465   7.877 -0.4338 -0.0193  4.4535
  153MOL   H19446098   7.113   5.404   7.790 -1.5080 -1.6118  0.2494
  153MOL   H19546099   6.794   5.073   0.027 -0.6497  1.3585 -0.9012
  153MOL   H19646100   6.752   5.023   0.189  2.5997 -0.9744 -1.8676
  153MOL   C19746101   6.582   5.063   0.059  0.3272 -0.7276  0.6980
  153MOL   O19846102   6.554   5.135   7.874 -0.7944 -0.8014 -0.0168
  153MOL   C19946103   6.469   5.247   7.864  0.4200  1.2269 -0.5761
  153MOL   O20046104   6.399   5.291   0.008  0.3637  0.6509  0.1167
  153MOL   C20146105   6.471   5.311   7.724 -0.7857 -0.2630 -0.2687
  153MOL   C20246106   6.431   5.455   7.715  0.2276 -1.1710  0.2557
  153MOL   C20346107   6.559   4.913   0.041 -0.2587  0.4260  0.7844
  153MOL   H20446108   6.526   5.108   0.142  1.3129 -0.8249  1.4290
  153MOL   H20546109   6.577   5.311   7.697 -0.8345  2.6047 -0.5851
  153MOL   H20646110   6.429   5.248   7.645 -0.2486 -1.8370  0.6714
  153MOL   H20746111   6.482   5.517   7.788  1.0244  0.2617 -1.4811
  153MOL   H20846112   6.467   5.486   7.617 -2.2858 -2.0257 -0.9887
  153MOL   H20946113   6.325   5.460   7.741  0.3631  1.3042  0.4975
  153MOL   H21046114   6.469   4.902   7.925  0.1261  0.0474  0.2823
  153MOL   H21146115   6.639   4.870   7.925 -0.6451 -1.1848  1.3955
  153MOL   C21246116   6.528   4.827   0.165  0.4492 -0.4451  0.2074
  153MOL   O21346117   6.430   4.906   0.242 -0.4049 -0.7316 -0.0769
  153MOL   C21446118   6.459   4.968   0.367 -0.2946  0.2674 -0.1263
  153MOL   O21546119   6.570   4.969   0.424  0.0197 -0.0830  0.0427
  153MOL   C21646120   6.330   5.033   0.423 -0.3631 -0.1995  0.1634
  153MOL   C21746121   6.198   4.962   0.380 -0.1872  0.4534 -0.7459
  153MOL   C21846122   6.456   4.692   0.136  0.4742  0.6056  1.1639
  153MOL   H21946123   6.620   4.813   0.222  0.7075 -0.1316 -0.1301
  153MOL   H22046124   6.347   5.043   0.530  0.4002 -0.7320  0.1018
  153MOL   H22146125   6.324   5.136   0.388 -0.7035  0.1306  1.1629
  153MOL   H22246126   6.185   4.977   0.272  1.0665  1.1373 -0.8141
  153MOL   H22346127   6.207   4.854   0.393 -2.2502  0.4228  0.5429
  153MOL   H22446128   6.109   4.992   0.434 -1.3078  1.1362 -2.8849
  153MOL   H22546129   6.370   4.708   0.072  0.6641  1.4894  1.1275
  153MOL   H22646130   6.531   4.639   0.077  0.2699  1.7340 -0.1116
  153MOL   C22746131   6.402   4.614   0.263 -0.3574 -0.2061 -0.6762
  153MOL   O22846132   6.308   4.521   0.219  0.6543 -0.1424  0.1115
  153MOL   C22946133   6.189   4.567   0.184  0.4682 -0.4407  0.0978
  153MOL   O23046134   6.139   4.680   0.189 -0.1434  0.9962 -0.1797
  153MOL   C23146135   6.103   4.446   0.135  0.3608 -0.7861 -0.6391
  153MOL   C23246136   5.978   4.471   0.053 -0.1821  0.3089  0.2007
  153MOL   C23346137   6.524   4.552   0.339 -0.3748  0.2544  0.1852
  153MOL   H23446138   6.358   4.686   0.331 -0.1089  0.1210 -0.8625
  153MOL   H23546139   6.166   4.385   0.071 -1.0064 -2.9454  0.0312
  153MOL   H23646140   6.082   4.392   0.228  0.9634 -1.4252 -0.8715
  153MOL   H23746141   5.935   4.570   0.065 -1.9142 -0.0600 -2.6032
  153MOL   H23846142   5.991   4.456   7.891  0.0524  2.1692 -0.0441
  153MOL   H23946143   5.899   4.401   0.083 -2.9106  2.4420 -1.7754
  153MOL   H24046144   6.565   4.475   0.273 -2.4343  0.2160 -1.1138
  153MOL   H24146145   6.605   4.625   0.340 -1.7783  1.8342  3.6280
  153MOL   C24246146   6.498   4.493   0.480  0.2053  0.5059 -0.0326
  153MOL   O24346147   6.625   4.448   0.528 -0.0139 -0.2185 -0.2341
  153MOL   C24446148   6.670   4.320   0.515 -0.4137 -0.0419  0.2148
  153MOL   O24546149   6.617   4.242   0.439  0.5283 -0.2776  0.5549
  153MOL   C24646150   6.804   4.287   0.590 -0.9532 -0.4458  0.2282
  153MOL   C24746151   6.793   4.230   0.731 -0.5403 -0.1065  0.5533
  153MOL   C24846152   6.446   4.592   0.584  0.4123  0.0088  0.1184
  153MOL   H24946153   6.431   4.408   0.467  0.3236  0.4727 -0.4388
  153MOL   H25046154   6.858   4.213   0.531  0.7366  1.8887 -1.2439
  153MOL   H25146155   6.861   4.380   0.588  1.5019 -1.9335 -1.2731
  153MOL   H25246156   6.705   4.170   0.752  0.3072 -1.2202  0.9728
  153MOL   H25346157   6.874   4.160   0.751 -0.7896 -0.5271  0.0772
  153MOL   H25446158   6.799   4.306   0.809  0.8071 -0.1543  0.5050
  153MOL   H25546159   6.494   4.603   0.682  0.3428 -0.6969  0.2350
  153MOL   H25646160   6.450   4.692   0.541  3.6816 -0.0734  0.1244
  153MOL   C25746161   6.296   4.562   0.604 -0.1160 -0.1622 -0.9070
  153MOL   O25846162   6.283   4.440   0.678  0.0611 -0.4351  0.3216
  153MOL   C25946163   6.208   4.337   0.617  0.8068 -0.8088  0.0462
  153MOL   O26046164   6.125   4.344   0.524  0.5473 -0.0741 -0.5402
  153MOL   C26146165   6.244   4.206   0.680  0.5513 -0.1640  0.3895
  153MOL   C26246166   6.375   4.164   0.640 -0.0686  0.1185  0.3047
  153MOL   C26346167   6.205   4.673   0.667 -0.2416  0.3439 -0.2337
  153MOL   H26446168   6.257   4.540   0.505 -2.5697  0.9712 -0.2342
  153MOL   H26546169   6.247   4.214   0.789  1.9852  1.9034  0.2350
  153MOL   H26646170   6.180   4.121   0.658 -0.6212  1.0371 -0.9657
  153MOL   H26746171   6.386   4.155   0.532  1.3319 -2.5416  0.6189
  153MOL   H26846172   6.447   4.227   0.691 -0.9523 -0.3080  2.1169
  153MOL   H26946173   6.402   4.069   0.687 -2.4204 -1.6917 -1.8332
  153MOL   H27046174   6.231   4.680   0.773 -2.2636  0.6045  0.2651
  153MOL   H27146175   6.235   4.766   0.620 -1.6168  0.9372  0.0357
  153MOL   C27246176   6.050   4.640   0.662  0.0848 -0.2960  0.0382
  153MOL   O27346177   5.998   4.734   0.745  0.3870 -0.4121  0.1407
  153MOL   C27446178   5.880   4.706   0.816  0.6693  0.1478  0.2287
  153MOL   O27546179   5.814   4.600   0.810 -0.7568  0.3085  0.0898
  153MOL   C27646180   5.816   4.830   0.878 -0.2407  0.2239 -0.3078
  153MOL   C27746181   5.707   4.808   0.973 -0.0528 -0.1648 -0.4475
  153MOL   C27846182   6.003   4.667   0.508 -0.2499 -0.3630  0.1160
  153MOL   H27946183   6.030   4.538   0.694  0.8416  0.0010  1.5452
  153MOL   H28046184   5.890   4.881   0.940 -1.2961  1.2895  0.0776
  153MOL   H28146185   5.781   4.902   0.805  0.1884  2.4705  1.6260
  153MOL   H28246186   5.738   4.737   1.050  1.4436  1.1943  0.2384
  153MOL   H28346187   5.693   4.900   1.030 -0.6593 -0.5513  0.0439
  153MOL   H28446188   5.616   4.766   0.930  0.6140 -0.7276 -1.3000
  153MOL   H28546189   6.009   4.773   0.486  0.4616 -0.3036  0.6102
  153MOL   H28646190   6.070   4.629   0.431 -1.0038  0.0902 -0.7746
  153MOL   C28746191   5.861   4.612   0.473 -0.3441 -0.0140  0.0662
  153MOL   O28846192   5.823   4.652   0.339  0.3769 -0.5154  0.0296
  153MOL   C28946193   5.768   4.779   0.318 -0.2068  0.6409 -0.2682
  153MOL   O29046194   5.746   4.868   0.405 -0.0273 -0.4516  0.0480
  153MOL   C29146195   5.768   4.824   0.173 -0.1051  0.1557  0.1563
  153MOL   C29246196   5.891   4.918   0.158  0.5771 -0.5710  0.0575
  153MOL   C29346197   5.855   4.457   0.477 -0.3049 -0.0488 -0.4599
  153MOL   H29446198   5.797   4.638   0.557 -0.4131 -0.9330  0.2978
  153MOL   H29546199   5.768   4.741   0.102 -1.6591  0.7471 -0.5478
  153MOL   H29646200   5.678   4.882   0.149  0.5689  0.7668 -0.9124
  153MOL   H29746201   5.874   5.012   0.209 -2.7528 -1.0960  0.0274
  153MOL   H29846202   5.988   4.874   0.181  0.3836 -0.3424  1.3174
  153MOL   H29946203   5.889   4.935   0.050 -2.1046 -0.6013  0.0522
  153MOL   H30046204   5.895   4.426   0.574 -0.7975 -0.8476 -0.5070
  153MOL   H30146205   5.749   4.432   0.476 -0.7021  1.6064 -0.4253
  153MOL   H30246206   5.922   4.413   0.403 -1.8264 -1.1343 -1.2187
  154MOL     C146207   6.878   2.100   2.569  1.1380 -0.2112  0.3719
  154MOL     O246208   6.975   2.108   2.463  0.1476  0.5824 -0.0442
  154MOL     C346209   6.945   2.062   2.348 -0.1344 -0.3764  0.0272
  154MOL     O446210   6.843   2.004   2.326 -0.2478  0.2702  0.1343
  154MOL     C546211   7.044   2.080   2.230  0.2422  0.0481 -0.3835
  154MOL     C646212   7.018   1.992   2.105 -0.2150 -0.6250 -0.6791
  154MOL     C746213   6.924   2.167   2.705 -0.5851  0.0330 -0.4282
  154MOL     H846214   6.826   2.006   2.586 -1.9759  0.8574 -2.5326
  154MOL     H946215   7.044   2.187   2.207  0.7243  0.1458  0.0625
  154MOL    H1046216   7.142   2.050   2.269 -1.0148 -0.0348  2.8415
  154MOL    H1146217   7.091   2.016   2.028 -1.7638  0.2132 -1.9251
  154MOL    H1246218   7.030   1.889   2.136  2.5083 -0.2241 -0.2635
  154MOL    H1346219   6.918   2.005   2.063 -0.5874  0.2995  0.4591
  154MOL    H1446220   6.999   2.100   2.747 -2.4565 -0.2688  2.5698
  154MOL    H1546221   6.979   2.259   2.685  1.1606 -0.6475  1.1571
  154MOL    H1646222   6.802   2.167   2.528  2.0835  0.4534 -0.3052
  154MOL    C1746223   6.810   2.206   2.808 -0.0257 -0.4146 -0.7756
  154MOL    O1846224   6.714   2.104   2.825  0.0593  0.5320  0.9912
  154MOL    C1946225   6.590   2.113   2.770  0.3328  0.1689 -1.0102
  154MOL    O2046226   6.563   2.173   2.667  0.1515 -0.4474  0.3239
  154MOL    C2146227   6.489   2.051   2.863 -0.0929  0.1025 -0.5001
  154MOL    C2246228   6.350   2.019   2.802 -0.1447 -0.3616  0.3721
  154MOL    C2346229   6.864   2.232   2.954 -0.3099 -0.3105  0.3353
  154MOL    H2446230   6.757   2.296   2.776  0.1925  0.1065  0.2898
  154MOL    H2546231   6.532   1.957   2.897 -0.1324  0.2016 -0.1733
  154MOL    H2646232   6.480   2.113   2.952  2.0866  0.8832 -0.7740
  154MOL    H2746233   6.285   2.106   2.802 -0.1800 -0.3781 -0.7440
  154MOL    H2846234   6.357   1.993   2.696  0.5915 -1.9832  0.8082
  154MOL    H2946235   6.304   1.939   2.859 -1.3121 -1.0756 -1.5333
  154MOL    H3046236   6.779   2.235   3.022 -1.6610  1.4259 -1.3698
  154MOL    H3146237   6.927   2.145   2.974  0.5828  0.3721  0.5369
  154MOL    C3246238   6.953   2.357   2.967  0.0774 -0.2120 -0.1306
  154MOL    O3346239   6.865   2.470   2.921 -0.6456  0.3631 -0.0444
  154MOL    C3446240   6.915   2.545   2.820  0.1035 -0.6050  0.2417
  154MOL    O3546241   7.020   2.519   2.759 -0.2617 -0.2957 -0.3332
  154MOL    C3646242   6.831   2.666   2.785 -0.0181  0.3035  0.5743
  154MOL    C3746243   6.852   2.742   2.655 -0.2321 -0.6512  0.3067
  154MOL    C3846244   7.019   2.377   3.101  0.0870  0.1426 -0.4924
  154MOL    H3946245   7.022   2.335   2.887  0.8310 -1.6006  0.8825
  154MOL    H4046246   6.729   2.628   2.779  0.2510 -0.1791 -1.3273
  154MOL    H4146247   6.837   2.723   2.877  1.3360 -0.2545  0.8370
  154MOL    H4246248   6.803   2.840   2.653  0.0067 -0.5422 -0.3619
  154MOL    H4346249   6.959   2.757   2.640 -0.7481  1.8585 -1.2206
  154MOL    H4446250   6.813   2.682   2.573 -1.1169 -1.7777  1.5338
  154MOL    H4546251   7.065   2.475   3.110 -1.4708  0.6536  2.7568
  154MOL    H4646252   6.940   2.387   3.175  0.2477  0.4008 -0.3555
  154MOL    C4746253   7.120   2.266   3.143 -0.1405  0.2873  0.0181
  154MOL    O4846254   7.046   2.154   3.192  0.1086  0.2058 -0.4726
  154MOL    C4946255   6.988   2.144   3.312 -0.0306  0.4415 -0.5470
  154MOL    O5046256   7.007   2.231   3.393  0.7066  0.5332  0.2511
  154MOL    C5146257   6.908   2.015   3.339  0.2206 -0.3373  0.0989
  154MOL    C5246258   6.965   1.891   3.283 -0.1860 -0.0917 -0.1170
  154MOL    C5346259   7.220   2.216   3.025  0.6477  0.3552  0.0289
  154MOL    H5446260   7.179   2.300   3.228 -0.6202  2.3424 -0.4524
  154MOL    H5546261   6.907   2.007   3.447  3.7936  0.1585  0.2399
  154MOL    H5646262   6.801   2.026   3.324  0.0662  0.5632  1.7572
  154MOL    H5746263   6.946   1.891   3.175 -1.7308 -0.2100  0.1411
  154MOL    H5846264   7.072   1.893   3.300 -0.2349  0.9273  0.1075
  154MOL    H5946265   6.916   1.811   3.338  2.0622 -1.1460  0.3963
  154MOL    H6046266   7.176   2.147   2.954 -1.7745  1.1889  0.6573
  154MOL    H6146267   7.252   2.300   2.964  1.1934  0.4767  0.4751
  154MOL    C6246268   7.349   2.151   3.091 -0.3773 -0.0119  0.4808
  154MOL    O6346269   7.313   2.042   3.183 -0.3859 -0.1815  0.1969
  154MOL    C6446270   7.382   2.031   3.303 -0.0905  0.2676  0.6356
  154MOL    O6546271   7.483   2.089   3.336  0.4715 -0.7895 -0.4797
  154MOL    C6646272   7.339   1.913   3.385 -1.1333 -0.0660 -0.6159
  154MOL    C6746273   7.423   1.904   3.517 -0.0912 -0.1099 -0.2875
  154MOL    C6846274   7.452   2.097   2.988  0.5746  0.0338 -0.1778
  154MOL    H6946275   7.387   2.238   3.144 -2.0641  0.2388  1.3356
  154MOL    H7046276   7.233   1.907   3.411 -1.0354 -0.7535 -0.3707
  154MOL    H7146277   7.355   1.819   3.333  1.3433 -1.8743  3.2037
  154MOL    H7246278   7.428   1.994   3.578  0.7983 -0.2885 -0.0834
  154MOL    H7346279   7.385   1.827   3.584  1.6622 -1.1848 -0.4735
  154MOL    H7446280   7.522   1.875   3.481  0.1557 -0.0852  0.3543
  154MOL    H7546281   7.534   2.051   3.042  0.9878  0.0905 -0.7606
  154MOL    H7646282   7.415   2.016   2.925 -1.2671 -0.1600  1.1003
  154MOL    C7746283   7.522   2.207   2.904  0.2982  0.8479 -0.2736
  154MOL    O7846284   7.572   2.310   2.991 -0.1185 -0.5211 -0.0253
  154MOL    C7946285   7.576   2.440   2.952  0.1285  0.7366  0.2894
  154MOL    O8046286   7.513   2.491   2.855 -0.1568  0.3251  0.3574
  154MOL    C8146287   7.655   2.525   3.049  0.4625 -0.0059  0.1906
  154MOL    C8246288   7.651   2.680   3.028 -0.0658 -0.2432  0.2266
  154MOL    C8346289   7.641   2.150   2.815 -0.3291 -0.5571 -1.4939
  154MOL    H8446290   7.449   2.252   2.837 -0.8783 -0.8856 -0.2002
  154MOL    H8546291   7.631   2.498   3.152  2.0386 -1.2038  0.2543
  154MOL    H8646292   7.753   2.490   3.016  0.3711 -0.7852  0.7558
  154MOL    H8746293   7.578   2.725   3.096  0.5893  0.7992  0.2528
  154MOL    H8846294   7.748   2.729   3.030  0.3900 -1.0376 -1.6486
  154MOL    H8946295   7.612   2.707   2.930  0.8933 -1.7832 -0.5957
  154MOL    H9046296   7.735   2.201   2.835  0.7707 -3.2201  0.5370
  154MOL    H9146297   7.675   2.055   2.858  0.1146  0.0884 -0.3987
  154MOL    C9246298   7.615   2.138   2.664 -0.7710 -0.2657  0.1627
  154MOL    O9346299   7.740   2.113   2.600 -0.6823 -0.3765 -0.0236
  154MOL    C9446300   7.758   2.139   2.464 -0.7154  0.0397  0.5940
  154MOL    O9546301   7.673   2.169   2.381 -0.2822  0.4662 -0.1977
  154MOL    C9646302   7.904   2.125   2.424  0.1449 -0.2825 -0.9009
  154MOL    C9746303   7.936   2.202   2.297 -0.5599  0.9211  0.3688
  154MOL    C9846304   7.526   2.020   2.615 -0.0448 -0.1269 -0.2360
  154MOL    H9946305   7.574   2.229   2.621 -0.5419 -0.2150  0.0504
  154MOL   H10046306   0.024   2.165   2.503 -2.9804 -0.2936  1.8011
  154MOL   H10146307   7.938   2.021   2.418  0.8753  0.0190 -2.1107
  154MOL   H10246308   7.878   2.294   2.291 -0.8150  0.6750 -1.0860
  154MOL   H10346309   0.097   2.222   2.280 -0.7388  0.3106 -1.5576
  154MOL   H10446310   7.917   2.145   2.206 -1.2810  3.8999 -1.3924
  154MOL   H10546311   7.562   1.979   2.520  0.4460  1.5061 -0.7788
  154MOL   H10646312   7.530   1.938   2.686 -1.7430 -0.0015  0.0225
  154MOL   C10746313   7.374   2.040   2.618 -0.0865  0.7548  0.0642
  154MOL   O10846314   7.333   2.140   2.530 -0.4905 -0.6404  0.4430
  154MOL   C10946315   7.290   2.258   2.574  0.6837 -0.0719 -0.8815
  154MOL   O11046316   7.289   2.310   2.687  0.3846  0.0147  0.3287
  154MOL   C11146317   7.230   2.339   2.454  0.0948  0.1565 -0.2259
  154MOL   C11246318   7.328   2.352   2.346 -0.2782  0.2007 -0.1908
  154MOL   C11346319   7.291   1.914   2.587 -0.2269 -0.2759  0.4603
  154MOL   H11446320   7.342   2.073   2.716  0.9375  0.6426  0.4409
  154MOL   H11546321   7.136   2.292   2.426  0.7597 -0.8159 -0.8673
  154MOL   H11646322   7.205   2.433   2.504  2.0963  0.2889  0.6030
  154MOL   H11746323   7.323   2.255   2.297 -0.1093 -1.2452  2.5608
  154MOL   H11846324   7.294   2.429   2.278  0.2702  0.3555 -0.2948
  154MOL   H11946325   7.427   2.375   2.386 -1.0985  3.2916  0.2019
  154MOL   H12046326   7.201   1.954   2.541 -0.4061 -0.4224  0.6794
  154MOL   H12146327   7.342   1.862   2.506  0.6384  0.4423  0.5396
  154MOL   C12246328   7.265   1.820   2.714  0.2033  0.3462 -0.8503
  154MOL   O12346329   7.128   1.824   2.737  0.4371  0.2094 -0.0387
  154MOL   C12446330   7.080   1.815   2.865  0.1799  0.0072  0.1153
  154MOL   O12546331   7.154   1.825   2.967  0.3948  0.5325 -0.0630
  154MOL   C12646332   6.932   1.815   2.871  0.8045 -0.5088  0.4528
  154MOL   C12746333   6.868   1.704   2.776 -0.4954 -0.4850 -0.3602
  154MOL   C12846334   7.321   1.677   2.692  0.1948 -0.0857 -0.5925
  154MOL   H12946335   7.318   1.868   2.797  1.1702  0.7830 -1.7134
  154MOL   H13046336   6.903   1.778   2.970 -2.3806  0.2412 -0.1288
  154MOL   H13146337   6.889   1.913   2.851  0.2964 -1.2268 -2.1442
  154MOL   H13246338   6.768   1.668   2.798  0.5654 -1.4476  3.1088
  154MOL   H13346339   6.863   1.738   2.672  0.3235  2.2911  0.4837
  154MOL   H13446340   6.938   1.620   2.776  1.5366  1.1064  2.6044
  154MOL   H13546341   7.258   1.596   2.730 -0.5932 -0.1143 -1.9175
  154MOL   H13646342   7.325   1.647   2.587 -1.3224 -0.7672 -0.4735
  154MOL   C13746343   7.472   1.656   2.736 -0.3200 -0.3048 -0.0562
  154MOL   O13846344   7.484   1.660   2.879  0.3853  0.2098  0.3113
  154MOL   C13946345   7.567   1.740   2.938  0.0831 -0.1639 -0.4562
  154MOL   O14046346   7.657   1.809   2.893  0.1276  0.3306 -0.7991
  154MOL   C14146347   7.545   1.713   3.086  0.2277 -0.0645  0.0851
  154MOL   C14246348   7.636   1.786   3.171  0.9234 -0.1443 -0.8050
  154MOL   C14346349   7.532   1.523   2.688 -0.0736  0.2943  0.3441
  154MOL   H14446350   7.524   1.737   2.684  0.1111 -1.0583 -0.8010
  154MOL   H14546351   7.443   1.748   3.102 -0.0924 -1.3579  0.9212
  154MOL   H14646352   7.551   1.605   3.097 -1.9305  0.0710  3.1516
  154MOL   H14746353   7.740   1.760   3.153  0.7079 -1.8971  0.3557
  154MOL   H14846354   7.624   1.894   3.163 -1.2778 -0.3735 -0.9477
  154MOL   H14946355   7.614   1.776   3.277  0.8734  0.2424 -0.7754
  154MOL   H15046356   7.618   1.495   2.750 -1.9927  0.0637  3.0273
  154MOL   H15146357   7.459   1.450   2.725 -0.1058  0.7404  1.1884
  154MOL   C15246358   7.550   1.497   2.538 -0.3086 -0.4838 -0.0010
  154MOL   O15346359   7.687   1.548   2.500  0.1587 -0.4785 -0.8267
  154MOL   C15446360   7.707   1.676   2.455  0.1064  0.6428 -0.3508
  154MOL   O15546361   7.615   1.753   2.434 -0.7417  0.1027  0.0594
  154MOL   C15646362   7.849   1.715   2.427 -0.0193  0.0218  0.2377
  154MOL   C15746363   7.919   1.723   2.562  0.4143 -0.1299 -0.2365
  154MOL   C15846364   7.554   1.348   2.493  0.0195 -0.0429 -0.3179
  154MOL   H15946365   7.479   1.555   2.480  0.6493  2.3245  1.5307
  154MOL   H16046366   7.887   1.647   2.350  0.2764 -1.8622  2.0115
  154MOL   H16146367   7.851   1.810   2.373  0.7641 -1.3341 -2.2318
  154MOL   H16246368   7.857   1.764   2.641  1.4107  2.4576 -0.7281
  154MOL   H16346369   0.007   1.624   2.592  0.1695  0.3159  1.5140
  154MOL   H16446370   0.057   1.793   2.551  1.4642 -0.9862  1.8645
  154MOL   H16546371   7.628   1.294   2.553  0.0732  1.0356  0.6015
  154MOL   H16646372   7.458   1.310   2.528  0.3985  0.0199  0.8142
  154MOL   C16746373   7.566   1.319   2.341  0.1449 -0.0603  0.8018
  154MOL   O16846374   7.703   1.281   2.326 -0.2205 -0.2801  0.2429
  154MOL   C16946375   7.777   1.322   2.226  0.7287 -0.2896  0.1473
  154MOL   O17046376   7.732   1.375   2.123  0.3011  0.3970 -0.8236
  154MOL   C17146377   7.922   1.285   2.244  0.6031  0.2273 -0.2995
  154MOL   C17246378   7.931   1.136   2.269  0.1707 -0.8525  0.7024
  154MOL   C17346379   7.458   1.225   2.278  0.1632  0.3489 -0.2625
  154MOL   H17446380   7.557   1.410   2.281  1.1674 -0.6610 -0.2752
  154MOL   H17546381   0.029   1.307   2.151  1.1936  0.7321  0.1477
  154MOL   H17646382   0.020   1.344   2.325  0.1157 -1.2712  1.0713
  154MOL   H17746383   7.893   1.101   2.365  2.3305 -0.3133  1.8004
  154MOL   H17846384   7.872   1.085   2.193  3.3128 -2.0465 -1.0647
  154MOL   H17946385   0.087   1.098   2.255  0.6075  1.1804 -2.1405
  154MOL   H18046386   7.482   1.213   2.172 -1.4779 -1.0115 -0.5001
  154MOL   H18146387   7.471   1.126   2.323 -1.2127  0.1870 -0.2061
  154MOL   C18246388   7.309   1.257   2.276 -0.6062  0.0582  0.0188
  154MOL   O18346389   7.276   1.374   2.202  0.4260  0.3002  1.1341
  154MOL   C18446390   7.250   1.485   2.270  1.2199 -0.0812 -0.5466
  154MOL   O18546391   7.269   1.503   2.390  0.0489  0.1569 -0.0743
  154MOL   C18646392   7.197   1.601   2.186 -0.4844 -0.3228  0.3970
  154MOL   C18746393   7.314   1.695   2.140 -0.2050  0.2206 -0.0785
  154MOL   C18846394   7.222   1.142   2.240 -0.1940  0.4914  0.0714
  154MOL   H18946395   7.282   1.271   2.380  3.3298 -0.7796  1.2132
  154MOL   H19046396   7.153   1.553   2.099  1.4727 -0.3522 -0.5933
  154MOL   H19146397   7.123   1.659   2.241 -0.1171  0.9200 -0.4145
  154MOL   H19246398   7.387   1.726   2.213  1.5993 -1.0528 -1.2965
  154MOL   H19346399   7.376   1.642   2.068 -0.2821 -0.0176  0.0272
  154MOL   H19446400   7.287   1.790   2.095 -5.3755 -0.8743  0.3569
  154MOL   H19546401   7.117   1.169   2.232 -1.0006 -2.3571  0.5386
  154MOL   H19646402   7.265   1.109   2.146 -0.7015  4.2044 -1.5400
  154MOL   C19746403   7.229   1.017   2.334 -0.7792 -0.7429  0.3553
  154MOL   O19846404   7.204   1.053   2.472  0.2938 -0.6250  0.5563
  154MOL   C19946405   7.298   1.054   2.566  0.3353 -0.1693  0.2403
  154MOL   O20046406   7.420   1.069   2.537 -0.0031 -0.1530  0.2905
  154MOL   C20146407   7.235   1.056   2.712  0.0128  0.4030  0.4026
  154MOL   C20246408   7.311   1.147   2.808 -1.0200 -0.0048 -0.9676
  154MOL   C20346409   7.109   0.916   2.317 -0.4123  0.1835  0.5873
  154MOL   H20446410   7.322   0.961   2.323 -1.2092 -1.3916 -0.0449
  154MOL   H20546411   7.135   1.099   2.700 -1.0752 -2.5554 -1.9605
  154MOL   H20646412   7.222   0.954   2.747 -1.4269  0.3888 -0.1293
  154MOL   H20746413   7.338   1.241   2.758  1.8284  0.7137  1.7457
  154MOL   H20846414   7.250   1.174   2.894 -0.8120 -1.4629 -0.3531
  154MOL   H20946415   7.400   1.098   2.848 -0.6194  0.1857 -1.6028
  154MOL   H21046416   7.081   0.865   2.408 -0.5680  1.0496  1.0329
  154MOL   H21146417   7.025   0.982   2.292 -0.0207  0.6005  0.3588
  154MOL   C21246418   7.107   0.813   2.204 -0.2548  1.2663  0.0298
  154MOL   O21346419   7.124   0.883   2.082 -0.1855  0.1342  0.5248
  154MOL   C21446420   7.013   0.913   2.012  0.0325  0.2162 -0.6252
  154MOL   O21546421   6.894   0.906   2.047 -0.3700 -0.3122  0.6523
  154MOL   C21646422   7.064   0.956   1.877  0.3766 -0.3121  1.0227
  154MOL   C21746423   7.174   1.062   1.883  0.2936  0.3041  0.2545
  154MOL   C21846424   7.219   0.704   2.219  0.4901  0.2165 -0.0279
  154MOL   H21946425   7.004   0.776   2.207  0.1285  0.1302 -0.5924
  154MOL   H22046426   7.111   0.865   1.838 -2.9750 -1.6537 -0.1024
  154MOL   H22146427   6.982   0.977   1.807  0.7462 -2.3579 -0.0802
  154MOL   H22246428   7.232   1.082   1.792 -1.7984  2.1128 -0.7496
  154MOL   H22346429   7.136   1.161   1.910 -1.1677 -0.4583  1.0341
  154MOL   H22446430   7.265   1.037   1.938  0.6717  1.0514 -0.0119
  154MOL   H22546431   7.242   0.669   2.119 -1.2758  1.8606 -1.0358
  154MOL   H22646432   7.311   0.750   2.254  0.9526 -1.1212  0.5783
  154MOL   C22746433   7.184   0.584   2.314 -0.9272  0.8075  0.0067
  154MOL   O22846434   7.061   0.541   2.261 -0.3375  0.4959  0.1253
  154MOL   C22946435   6.958   0.525   2.344 -0.7415 -0.0241 -0.1013
  154MOL   O23046436   6.965   0.527   2.468  0.6182 -0.2206  0.3614
  154MOL   C23146437   6.835   0.485   2.274  0.2026  0.0442  0.1604
  154MOL   C23246438   6.705   0.503   2.349  0.7852  0.6209  0.5319
  154MOL   C23346439   7.290   0.467   2.305 -0.2371  0.2568 -0.1486
  154MOL   H23446440   7.176   0.619   2.417 -2.1747  2.4629 -0.6273
  154MOL   H23546441   6.832   0.539   2.180 -0.3682 -0.4900 -0.1287
  154MOL   H23646442   6.851   0.382   2.241  0.0490  0.1338 -0.1946
  154MOL   H23746443   6.690   0.435   2.433 -2.7469 -0.7352 -1.0637
  154MOL   H23846444   6.689   0.604   2.385 -0.2655  0.3702  0.7898
  154MOL   H23946445   6.613   0.484   2.293  0.9044  0.4380  0.3973
  154MOL   H24046446   7.270   0.409   2.215  1.3186 -0.5161 -0.0239
  154MOL   H24146447   7.389   0.504   2.279 -1.2665  1.3859 -2.5264
  154MOL   C24246448   7.298   0.378   2.440  0.0149  0.1693  0.1263
  154MOL   O24346449   7.243   0.248   2.412 -0.2271 -0.3379  0.0969
  154MOL   C24446450   7.184   0.179   2.511 -1.0051 -0.2054 -0.7781
  154MOL   O24546451   7.199   0.203   2.630 -0.5231  0.5856 -0.3064
  154MOL   C24646452   7.091   0.059   2.460  0.3336 -0.0178  0.0388
  154MOL   C24746453   6.951   0.119   2.426  0.2475  0.7696  0.1105
  154MOL   C24846454   7.444   0.381   2.505 -0.2549 -0.2805 -0.6808
  154MOL   H24946455   7.227   0.425   2.509 -1.0747 -2.2221  0.6696
  154MOL   H25046456   7.139   7.941   2.386  1.3125 -1.5130  1.9247
  154MOL   H25146457   7.080   7.931   2.540  0.1368 -0.3248 -0.2665
  154MOL   H25246458   6.894   0.138   2.517 -2.6822 -0.7305 -1.3538
  154MOL   H25346459   6.960   0.212   2.368 -0.3070  0.3791 -0.6110
  154MOL   H25446460   6.897   0.050   2.361  2.0379  1.1383 -1.8526
  154MOL   H25546461   7.436   0.330   2.601  0.0065 -1.9088 -1.5100
  154MOL   H25646462   7.503   0.312   2.445 -1.3131 -0.5839 -1.3803
  154MOL   C25746463   7.510   0.510   2.535  0.6397 -0.2007 -0.3690
  154MOL   O25846464   7.480   0.551   2.668  0.0240 -0.2229 -0.4762
  154MOL   C25946465   7.396   0.656   2.695 -0.0227  0.1307 -1.0575
  154MOL   O26046466   7.352   0.727   2.609 -0.2807 -0.6718  0.5508
  154MOL   C26146467   7.349   0.679   2.840  0.0718  1.0774 -0.6288
  154MOL   C26246468   7.237   0.584   2.865  0.1177  0.1127 -0.4099
  154MOL   C26346469   7.661   0.501   2.507 -0.3170  0.8314  0.4495
  154MOL   H26446470   7.482   0.586   2.462 -1.0112 -1.5478 -1.1885
  154MOL   H26546471   7.426   0.654   2.914 -0.8748 -0.9152 -0.2885
  154MOL   H26646472   7.312   0.782   2.845 -1.0628  0.6650 -0.5691
  154MOL   H26746473   7.187   0.591   2.961  1.1309 -0.0519  0.1387
  154MOL   H26846474   7.153   0.606   2.800 -1.1047  0.1321  1.1435
  154MOL   H26946475   7.267   0.481   2.847 -0.4911  0.3126 -2.8346
  154MOL   H27046476   7.699   0.420   2.569  0.1718  0.2905 -0.5595
  154MOL   H27146477   7.662   0.470   2.403  0.4282  1.3424  0.3042
  154MOL   C27246478   7.730   0.640   2.503  0.2234 -0.8065  0.2654
  154MOL   O27346479   7.734   0.705   2.632  0.5575  0.7037 -0.8754
  154MOL   C27446480   7.730   0.841   2.639 -0.0155  0.5796 -0.0564
  154MOL   O27546481   7.735   0.914   2.542 -0.2944 -0.5098  0.1458
  154MOL   C27646482   7.717   0.893   2.783 -0.1694 -0.1435 -0.1839
  154MOL   C27746483   7.824   0.866   2.881  0.0757 -0.5535  0.7175
  154MOL   C27846484   7.883   0.635   2.449 -0.0365  0.3979 -0.0794
  154MOL   H27946485   7.664   0.703   2.444 -0.4120 -0.8797  0.8973
  154MOL   H28046486   7.709   1.001   2.774  0.2859 -0.2454 -1.8832
  154MOL   H28146487   7.621   0.866   2.828  0.7168 -2.1954  0.5428
  154MOL   H28246488   7.860   0.765   2.860  1.2181  0.1152 -0.6246
  154MOL   H28346489   7.902   0.936   2.851  0.9169 -1.5673  0.5230
  154MOL   H28446490   7.804   0.889   2.986  0.7330  1.0276  0.5104
  154MOL   H28546491   7.936   0.729   2.463 -0.3459  0.4465  0.8368
  154MOL   H28646492   7.937   0.565   2.513  1.1870  2.0732  0.7513
  154MOL   C28746493   7.889   0.600   2.298 -0.1552 -0.0104  0.0936
  154MOL   O28846494   7.826   0.700   2.218  0.0595 -0.5399 -0.4874
  154MOL   C28946495   7.712   0.669   2.146 -0.7456 -0.3608  0.1827
  154MOL   O29046496   7.658   0.556   2.139  0.2442 -0.6364 -0.0948
  154MOL   C29146497   7.632   0.784   2.089 -0.0965  0.5878  0.5052
  154MOL   C29246498   7.586   0.889   2.192 -0.4793  0.1456 -0.0498
  154MOL   C29346499   0.086   0.587   2.246 -0.6444  0.2759 -0.0634
  154MOL   H29446500   7.844   0.501   2.290  3.1279 -1.4963 -1.0513
  154MOL   H29546501   7.704   0.830   2.021 -0.1853 -0.6741 -0.4814
  154MOL   H29646502   7.542   0.754   2.036 -1.5477  1.6477  2.3331
  154MOL   H29746503   7.494   0.940   2.162 -0.4673  1.0283  1.3599
  154MOL   H29846504   7.557   0.845   2.287 -1.2286  0.3493 -0.1822
  154MOL   H29946505   7.661   0.963   2.220 -0.8020  0.5008 -0.1054
  154MOL   H30046506   0.138   0.683   2.250  2.6462 -1.4221 -0.6053
  154MOL   H30146507   0.144   0.530   2.319  1.0433 -0.2898 -1.7996
  154MOL   H30246508   0.103   0.538   2.151  0.5443  1.2374 -0.3612
  155MOL     C146509   2.969   4.912   3.286  0.4476  0.0151  0.2808
  155MOL     O246510   3.033   5.004   3.370  0.1821  0.0818  0.5653
  155MOL     C346511   3.103   4.965   3.470 -0.2197 -0.6261  0.0442
  155MOL     O446512   3.138   4.845   3.491 -0.9102 -0.3456 -0.3934
  155MOL     C546513   3.144   5.085   3.554 -0.0204  0.0280  0.2913
  155MOL     C646514   3.242   5.184   3.480 -0.6589  0.1433  0.3379
  155MOL     C746515   2.841   4.867   3.357 -0.2524 -0.5296 -0.0423
  155MOL     H846516   3.029   4.823   3.271 -0.2048 -0.4244  0.2508
  155MOL     H946517   3.054   5.137   3.588  0.5002 -1.4415  4.1919
  155MOL    H1046518   3.191   5.047   3.645  0.3172 -1.0539 -0.3335
  155MOL    H1146519   3.309   5.238   3.548  1.4488  0.8285 -2.2001
  155MOL    H1246520   3.296   5.130   3.403  0.1636  0.5195  0.6398
  155MOL    H1346521   3.177   5.252   3.425 -1.8063 -1.6948 -0.6187
  155MOL    H1446522   2.868   4.850   3.462 -2.7205 -0.6760  0.5829
  155MOL    H1546523   2.770   4.950   3.363 -0.5881 -0.7672 -0.7749
  155MOL    H1646524   2.945   4.964   3.193 -1.2270 -1.7247 -0.2923
  155MOL    C1746525   2.779   4.741   3.302 -0.0273  0.2034 -0.1328
  155MOL    O1846526   2.862   4.624   3.308  0.0654  0.0238 -0.1499
  155MOL    C1946527   2.917   4.582   3.190 -0.6448  0.2801 -0.6101
  155MOL    O2046528   2.938   4.660   3.097  0.1520  0.2674  0.3443
  155MOL    C2146529   2.951   4.437   3.191  0.4132 -0.2331 -0.6888
  155MOL    C2246530   2.837   4.341   3.255  0.3044 -0.5568  0.5795
  155MOL    C2346531   2.653   4.687   3.364  0.0965 -0.2620 -0.1649
  155MOL    H2446532   2.749   4.758   3.198  0.5328  2.8684  0.0955
  155MOL    H2546533   2.967   4.409   3.087 -3.7995  0.5434 -1.6153
  155MOL    H2646534   3.044   4.411   3.241  0.3538  0.8286 -0.0198
  155MOL    H2746535   2.751   4.335   3.188  1.4720 -0.1997 -0.9847
  155MOL    H2846536   2.868   4.238   3.270  2.5404 -0.1918 -1.3254
  155MOL    H2946537   2.798   4.383   3.348  2.8748 -1.2577  2.0124
  155MOL    H3046538   2.634   4.594   3.310  1.4697 -1.3977  1.3012
  155MOL    H3146539   2.682   4.663   3.466  0.9188  1.1776 -0.0426
  155MOL    C3246540   2.535   4.785   3.359  0.0143 -0.5851 -0.0876
  155MOL    O3346541   2.504   4.815   3.216 -0.6082  0.1715  0.0621
  155MOL    C3446542   2.468   4.941   3.179 -0.6255 -0.3273 -0.3290
  155MOL    O3546543   2.443   5.031   3.254  0.0857 -0.5068  0.1682
  155MOL    C3646544   2.459   4.963   3.028 -0.5706 -0.6078  0.4504
  155MOL    C3746545   2.582   4.912   2.950 -0.4268 -0.2069  0.4317
  155MOL    C3846546   2.412   4.739   3.433  0.2317 -0.3795 -0.2610
  155MOL    H3946547   2.551   4.882   3.405  0.9906 -0.3443 -0.9149
  155MOL    H4046548   2.363   4.928   2.989 -0.7083 -0.1039  0.3386
  155MOL    H4146549   2.452   5.070   3.011  2.4198 -0.5774 -0.8293
  155MOL    H4246550   2.662   4.986   2.953 -1.9500  1.4430  1.5373
  155MOL    H4346551   2.626   4.815   2.973  0.2149  0.0674  0.3770
  155MOL    H4446552   2.558   4.903   2.844 -0.8047  0.8391  0.4208
  155MOL    H4546553   2.317   4.789   3.412  0.2039 -0.2711  0.1287
  155MOL    H4646554   2.394   4.640   3.391  1.3775 -0.7092  0.0005
  155MOL    C4746555   2.431   4.721   3.581 -0.1183 -0.2675 -0.5253
  155MOL    O4846556   2.473   4.844   3.635 -0.2516  0.1216  0.1439
  155MOL    C4946557   2.528   4.854   3.759 -0.7369 -0.7761  0.2274
  155MOL    O5046558   2.551   4.758   3.831 -0.1461  0.1005  0.0840
  155MOL    C5146559   2.574   4.997   3.786  0.7643 -0.1527 -0.6753
  155MOL    C5246560   2.719   5.000   3.735 -1.0666  0.8394  0.3860
  155MOL    C5346561   2.299   4.694   3.662 -0.5658 -0.1924 -0.4902
  155MOL    H5446562   2.511   4.650   3.601 -0.2452 -0.1761  0.3260
  155MOL    H5546563   2.513   5.067   3.729  1.4589 -0.4381 -1.7805
  155MOL    H5646564   2.564   5.008   3.894  1.7600  1.4914 -0.7344
  155MOL    H5746565   2.770   4.921   3.790 -0.9894 -0.6525 -1.7616
  155MOL    H5846566   2.729   4.972   3.630  0.8508 -1.7898  1.2201
  155MOL    H5946567   2.766   5.095   3.762  0.0431  0.1664  0.8421
  155MOL    H6046568   2.334   4.673   3.763  1.9013  2.8175 -0.6370
  155MOL    H6146569   2.236   4.784   3.662 -1.6822 -0.9683 -1.1056
  155MOL    C6246570   2.215   4.573   3.616  0.3635  0.1775 -0.1156
  155MOL    O6346571   2.303   4.466   3.627  0.0768  0.7124  0.2601
  155MOL    C6446572   2.300   4.376   3.528  0.4495 -0.2883 -0.2900
  155MOL    O6546573   2.227   4.384   3.431  0.1556  0.0628 -0.2015
  155MOL    C6646574   2.387   4.248   3.546 -0.2841 -0.2607  0.2121
  155MOL    C6746575   2.487   4.241   3.430  0.0430  0.1671 -0.3709
  155MOL    C6846576   2.098   4.527   3.710  0.4267  0.6993  0.4379
  155MOL    H6946577   2.165   4.581   3.520  0.4581  1.9026 -0.0289
  155MOL    H7046578   2.427   4.244   3.647 -0.2954 -2.2471  0.1530
  155MOL    H7146579   2.324   4.159   3.538 -0.8881  0.0819  1.0637
  155MOL    H7246580   2.514   4.337   3.385 -3.3834  0.9719 -0.8336
  155MOL    H7346581   2.577   4.196   3.473 -1.1744 -1.4549  0.5137
  155MOL    H7446582   2.435   4.187   3.351 -0.8763  2.4164 -1.3505
  155MOL    H7546583   2.065   4.423   3.704 -2.1581  1.5653 -1.2343
  155MOL    H7646584   2.147   4.533   3.808 -0.9157  0.3985  1.1444
  155MOL    C7746585   1.979   4.619   3.704 -0.5011  0.1324 -0.3467
  155MOL    O7846586   1.925   4.610   3.578  0.1028  0.0749 -0.0620
  155MOL    C7946587   1.906   4.718   3.501 -0.4955  0.1392 -0.0622
  155MOL    O8046588   1.958   4.824   3.514  0.2492 -0.0197 -0.4979
  155MOL    C8146589   1.824   4.693   3.377  0.6209 -0.7206 -0.0635
  155MOL    C8246590   1.674   4.715   3.409  0.0827  0.1368 -0.2675
  155MOL    C8346591   1.870   4.589   3.818  0.8900 -0.8708 -0.4574
  155MOL    H8446592   2.020   4.717   3.729 -2.2913  0.4071  1.5667
  155MOL    H8546593   1.860   4.762   3.299  0.1900  1.4235  1.5806
  155MOL    H8646594   1.838   4.596   3.330  0.9373 -0.4483 -0.5401
  155MOL    H8746595   1.609   4.706   3.323 -1.8246  1.4302  1.0002
  155MOL    H8846596   1.645   4.638   3.480 -0.1940  1.2281  0.8346
  155MOL    H8946597   1.649   4.813   3.451  1.7161 -0.0342  1.1766
  155MOL    H9046598   1.784   4.654   3.805  0.3222 -1.5116  0.0666
  155MOL    H9146599   1.836   4.487   3.800 -0.4638 -0.5234  0.1146
  155MOL    C9246600   1.919   4.599   3.966  0.4108 -0.1116  0.3920
  155MOL    O9346601   1.971   4.731   3.991  0.1196 -0.1630  0.3208
  155MOL    C9446602   2.100   4.759   4.012 -0.3168  0.1159 -0.3746
  155MOL    O9546603   2.189   4.676   4.010 -0.5536 -0.3085  0.4254
  155MOL    C9646604   2.123   4.912   4.049 -0.1162  0.6984 -0.3599
  155MOL    C9746605   2.266   4.966   4.029 -0.1973 -0.5121  0.1219
  155MOL    C9846606   1.812   4.569   4.067 -0.5372 -0.7603  0.3230
  155MOL    H9946607   2.003   4.531   3.975  0.7300 -0.0922 -2.0485
  155MOL   H10046608   2.049   4.970   3.995 -1.8218  0.4606  1.6994
  155MOL   H10146609   2.093   4.935   4.151  2.4555  0.4044  0.5089
  155MOL   H10246610   2.279   5.051   4.097  0.9643  0.3976 -1.2217
  155MOL   H10346611   2.349   4.895   4.030 -0.4166 -0.7672  0.4947
  155MOL   H10446612   2.277   5.014   3.932  1.6331 -0.3877  0.3679
  155MOL   H10546613   1.753   4.660   4.079  0.2683 -0.1254 -0.4997
  155MOL   H10646614   1.745   4.502   4.013 -1.9373  1.6084 -0.9446
  155MOL   C10746615   1.868   4.506   4.195 -0.1976  0.0167  0.5748
  155MOL   O10846616   1.936   4.593   4.283  0.2234 -0.3558  0.0205
  155MOL   C10946617   2.064   4.581   4.309  0.1010  0.0672 -0.0566
  155MOL   O11046618   2.140   4.508   4.255 -0.1886  0.0693 -0.0883
  155MOL   C11146619   2.106   4.681   4.413  0.5671 -0.3735 -0.6547
  155MOL   C11246620   2.025   4.677   4.553  0.2026 -0.2311  0.3264
  155MOL   C11346621   1.757   4.430   4.276 -0.3090 -0.1415  0.6456
  155MOL   H11446622   1.930   4.424   4.159 -0.5899  0.1876 -0.5222
  155MOL   H11546623   2.210   4.677   4.444  0.5388  0.9201 -0.3531
  155MOL   H11646624   2.109   4.778   4.363  0.1122  0.9455  1.7758
  155MOL   H11746625   1.928   4.725   4.545  1.1866  1.7614  0.1001
  155MOL   H11846626   2.017   4.572   4.583 -1.1803 -0.9582 -2.4157
  155MOL   H11946627   2.097   4.731   4.614 -0.3016  1.9638 -0.9794
  155MOL   H12046628   1.719   4.353   4.209  1.7103  0.7756 -1.6191
  155MOL   H12146629   1.796   4.381   4.365 -0.9839  0.1032  1.0802
  155MOL   C12246630   1.646   4.518   4.328 -0.6177 -0.6651 -0.0887
  155MOL   O12346631   1.513   4.471   4.322 -0.2530 -0.2184  0.1609
  155MOL   C12446632   1.414   4.546   4.281  0.1960  0.2058 -0.2710
  155MOL   O12546633   1.416   4.668   4.256 -0.0448 -0.0011  0.2882
  155MOL   C12646634   1.284   4.469   4.274  0.0719 -0.2065 -0.5125
  155MOL   C12746635   1.291   4.352   4.178 -0.1553  0.0973  0.0249
  155MOL   C12846636   1.671   4.559   4.480 -0.2848  0.8507 -0.4662
  155MOL   H12946637   1.643   4.607   4.266  1.6987  0.0084  0.6807
  155MOL   H13046638   1.258   4.438   4.375 -1.5017  1.1003 -0.5001
  155MOL   H13146639   1.214   4.541   4.232 -2.3189 -1.0808  1.8524
  155MOL   H13246640   1.321   4.257   4.221 -2.3874 -1.0443 -0.8488
  155MOL   H13346641   1.194   4.327   4.134 -1.1608 -0.4200  2.4808
  155MOL   H13446642   1.353   4.366   4.089  0.5367 -2.0447  0.1469
  155MOL   H13546643   1.773   4.597   4.489  0.0840 -0.3824  0.8210
  155MOL   H13646644   1.605   4.643   4.500 -3.0197 -1.1279 -0.9125
  155MOL   C13746645   1.641   4.455   4.594 -0.0097  0.4937 -0.0408
  155MOL   O13846646   1.639   4.325   4.551 -0.3162  0.3326 -0.2159
  155MOL   C13946647   1.541   4.242   4.557 -0.4519  0.2495  0.0445
  155MOL   O14046648   1.436   4.259   4.612  0.1044 -0.3173 -0.2781
  155MOL   C14146649   1.581   4.112   4.494 -0.1562  0.2106 -0.0011
  155MOL   C14246650   1.499   4.076   4.371 -0.7399 -0.2970 -0.4985
  155MOL   C14346651   1.733   4.474   4.716  0.4304 -0.0747 -0.6168
  155MOL   H14446652   1.538   4.464   4.629 -0.2024  2.0391 -0.9580
  155MOL   H14546653   1.685   4.111   4.461  0.7084  0.8300  2.6068
  155MOL   H14646654   1.572   4.033   4.568  0.3686 -0.4674 -0.6527
  155MOL   H14746655   1.393   4.072   4.396 -0.2723  0.2050  1.6074
  155MOL   H14846656   1.517   4.132   4.279  2.5435 -1.3901 -0.5738
  155MOL   H14946657   1.510   3.970   4.349 -2.6174 -0.7099  0.4997
  155MOL   H15046658   1.739   4.376   4.763  0.1155  0.1457 -0.1068
  155MOL   H15146659   1.837   4.490   4.687 -0.0137 -0.2639 -2.3239
  155MOL   C15246660   1.678   4.566   4.828 -0.0320  0.5419  0.5926
  155MOL   O15346661   1.636   4.691   4.769  0.4332  0.4359  0.1635
  155MOL   C15446662   1.650   4.801   4.838 -0.0658 -0.2999  0.1242
  155MOL   O15546663   1.719   4.823   4.936 -0.5397  0.2174 -0.3654
  155MOL   C15646664   1.550   4.906   4.797  0.2299 -0.6499 -0.3664
  155MOL   C15746665   1.547   4.951   4.648 -0.3003  0.0737 -0.2434
  155MOL   C15846666   1.562   4.488   4.892 -0.1662  0.2750  0.4700
  155MOL   H15946667   1.764   4.590   4.891  1.7155 -2.4321 -0.5409
  155MOL   H16046668   1.449   4.873   4.822 -1.6596  2.9807 -2.8059
  155MOL   H16146669   1.575   4.985   4.867  0.9033  0.6133 -1.9980
  155MOL   H16246670   1.597   4.880   4.582 -1.7606 -2.2763  1.1000
  155MOL   H16346671   1.448   4.962   4.602 -0.1193 -0.4224 -0.7571
  155MOL   H16446672   1.615   5.036   4.641  0.9207 -0.8660 -0.0005
  155MOL   H16546673   1.477   4.556   4.902 -0.4886  0.2618 -1.7119
  155MOL   H16646674   1.537   4.397   4.837  1.2044  0.8950 -1.2143
  155MOL   C16746675   1.580   4.446   5.041 -0.2600  0.4788  0.4909
  155MOL   O16846676   1.606   4.553   5.130 -0.3028 -0.7087  0.1764
  155MOL   C16946677   1.725   4.572   5.188 -0.4106  0.0396 -0.2268
  155MOL   O17046678   1.823   4.492   5.184  0.2065  0.2059  0.1844
  155MOL   C17146679   1.732   4.708   5.262  0.2146  0.3588 -0.3395
  155MOL   C17246680   1.865   4.737   5.329  0.5827  0.6850 -0.7413
  155MOL   C17346681   1.464   4.364   5.092  0.1128  0.2471  0.6436
  155MOL   H17446682   1.666   4.379   5.043 -1.1926 -0.8012 -0.7895
  155MOL   H17546683   1.687   4.782   5.196  0.0404 -0.6299 -1.3456
  155MOL   H17646684   1.664   4.696   5.347  0.3173 -1.6013 -0.5285
  155MOL   H17746685   1.901   4.640   5.364  1.0135  0.5291 -1.5998
  155MOL   H17846686   1.947   4.774   5.268  1.5659 -1.0078 -0.4882
  155MOL   H17946687   1.838   4.803   5.411  0.4526  1.5630 -1.4809
  155MOL   H18046688   1.468   4.350   5.200  0.5672  0.7711  0.6997
  155MOL   H18146689   1.376   4.422   5.063 -0.4898 -0.4775  1.0239
  155MOL   C18246690   1.454   4.215   5.036  0.0118  0.1442 -0.4701
  155MOL   O18346691   1.557   4.142   5.098  0.4450  0.6195  0.3632
  155MOL   C18446692   1.664   4.104   5.029 -0.0372  0.3044 -0.7757
  155MOL   O18546693   1.676   4.101   4.907 -0.2315  0.7250 -0.3809
  155MOL   C18646694   1.774   4.050   5.118  0.0050 -0.1889 -0.2451
  155MOL   C18746695   1.822   4.148   5.229  0.6004 -0.4124  0.1537
  155MOL   C18846696   1.320   4.162   5.077  0.2151 -0.1974 -0.3552
  155MOL   H18946697   1.460   4.218   4.927 -1.5503  0.9354 -0.5506
  155MOL   H19046698   1.747   3.965   5.181  0.7820 -1.3577 -1.4698
  155MOL   H19146699   1.856   4.018   5.053  0.7661  0.5351  0.3513
  155MOL   H19246700   1.900   4.215   5.192  0.3315  0.1868  0.6676
  155MOL   H19346701   1.746   4.193   5.292  1.8922  1.9698  0.0761
  155MOL   H19446702   1.880   4.088   5.300  0.5641 -0.3776  0.2130
  155MOL   H19546703   1.312   4.165   5.185 -0.3576 -1.7185 -0.3392
  155MOL   H19646704   1.236   4.222   5.042  1.3839  1.4223 -0.4491
  155MOL   C19746705   1.302   4.013   5.032  0.3231 -0.0091  0.1272
  155MOL   O19846706   1.181   3.961   5.097 -0.1419  0.0351 -0.1109
  155MOL   C19946707   1.181   3.866   5.185  1.0587 -0.3268  0.6056
  155MOL   O20046708   1.278   3.806   5.234  0.0832 -0.3612  0.7045
  155MOL   C20146709   1.036   3.824   5.221  0.7372  0.3205 -0.3872
  155MOL   C20246710   0.968   3.739   5.113 -0.4475  0.3701  0.3158
  155MOL   C20346711   1.289   3.982   4.884  0.5291 -0.4018 -0.6211
  155MOL   H20446712   1.384   3.962   5.082  0.1070 -0.1252  0.3671
  155MOL   H20546713   1.038   3.761   5.309 -0.5405  0.5581 -0.1754
  155MOL   H20646714   0.984   3.914   5.253  1.9638  1.1602 -0.6991
  155MOL   H20746715   0.883   3.683   5.151  0.0832 -1.2870 -0.8800
  155MOL   H20846716   0.933   3.793   5.024 -4.8365 -0.9294  1.1335
  155MOL   H20946717   1.029   3.656   5.079 -1.2302  0.7315 -2.1104
  155MOL   H21046718   1.389   3.998   4.844  0.2158  0.5422 -1.0277
  155MOL   H21146719   1.274   3.874   4.881 -1.1237 -0.1396 -2.4483
  155MOL   C21246720   1.172   4.049   4.797  0.0391  0.0471  0.3451
  155MOL   O21346721   1.207   4.188   4.797  0.0852  0.6162 -0.2294
  155MOL   C21446722   1.115   4.291   4.778  0.2224 -0.1762  0.8499
  155MOL   O21546723   0.996   4.276   4.755  0.6240  0.4685 -0.1101
  155MOL   C21646724   1.178   4.431   4.781  0.3982  0.0432 -0.3892
  155MOL   C21746725   1.209   4.492   4.641 -0.1325  0.6816 -0.0439
  155MOL   C21846726   1.159   3.987   4.658 -0.7427 -0.7333 -0.1125
  155MOL   H21946727   1.076   4.046   4.847 -0.2518  1.9131 -0.0470
  155MOL   H22046728   1.114   4.491   4.846  1.0994 -1.5199  1.7832
  155MOL   H22146729   1.274   4.432   4.833  0.1130  1.9449  0.1263
  155MOL   H22246730   1.275   4.576   4.666  1.5611 -1.0059  1.2883
  155MOL   H22346731   1.259   4.414   4.584 -3.0868 -1.5232  0.2627
  155MOL   H22446732   1.115   4.521   4.595  0.3663  0.1417 -1.4187
  155MOL   H22546733   1.107   4.064   4.600 -1.0215  0.6891  1.9596
  155MOL   H22646734   1.260   3.986   4.617 -0.6167  0.4695  0.1386
  155MOL   C22746735   1.083   3.856   4.630 -0.2144  0.2577  0.4862
  155MOL   O22846736   1.143   3.752   4.702  0.1505  0.7027  0.3382
  155MOL   C22946737   1.197   3.650   4.643 -0.0831  0.7635 -0.7015
  155MOL   O23046738   1.206   3.637   4.524  0.0005 -0.0144 -0.5198
  155MOL   C23146739   1.232   3.537   4.738  0.2488 -0.3782  0.2707
  155MOL   C23246740   1.383   3.505   4.749 -0.3047 -0.3410 -0.0506
  155MOL   C23346741   0.939   3.874   4.664  0.7859  0.4410  0.2223
  155MOL   H23446742   1.086   3.838   4.523  2.2524 -0.2290  0.5961
  155MOL   H23546743   1.200   3.562   4.839 -0.2225 -0.0944  0.0542
  155MOL   H23646744   1.171   3.449   4.719 -0.2069  0.7421 -4.0214
  155MOL   H23746745   1.452   3.589   4.747 -0.9800  0.2047 -0.5162
  155MOL   H23846746   1.404   3.448   4.839 -3.7532  0.0152  1.0498
  155MOL   H23946747   1.412   3.450   4.659 -1.7404 -0.6684 -0.3192
  155MOL   H24046748   0.938   3.889   4.772 -2.7669  0.2461  0.2765
  155MOL   H24146749   0.894   3.958   4.610  0.2729  0.1133  0.1349
  155MOL   C24246750   0.847   3.751   4.647  0.1464 -0.5466 -0.5002
  155MOL   O24346751   0.727   3.787   4.719  0.0169  0.0789  0.0887
  155MOL   C24446752   0.671   3.708   4.805 -0.2214  0.1630 -0.5471
  155MOL   O24546753   0.711   3.596   4.842 -0.0676  0.6318 -0.4787
  155MOL   C24646754   0.543   3.759   4.865  0.4386  0.0163 -0.3600
  155MOL   C24746755   0.569   3.822   5.004  0.2933 -0.3227  0.3941
  155MOL   C24846756   0.819   3.705   4.503 -0.1008 -0.0632 -0.3610
  155MOL   H24946757   0.888   3.662   4.695 -2.0397 -0.6105  1.3615
  155MOL   H25046758   0.484   3.827   4.803  0.0520 -0.6435 -0.7267
  155MOL   H25146759   0.473   3.676   4.870 -0.6954  0.9769 -0.1465
  155MOL   H25246760   0.476   3.850   5.053 -0.1912 -2.5714  0.7940
  155MOL   H25346761   0.619   3.743   5.060  1.9223  0.1403 -0.3649
  155MOL   H25446762   0.626   3.915   4.994 -1.1436  0.4345 -0.8777
  155MOL   H25546763   0.768   3.785   4.449  1.1170  1.7043  1.0555
  155MOL   H25646764   0.921   3.696   4.466  0.1652  1.1305  0.0755
  155MOL   C25746765   0.750   3.568   4.486 -0.2412  0.0427 -0.3105
  155MOL   O25846766   0.614   3.582   4.502  0.1597  0.1678  0.1881
  155MOL   C25946767   0.540   3.488   4.567  0.8163 -0.4521 -0.8664
  155MOL   O26046768   0.586   3.381   4.622  0.4302 -0.5428 -0.2923
  155MOL   C26146769   0.385   3.514   4.565  0.2626  0.0462 -0.5399
  155MOL   C26246770   0.358   3.577   4.425 -0.0392  0.7281 -0.2403
  155MOL   C26346771   0.780   3.509   4.350 -0.3246 -0.0016  0.4519
  155MOL   H26446772   0.793   3.497   4.556  1.1337 -1.3426 -2.5080
  155MOL   H26546773   0.354   3.410   4.580  1.5757 -0.3991 -0.8481
  155MOL   H26646774   0.370   3.577   4.652 -3.1506  0.1113 -1.1259
  155MOL   H26746775   0.376   3.684   4.425  0.1683  0.6928 -0.1290
  155MOL   H26846776   0.415   3.526   4.347 -0.7984 -1.8393  0.8229
  155MOL   H26946777   0.250   3.565   4.416  0.2643 -0.2881 -3.2053
  155MOL   H27046778   0.737   3.568   4.268 -0.8267  0.9077  1.3497
  155MOL   H27146779   0.887   3.512   4.331 -0.2250 -1.7476  0.7269
  155MOL   C27246780   0.755   3.359   4.321 -0.1647 -0.2400 -0.1885
  155MOL   O27346781   0.783   3.342   4.181  0.1956  0.3214  0.2243
  155MOL   C27446782   0.692   3.288   4.106  0.7826  0.1304 -0.0345
  155MOL   O27546783   0.592   3.225   4.147  0.0627  0.1602 -0.3421
  155MOL   C27646784   0.712   3.318   3.960  0.7150  0.4590  0.6426
  155MOL   C27746785   0.849   3.256   3.916 -0.1680 -0.1099  1.0929
  155MOL   C27846786   0.840   3.255   4.402 -0.5621  0.3564 -0.3366
  155MOL   H27946787   0.649   3.340   4.338 -0.6268  1.2872 -1.2702
  155MOL   H28046788   0.631   3.277   3.900  0.2946  3.1105 -0.6789
  155MOL   H28146789   0.722   3.426   3.951  2.8465  0.4242  2.2380
  155MOL   H28246790   0.880   3.243   3.812  1.2344 -1.2534  1.6323
  155MOL   H28346791   0.931   3.308   3.966 -0.5955  1.4232  0.2336
  155MOL   H28446792   0.853   3.151   3.945 -0.9734 -0.9937 -1.8090
  155MOL   H28546793   0.796   3.246   4.502  0.9090 -0.5212  0.2421
  155MOL   H28646794   0.840   3.150   4.373  1.4370  0.6155 -1.3472
  155MOL   C28746795   0.985   3.292   4.432 -0.9940  0.0707  0.5201
  155MOL   O28846796   1.046   3.201   4.527  0.8463 -0.3661  0.4308
  155MOL   C28946797   1.042   3.230   4.660 -0.2200  0.8141 -0.5471
  155MOL   O29046798   0.973   3.318   4.710  1.1624 -0.3933  0.4162
  155MOL   C29146799   1.133   3.139   4.744 -0.1445 -0.2024  0.5270
  155MOL   C29246800   1.176   3.184   4.883  0.2509  0.1531  0.2833
  155MOL   C29346801   1.078   3.289   4.312 -0.1442 -0.2376  0.2745
  155MOL   H29446802   0.985   3.393   4.473 -0.4516  0.3332 -0.1259
  155MOL   H29546803   1.080   3.044   4.739 -1.8861  0.8074 -0.7284
  155MOL   H29646804   1.224   3.121   4.686 -0.1817 -0.4238  0.5353
  155MOL   H29746805   1.277   3.224   4.895 -0.1330  0.6551  2.1136
  155MOL   H29846806   1.111   3.264   4.920  0.2840  0.3948 -0.1794
  155MOL   H29946807   1.165   3.111   4.963 -1.6284 -1.4282 -1.3507
  155MOL   H30046808   1.032   3.351   4.235  2.6352 -0.0109 -1.2536
  155MOL   H30146809   1.183   3.313   4.326 -0.3222  0.0802  1.1177
  155MOL   H30246810   1.074   3.195   4.255  1.4870  0.4413 -0.9964
  156MOL     C146811   3.428   3.640   6.581  0.0946  0.0471  0.4847
  156MOL     O246812   3.418   3.534   6.482 -0.3334 -0.4779  0.0797
  156MOL     C346813   3.471   3.557   6.361  0.0221 -0.1067  0.2469
  156MOL     O446814   3.504   3.668   6.312  0.4116  0.0311 -0.1307
  156MOL     C546815   3.505   3.425   6.287 -0.0334 -0.3464 -0.7292
  156MOL     C646816   3.627   3.358   6.340 -0.2645 -0.5424  0.0416
  156MOL     C746817   3.308   3.741   6.560 -0.1902 -0.4256 -0.7864
  156MOL     H846818   3.525   3.690   6.574  0.0465  0.0290 -0.3813
  156MOL     H946819   3.421   3.358   6.271 -1.2931  1.5199 -2.0692
  156MOL    H1046820   3.526   3.444   6.182 -1.6215 -0.0152 -0.9950
  156MOL    H1146821   3.610   3.338   6.445 -2.4142  1.6045  0.1508
  156MOL    H1246822   3.647   3.260   6.297  0.2018 -0.8986  1.0759
  156MOL    H1346823   3.717   3.416   6.321 -1.5153  0.7548 -2.3062
  156MOL    H1446824   3.334   3.837   6.604 -2.7111  1.1066 -2.4571
  156MOL    H1546825   3.300   3.774   6.456  1.1864 -1.5417 -1.2539
  156MOL    H1646826   3.448   3.593   6.677 -1.5955 -0.3912  0.6334
  156MOL    C1746827   3.172   3.685   6.597  0.0727 -0.0722  0.6804
  156MOL    O1846828   3.178   3.632   6.725 -0.1222  0.2357 -0.5534
  156MOL    C1946829   3.138   3.502   6.745  0.5207  0.1772 -0.2868
  156MOL    O2046830   3.113   3.417   6.655 -0.6349 -0.0737 -0.1815
  156MOL    C2146831   3.135   3.461   6.887  1.0868  0.3529  0.3992
  156MOL    C2246832   3.052   3.559   6.976  0.4852  0.5222 -0.2935
  156MOL    C2346833   3.070   3.800   6.605  0.0521 -0.1467  0.8222
  156MOL    H2446834   3.143   3.607   6.527  0.2405 -0.6919  1.2918
  156MOL    H2546835   3.105   3.357   6.903 -0.6617  0.9581  1.1956
  156MOL    H2646836   3.239   3.477   6.917  1.2411  0.6569 -0.3088
  156MOL    H2746837   3.092   3.660   6.982 -0.3523  0.9711 -1.9411
  156MOL    H2846838   2.950   3.557   6.938 -0.1815 -1.0452  1.4861
  156MOL    H2946839   3.052   3.520   7.078 -0.7779 -0.2318 -0.5636
  156MOL    H3046840   2.995   3.773   6.679  0.2446 -0.5941  0.8528
  156MOL    H3146841   3.115   3.893   6.639 -3.1289  1.9346 -0.3965
  156MOL    C3246842   2.990   3.830   6.478  0.2956 -0.5554 -0.4017
  156MOL    O3346843   2.927   3.703   6.443  0.2343 -0.2368 -0.2520
  156MOL    C3446844   2.911   3.661   6.322  0.1327 -1.2328 -0.2566
  156MOL    O3546845   2.936   3.726   6.216 -0.3310  0.3157 -0.0298
  156MOL    C3646846   2.848   3.527   6.314 -0.6045 -0.3195 -0.1643
  156MOL    C3746847   2.899   3.434   6.200 -0.2593 -0.1616  0.1144
  156MOL    C3846848   2.876   3.922   6.497  0.1350  0.6682 -0.3030
  156MOL    H3946849   3.045   3.849   6.386 -0.5353  1.8557 -0.4443
  156MOL    H4046850   2.869   3.470   6.405 -0.9196 -1.8372 -1.0157
  156MOL    H4146851   2.739   3.529   6.312 -0.6175  0.4230  1.0581
  156MOL    H4246852   2.996   3.396   6.234  0.5019  2.4198  0.9087
  156MOL    H4346853   2.830   3.350   6.196  1.2050 -1.5402  2.1974
  156MOL    H4446854   2.906   3.486   6.105 -0.9578  2.0811  1.2624
  156MOL    H4546855   2.830   3.913   6.398 -1.6393 -1.4313  0.6789
  156MOL    H4646856   2.804   3.882   6.568  3.2987 -3.7365  0.6220
  156MOL    C4746857   2.915   4.077   6.507 -0.5907  0.6450  0.7375
  156MOL    O4846858   3.011   4.118   6.409 -0.1524  0.5649 -0.4707
  156MOL    C4946859   3.143   4.123   6.435  0.2486 -0.0688 -0.0984
  156MOL    O5046860   3.195   4.102   6.541 -0.2315  0.5345 -0.4053
  156MOL    C5146861   3.228   4.158   6.307  0.3344 -0.0084 -0.1881
  156MOL    C5246862   3.362   4.086   6.297 -0.0132  0.4932 -0.6910
  156MOL    C5346863   2.784   4.161   6.484 -0.5682  0.1296 -0.2411
  156MOL    H5446864   2.956   4.093   6.607  0.0323  1.2223  0.3943
  156MOL    H5546865   3.161   4.140   6.223 -1.7871  2.8327  0.8464
  156MOL    H5646866   3.240   4.266   6.307  0.1762  0.0098 -1.4188
  156MOL    H5746867   3.424   4.099   6.386  0.9173  0.8014 -1.3737
  156MOL    H5846868   3.347   3.978   6.285 -1.6202  0.4282  1.6094
  156MOL    H5946869   3.424   4.131   6.220  0.9553 -0.1671 -0.3204
  156MOL    H6046870   2.816   4.265   6.479  1.0004 -0.2850  0.7383
  156MOL    H6146871   2.743   4.130   6.388  0.8280 -0.6338 -0.5989
  156MOL    C6246872   2.667   4.144   6.578  0.3764  0.2783  0.0194
  156MOL    O6346873   2.701   4.198   6.709 -0.0614 -0.4396  0.9753
  156MOL    C6446874   2.717   4.114   6.816 -0.0472  0.7265  1.1851
  156MOL    O6546875   2.711   3.991   6.811  0.3399  0.1491 -0.2220
  156MOL    C6646876   2.757   4.188   6.944  0.1583  0.3663 -0.1887
  156MOL    C6746877   2.801   4.104   7.065  0.4388 -0.0926 -0.5761
  156MOL    C6846878   2.536   4.212   6.521 -0.5700 -0.1484 -0.1223
  156MOL    H6946879   2.631   4.042   6.593 -1.4394  0.6429 -1.5983
  156MOL    H7046880   2.852   4.235   6.918  0.0442  1.4589  1.3304
  156MOL    H7146881   2.688   4.271   6.960 -1.8406 -0.7339 -2.8141
  156MOL    H7246882   2.907   4.078   7.063  0.7004  0.9901 -2.3372
  156MOL    H7346883   2.791   4.156   7.161  1.5874 -1.3048  0.2147
  156MOL    H7446884   2.747   4.011   7.078  2.1052 -0.8956  0.7997
  156MOL    H7546885   2.536   4.317   6.550 -1.5172 -0.3346  0.5577
  156MOL    H7646886   2.526   4.206   6.413  1.2286  0.1264 -0.3170
  156MOL    C7746887   2.412   4.139   6.579 -0.4210 -0.7125  0.7150
  156MOL    O7846888   2.321   4.248   6.591  0.0690  0.1798 -0.5265
  156MOL    C7946889   2.210   4.249   6.670 -1.0927 -0.6180 -0.1858
  156MOL    O8046890   2.180   4.162   6.748 -0.1135 -0.0851  0.1161
  156MOL    C8146891   2.114   4.368   6.650  0.3446  0.2404  0.2885
  156MOL    C8246892   1.979   4.330   6.597  0.0426 -0.1549 -0.2965
  156MOL    C8346893   2.348   4.045   6.471 -0.1458  0.1137  0.4895
  156MOL    H8446894   2.435   4.081   6.669 -0.9201 -1.1863  0.5409
  156MOL    H8546895   2.108   4.409   6.750 -0.2707 -1.1365  0.8297
  156MOL    H8646896   2.163   4.455   6.606 -1.3522  0.4994 -1.1185
  156MOL    H8746897   1.896   4.382   6.646  0.8414  1.9683 -1.1079
  156MOL    H8846898   1.980   4.358   6.491 -2.8025 -1.7544 -0.7767
  156MOL    H8946899   1.959   4.223   6.602 -4.1377  0.4998 -1.4419
  156MOL    H9046900   2.244   4.026   6.496 -0.0821 -0.3748  0.3851
  156MOL    H9146901   2.370   4.085   6.372  1.0006 -1.0465  0.2511
  156MOL    C9246902   2.422   3.903   6.470  0.5724  0.0534  0.1157
  156MOL    O9346903   2.403   3.840   6.601 -0.5507  0.1923 -0.0492
  156MOL    C9446904   2.490   3.740   6.650  0.1756  0.0240 -0.0824
  156MOL    O9546905   2.584   3.681   6.594  0.5667  0.5042  0.2745
  156MOL    C9646906   2.453   3.706   6.795  0.5829 -0.0458  0.9288
  156MOL    C9746907   2.524   3.585   6.849  0.6990  0.7379 -0.8626
  156MOL    C9846908   2.360   3.815   6.361 -0.3217  0.1656 -0.4692
  156MOL    H9946909   2.529   3.918   6.453  0.6826 -0.1095  0.6526
  156MOL   H10046910   2.461   3.794   6.859  0.2957 -0.5386  1.6589
  156MOL   H10146911   2.345   3.692   6.801  0.6952 -0.5683  2.0418
  156MOL   H10246912   2.502   3.567   6.954  2.9787 -2.9465 -0.9498
  156MOL   H10346913   2.498   3.491   6.801  0.8007  0.8676 -1.1739
  156MOL   H10446914   2.633   3.591   6.851  0.6886  0.7832  0.7941
  156MOL   H10546915   2.388   3.714   6.389 -3.1452 -0.3381  0.6527
  156MOL   H10646916   2.253   3.829   6.371 -0.1999  0.5269  0.4422
  156MOL   C10746917   2.407   3.861   6.216 -0.3509 -0.0344 -0.5785
  156MOL   O10846918   2.547   3.847   6.188  0.0785  0.7239 -0.4555
  156MOL   C10946919   2.614   3.963   6.158  0.1758 -0.1741 -1.0203
  156MOL   O11046920   2.575   4.078   6.189 -0.8983 -0.0965  0.0652
  156MOL   C11146921   2.727   3.945   6.057  0.4581 -0.4712 -0.3887
  156MOL   C11246922   2.688   4.003   5.922 -0.8422  0.2179  0.2418
  156MOL   C11346923   2.329   3.786   6.111  0.1382  0.3928 -0.2296
  156MOL   H11446924   2.381   3.967   6.217  1.1254  0.3346  1.2315
  156MOL   H11546925   2.816   3.984   6.107 -0.0551 -0.7917  0.7990
  156MOL   H11646926   2.741   3.838   6.040 -0.0473 -0.9204  1.9104
  156MOL   H11746927   2.586   3.972   5.900 -1.1784  1.8285 -0.5189
  156MOL   H11846928   2.675   4.111   5.931  0.2101  0.4392 -0.8832
  156MOL   H11946929   2.753   3.982   5.837 -0.5333  0.2045  0.4782
  156MOL   H12046930   2.372   3.810   6.014 -0.5898  0.1133 -0.6207
  156MOL   H12146931   2.349   3.683   6.142 -0.6898  0.6144  1.0818
  156MOL   C12246932   2.179   3.805   6.090  0.5182 -0.6152  0.5511
  156MOL   O12346933   2.133   3.936   6.058  0.3754 -0.2034  0.4858
  156MOL   C12446934   2.084   4.007   6.162 -0.1415  0.8603 -0.0308
  156MOL   O12546935   2.082   3.978   6.281  0.4822  0.1233  0.1556
  156MOL   C12646936   2.018   4.132   6.104  0.0563 -0.1788  0.1168
  156MOL   C12746937   2.112   4.211   6.017 -0.0741  0.0594 -0.3056
  156MOL   C12846938   2.109   3.703   5.989  0.5656 -0.0556 -0.1604
  156MOL   H12946939   2.131   3.781   6.185 -1.4058  2.0577  0.2964
  156MOL   H13046940   1.929   4.104   6.048  0.4622  0.6243 -0.9244
  156MOL   H13146941   1.996   4.202   6.184  0.6296 -1.1343  1.1274
  156MOL   H13246942   2.062   4.302   5.985  0.2144  0.0328 -0.8382
  156MOL   H13346943   2.206   4.241   6.063  1.4511 -2.4440 -1.6557
  156MOL   H13446944   2.121   4.166   5.918 -0.9873 -0.9871  0.0820
  156MOL   H13546945   2.004   3.721   5.967  0.3482 -0.8266  0.2518
  156MOL   H13646946   2.168   3.708   5.898 -2.0134  0.3999 -1.8767
  156MOL   C13746947   2.107   3.558   6.045 -0.7828 -0.6374  1.1972
  156MOL   O13846948   2.015   3.557   6.156 -0.5406  0.0619  0.4254
  156MOL   C13946949   2.063   3.549   6.284  0.6754  0.4695 -0.0096
  156MOL   O14046950   2.181   3.546   6.320 -0.3704  0.0287 -0.5131
  156MOL   C14146951   1.948   3.535   6.374 -0.0799 -0.2705  0.2194
  156MOL   C14246952   1.910   3.386   6.403  0.7410 -0.0078  0.3447
  156MOL   C14346953   2.046   3.456   5.936  0.0023  0.3955  0.3562
  156MOL   H14446954   2.206   3.527   6.079 -0.2198  0.2691  0.4066
  156MOL   H14546955   1.974   3.597   6.460  1.5441  0.7493 -0.9841
  156MOL   H14646956   1.861   3.584   6.330 -1.2076 -1.3273  1.2139
  156MOL   H14746957   1.850   3.348   6.320  1.5467 -0.4255 -0.0461
  156MOL   H14846958   1.990   3.315   6.422  0.9285  0.5757  1.7741
  156MOL   H14946959   1.837   3.399   6.483  2.1206  1.2237  1.4266
  156MOL   H15046960   2.027   3.364   5.992  2.5663  1.4950  3.1991
  156MOL   H15146961   1.951   3.505   5.915 -0.7381 -1.2881 -0.3102
  156MOL   C15246962   2.145   3.438   5.812 -0.2279 -0.8186 -1.1958
  156MOL   O15346963   2.277   3.368   5.832 -0.7597  0.9305 -0.2011
  156MOL   C15446964   2.391   3.429   5.874  0.4756  0.0452 -0.3020
  156MOL   O15546965   2.401   3.545   5.903  0.3176 -0.6364  0.4418
  156MOL   C15646966   2.495   3.326   5.908 -0.6385  0.0691  0.1741
  156MOL   C15746967   2.631   3.396   5.946  0.3515 -0.0777 -0.2056
  156MOL   C15846968   2.085   3.369   5.694  0.8805  0.2582  0.1786
  156MOL   H15946969   2.178   3.539   5.790  0.0106 -0.2204  1.6718
  156MOL   H16046970   2.458   3.263   5.989  0.8069 -1.6953 -0.4943
  156MOL   H16146971   2.502   3.248   5.833 -1.8705  2.1875 -2.2161
  156MOL   H16246972   2.607   3.460   6.030  0.9729  0.6521 -0.5807
  156MOL   H16346973   2.719   3.339   5.976 -0.8811 -1.5778  0.6156
  156MOL   H16446974   2.655   3.453   5.856  1.0617  1.0148  0.6745
  156MOL   H16546975   2.161   3.378   5.616 -0.4227 -1.4288 -1.3309
  156MOL   H16646976   2.082   3.262   5.710  0.9204  0.4558  1.5535
  156MOL   C16746977   1.951   3.427   5.647  0.2003  0.2512 -0.0015
  156MOL   O16846978   1.976   3.560   5.603  0.1369 -0.7100 -0.0451
  156MOL   C16946979   1.917   3.660   5.669 -0.1378  0.6751  0.1644
  156MOL   O17046980   1.829   3.651   5.755 -0.3615  0.2174 -0.4156
  156MOL   C17146981   1.967   3.804   5.633  1.2770 -0.1411  0.2120
  156MOL   C17246982   1.898   3.923   5.705 -0.0442 -0.0823  0.7878
  156MOL   C17346983   1.884   3.343   5.539  0.3407  0.0544  0.7631
  156MOL   H17446984   1.881   3.418   5.730 -0.3981 -0.1205 -0.5339
  156MOL   H17546985   2.075   3.798   5.646  1.3528  0.4595 -0.1297
  156MOL   H17646986   1.936   3.818   5.529  0.5538 -0.2291  0.4094
  156MOL   H17746987   1.906   3.899   5.811  0.3739 -1.2396  0.4984
  156MOL   H17846988   1.948   4.014   5.672 -0.5225 -0.6261 -1.4543
  156MOL   H17946989   1.790   3.927   5.690 -0.0036 -0.0905  0.5086
  156MOL   H18046990   1.914   3.370   5.437  1.6348  2.4879  1.7466
  156MOL   H18146991   1.918   3.241   5.556 -1.1082 -0.6349 -0.3401
  156MOL   C18246992   1.733   3.343   5.561 -1.1722 -0.0930 -1.1370
  156MOL   O18346993   1.681   3.439   5.470  0.4766 -0.3087 -0.4804
  156MOL   C18446994   1.565   3.497   5.494 -0.5266  0.0830 -0.8010
  156MOL   O18546995   1.483   3.491   5.588 -0.5430 -0.0605  0.1091
  156MOL   C18646996   1.532   3.594   5.382  0.3487 -0.5604 -0.3973
  156MOL   C18746997   1.642   3.701   5.344  0.3324 -0.1533 -0.8368
  156MOL   C18846998   1.665   3.209   5.547  0.5625  0.1918  0.2475
  156MOL   H18946999   1.711   3.383   5.659 -0.0070 -1.0527 -0.4639
  156MOL   H19047000   1.502   3.539   5.293  1.1595  1.2810 -1.8391
  156MOL   H19147001   1.442   3.652   5.406 -0.9159 -2.7898  0.3716
  156MOL   H19247002   1.715   3.666   5.271  0.3917  2.9856 -2.3674
  156MOL   H19347003   1.601   3.789   5.295 -0.4928  0.0202  0.1466
  156MOL   H19447004   1.690   3.743   5.433  0.3267 -1.3221 -0.2777
  156MOL   H19547005   1.557   3.225   5.550  0.6155  0.1513  3.4714
  156MOL   H19647006   1.699   3.166   5.453  2.0008 -0.2931  0.9900
  156MOL   C19747007   1.696   3.110   5.663  0.1805  0.2318  0.4623
  156MOL   O19847008   1.595   3.127   5.766  0.5310  0.1126  0.1280
  156MOL   C19947009   1.624   3.195   5.878 -0.0401  0.5111  0.7559
  156MOL   O20047010   1.735   3.252   5.900  0.2408  0.6780 -0.3560
  156MOL   C20147011   1.517   3.191   5.987  0.6332 -0.3383  0.5286
  156MOL   C20247012   1.414   3.312   5.966 -0.1012 -0.7470 -0.2050
  156MOL   C20347013   1.673   2.958   5.628  0.3839  0.8429  0.2973
  156MOL   H20447014   1.802   3.109   5.688  0.8926  2.1631 -2.2107
  156MOL   H20547015   1.465   3.095   5.977  0.9567 -0.4385 -0.3038
  156MOL   H20647016   1.562   3.188   6.086  0.9179  0.5543  0.4276
  156MOL   H20747017   1.462   3.408   5.947 -0.6758 -0.0501  1.6470
  156MOL   H20847018   1.351   3.298   5.878  1.7866 -0.6526 -1.6033
  156MOL   H20947019   1.342   3.304   6.048  0.2573  0.5462  0.2578
  156MOL   H21047020   1.678   2.903   5.722 -0.4784  0.4756  0.1270
  156MOL   H21147021   1.572   2.944   5.591  0.3594 -0.5457  0.8622
  156MOL   C21247022   1.777   2.894   5.528 -0.1494 -0.0062  0.0865
  156MOL   O21347023   1.885   2.863   5.617 -0.1829  0.0324 -0.2029
  156MOL   C21447024   2.005   2.916   5.589 -0.1129  0.0689 -0.2870
  156MOL   O21547025   2.031   2.987   5.493  0.0333  0.3293 -0.2172
  156MOL   C21647026   2.105   2.887   5.692 -0.3705  0.2904 -0.1553
  156MOL   C21747027   2.106   2.983   5.812  0.0102 -0.9010 -0.3871
  156MOL   C21847028   1.741   2.760   5.457 -0.4838  0.2425 -0.7167
  156MOL   H21947029   1.815   2.956   5.448 -1.4786 -0.0412 -0.5881
  156MOL   H22047030   2.106   2.781   5.716  1.5288  0.1495 -0.7862
  156MOL   H22147031   2.202   2.876   5.644 -0.4467  2.0152 -0.7425
  156MOL   H22247032   2.164   2.946   5.898  1.8333 -0.7645 -1.5225
  156MOL   H22347033   2.155   3.079   5.792  0.6093 -1.2629 -0.6772
  156MOL   H22447034   2.007   2.989   5.856  0.2815  2.9121 -0.0972
  156MOL   H22547035   1.825   2.691   5.445 -2.4615 -2.2607 -0.5379
  156MOL   H22647036   1.666   2.716   5.523  2.1396 -0.4660  1.9232
  156MOL   C22747037   1.701   2.780   5.313  0.0564  0.7343 -0.3911
  156MOL   O22847038   1.607   2.889   5.320  0.7206  0.3990  0.5161
  156MOL   C22947039   1.473   2.865   5.306 -0.4469  1.4416 -0.4354
  156MOL   O23047040   1.426   2.752   5.301 -0.0904 -0.0401  0.2017
  156MOL   C23147041   1.382   2.980   5.317 -0.3193  0.6008 -0.1830
  156MOL   C23247042   1.449   3.111   5.264  0.3290 -0.1202  0.0712
  156MOL   C23347043   1.816   2.833   5.224 -0.7447  0.0015  0.3473
  156MOL   H23447044   1.657   2.693   5.265 -1.7654  0.7444  1.1806
  156MOL   H23547045   1.291   2.957   5.262 -0.9214  1.6473  0.3524
  156MOL   H23647046   1.343   3.003   5.417 -0.6974 -0.4876 -0.0774
  156MOL   H23747047   1.544   3.137   5.311 -1.0762  2.7720  1.4292
  156MOL   H23847048   1.476   3.081   5.163 -0.3810 -0.3215 -0.0608
  156MOL   H23947049   1.370   3.182   5.288 -0.0484 -1.4357  2.9529
  156MOL   H24047050   1.826   2.941   5.232  0.2903  0.0759 -1.6454
  156MOL   H24147051   1.910   2.790   5.258 -0.5247 -2.6598 -3.3595
  156MOL   C24247052   1.800   2.787   5.081  0.2750 -0.1895 -0.1083
  156MOL   O24347053   1.671   2.842   5.045  0.2084  0.2967 -0.1073
  156MOL   C24447054   1.589   2.767   4.969 -0.2122 -0.7117  0.4213
  156MOL   O24547055   1.623   2.656   4.920 -0.0768 -0.1532 -0.0722
  156MOL   C24647056   1.461   2.834   4.949 -0.0135 -0.1834 -1.6684
  156MOL   C24747057   1.452   2.902   4.810  1.0370 -0.7460 -0.2449
  156MOL   C24847058   1.912   2.850   4.987 -0.5475 -0.0201  0.0062
  156MOL   H24947059   1.805   2.678   5.087 -0.1625 -0.2434 -0.7399
  156MOL   H25047060   1.384   2.758   4.954 -1.2852  1.1787  0.0687
  156MOL   H25147061   1.431   2.903   5.028 -0.1926 -2.0365 -0.1065
  156MOL   H25247062   1.483   2.830   4.734 -2.1116 -2.6204  0.1482
  156MOL   H25347063   1.347   2.927   4.791  1.1795 -1.1881 -1.7241
  156MOL   H25447064   1.504   2.997   4.808  1.1604 -0.8213 -0.8400
  156MOL   H25547065   1.921   2.955   5.016 -0.9251 -0.2114  0.8278
  156MOL   H25647066   2.005   2.803   5.021 -1.1642 -0.7111  0.7582
  156MOL   C25747067   1.901   2.839   4.839  0.6457 -0.8669 -0.3059
  156MOL   O25847068   1.952   2.954   4.770  0.3457 -0.0603 -0.1870
  156MOL   C25947069   1.879   3.055   4.722 -0.5005  0.8719 -0.3297
  156MOL   O26047070   1.757   3.062   4.731 -0.2767 -0.5159 -0.8096
  156MOL   C26147071   1.967   3.177   4.678 -0.2718  0.4095 -0.5208
  156MOL   C26247072   2.002   3.270   4.788 -0.5333 -0.5678 -0.1555
  156MOL   C26347073   1.944   2.712   4.785  0.3659  0.4967  0.5157
  156MOL   H26447074   1.793   2.826   4.835  0.2641  0.7397  2.9132
  156MOL   H26547075   2.058   3.129   4.642 -0.0536  0.2124  0.2853
  156MOL   H26647076   1.909   3.228   4.601  1.3153  1.1205 -1.2684
  156MOL   H26747077   2.038   3.367   4.756  2.3581 -2.0136 -1.4072
  156MOL   H26847078   1.920   3.298   4.855  0.7331 -1.6932  1.9237
  156MOL   H26947079   2.089   3.226   4.837  1.3898  1.4209 -1.7265
  156MOL   H27047080   2.051   2.707   4.803  0.8911  0.4248 -2.3296
  156MOL   H27147081   1.895   2.628   4.835  1.3757  0.6178  1.7214
  156MOL   C27247082   1.918   2.694   4.634  0.4449 -0.5261 -0.3794
  156MOL   O27347083   2.007   2.591   4.581  0.5264 -0.5823  0.1570
  156MOL   C27447084   2.122   2.631   4.527  0.1650  0.3458 -0.0513
  156MOL   O27547085   2.169   2.740   4.530 -0.6369 -0.1036 -0.2661
  156MOL   C27647086   2.204   2.518   4.465  0.4495  0.6074  0.7818
  156MOL   C27747087   2.185   2.388   4.531 -0.5825 -0.1196  0.0589
  156MOL   C27847088   1.767   2.663   4.591  0.4437 -0.0190  0.7760
  156MOL   H27947089   1.948   2.790   4.592  1.8729 -0.6314  0.3956
  156MOL   H28047090   2.165   2.506   4.364 -1.0037  3.1374  1.0087
  156MOL   H28147091   2.308   2.550   4.462  1.6049 -3.0589 -2.3366
  156MOL   H28247092   2.192   2.390   4.640 -0.2858  0.7802  0.0250
  156MOL   H28347093   2.090   2.347   4.497 -1.1092  0.8421  0.3498
  156MOL   H28447094   2.268   2.324   4.500 -1.2702 -0.6805 -0.6634
  156MOL   H28547095   1.723   2.573   4.633 -1.3177  1.0560  1.3273
  156MOL   H28647096   1.697   2.741   4.624 -0.9393 -1.4817  1.3907
  156MOL   C28747097   1.742   2.655   4.435 -0.2607 -0.0470  0.0744
  156MOL   O28847098   1.609   2.618   4.432 -0.2653  0.2153  0.0926
  156MOL   C28947099   1.564   2.559   4.319 -0.5437  0.9245  0.1380
  156MOL   O29047100   1.626   2.535   4.214  0.5898  0.1890 -0.2750
  156MOL   C29147101   1.417   2.516   4.341 -0.3855 -0.7295  0.1526
  156MOL   C29247102   1.392   2.471   4.483  0.0160  0.5453  0.0492
  156MOL   C29347103   1.774   2.792   4.371 -0.4426  0.1310  0.3675
  156MOL   H29447104   1.802   2.576   4.390 -3.1386 -1.0004 -2.2701
  156MOL   H29547105   1.359   2.602   4.307  0.8576  0.4108  0.8497
  156MOL   H29647106   1.406   2.431   4.274 -0.3987 -0.2535 -0.4483
  156MOL   H29747107   1.465   2.394   4.507 -0.2547  0.1575 -0.3600
  156MOL   H29847108   1.395   2.553   4.555 -1.5624 -0.5752  1.4278
  156MOL   H29947109   1.293   2.425   4.487  0.2443  0.0770  0.3584
  156MOL   H30047110   1.876   2.830   4.368 -0.5996  0.5572  0.3741
  156MOL   H30147111   1.750   2.787   4.264 -1.3581 -0.2213  0.5851
  156MOL   H30247112   1.711   2.872   4.409 -1.4900 -1.0367  1.1144
  157MOL     C147113   3.257   3.716   7.265 -0.4314 -0.1748 -0.3371
  157MOL     O247114   3.148   3.700   7.356  0.0638  0.3656  0.0998
  157MOL     C347115   3.098   3.806   7.428  0.6070  0.6720  0.0396
  157MOL     O447116   3.133   3.924   7.416 -0.2976  0.1691  0.2317
  157MOL     C547117   2.989   3.760   7.524 -0.0057 -0.0323  0.3978
  157MOL     C647118   3.061   3.725   7.651 -0.7142 -0.2117  0.0100
  157MOL     C747119   3.385   3.656   7.335  0.4004 -0.2426  0.7363
  157MOL     H847120   3.266   3.815   7.221  1.8290  0.6162  1.7980
  157MOL     H947121   2.925   3.847   7.539  1.3897  0.5933  3.0775
  157MOL    H1047122   2.932   3.683   7.471 -0.6600  1.9220 -1.8512
  157MOL    H1147123   3.128   3.798   7.697 -1.5916 -1.6196  3.7271
  157MOL    H1247124   2.979   3.718   7.723 -0.9684  0.0288 -0.2581
  157MOL    H1347125   3.126   3.638   7.641 -0.6794  0.0746 -2.5339
  157MOL    H1447126   3.347   3.585   7.410  0.3666 -0.4237  0.5475
  157MOL    H1547127   3.425   3.586   7.262 -0.8494 -0.9799  0.7453
  157MOL    H1647128   3.241   3.655   7.177 -4.4623  0.8507 -0.4029
  157MOL    C1747129   3.485   3.756   7.381  0.0505 -0.5348 -0.8854
  157MOL    O1847130   3.434   3.842   7.481 -0.5087 -0.5579 -0.3109
  157MOL    C1947131   3.500   3.957   7.505 -0.0563  0.0388  0.6127
  157MOL    O2047132   3.605   4.001   7.449  0.0352 -0.3862  0.4805
  157MOL    C2147133   3.413   4.040   7.609  0.0066  0.6673  0.6559
  157MOL    C2247134   3.418   3.989   7.755 -0.0271 -0.5514 -0.0951
  157MOL    C2347135   3.617   3.689   7.410  0.2829 -0.0641  0.2005
  157MOL    H2447136   3.500   3.829   7.302 -1.6711 -0.4303 -1.1294
  157MOL    H2547137   3.460   4.138   7.605 -0.7715  0.9935 -0.8942
  157MOL    H2647138   3.317   4.054   7.560  0.7271  2.9382 -0.1662
  157MOL    H2747139   3.483   3.901   7.763 -1.6385 -1.8787 -1.1857
  157MOL    H2847140   3.463   4.067   7.816  0.7212 -0.2572 -1.0108
  157MOL    H2947141   3.323   3.961   7.800  0.7595 -0.9667  1.3514
  157MOL    H3047142   3.640   3.653   7.310 -1.0897  0.5050 -0.3298
  157MOL    H3147143   3.690   3.759   7.449  0.8982 -0.3800 -0.3869
  157MOL    C3247144   3.611   3.567   7.502  0.4306  0.2074 -0.5153
  157MOL    O3347145   3.745   3.538   7.537 -0.1510 -0.3807 -0.4725
  157MOL    C3447146   3.806   3.438   7.482 -0.4658 -0.1405 -0.3846
  157MOL    O3547147   3.768   3.375   7.391  0.0019  0.0982  0.3722
  157MOL    C3647148   3.932   3.412   7.553  0.2370  0.7665 -0.4669
  157MOL    C3747149   3.912   3.343   7.693  0.2206 -1.4740  0.2498
  157MOL    C3847150   3.528   3.592   7.630 -1.2324  0.4714  0.9881
  157MOL    H3947151   3.574   3.487   7.439 -3.8236  2.1541 -0.6663
  157MOL    H4047152   3.982   3.343   7.485  0.1503 -0.1617  0.3961
  157MOL    H4147153   4.005   3.492   7.552  0.2698  0.7540 -2.6868
  157MOL    H4247154   4.010   3.341   7.740 -0.9325  1.9443  3.0983
  157MOL    H4347155   3.863   3.416   7.758  1.8395 -1.4682  1.5076
  157MOL    H4447156   3.866   3.247   7.716 -1.0648 -1.0928 -0.6842
  157MOL    H4547157   3.579   3.681   7.667 -0.8832  1.3786 -1.5585
  157MOL    H4647158   3.427   3.625   7.607 -0.6305  0.9616 -1.0703
  157MOL    C4747159   3.512   3.476   7.729  0.1332 -0.1640 -0.1726
  157MOL    O4847160   3.458   3.529   7.846  0.1749 -0.3753 -0.2535
  157MOL    C4947161   3.503   3.489   0.024 -0.2274  0.5560 -0.2228
  157MOL    O5047162   3.586   3.402   0.049 -0.0387  0.2589  0.4737
  157MOL    C5147163   3.448   3.566   0.137 -0.5785 -0.4840 -0.4114
  157MOL    C5247164   3.374   3.492   0.244 -0.0413 -0.5324  0.3487
  157MOL    C5347165   3.412   3.366   7.673 -0.3757  0.8437 -0.2812
  157MOL    H5447166   3.610   3.433   7.749 -0.4122 -0.3876  2.1949
  157MOL    H5547167   3.537   3.599   0.192  0.3160 -0.7443 -1.6687
  157MOL    H5647168   3.401   3.661   0.111  0.4552 -0.0113 -0.5895
  157MOL    H5747169   3.294   3.427   0.207  2.2508 -1.4418 -3.2502
  157MOL    H5847170   3.448   3.430   0.295 -0.4485 -1.7751 -0.5244
  157MOL    H5947171   3.326   3.553   0.320 -1.6945 -1.2266 -0.1105
  157MOL    H6047172   3.310   3.391   7.701 -0.2101  1.2780 -0.0613
  157MOL    H6147173   3.426   3.365   7.565 -0.2792 -2.9122 -0.2940
  157MOL    C6247174   3.441   3.228   7.741 -0.0376  0.3265  0.1404
  157MOL    O6347175   3.334   3.134   7.712  0.2971 -0.0661  0.3685
  157MOL    C6447176   3.221   3.141   7.785  0.1375  0.1187  0.6554
  157MOL    O6547177   3.203   3.228   7.870  0.7194 -0.4593 -0.4242
  157MOL    C6647178   3.124   3.027   7.751 -0.0654 -0.5525  0.4436
  157MOL    C6747179   3.014   3.081   7.662  0.7498 -0.3549 -0.0835
  157MOL    C6847180   3.571   3.156   7.696  0.5236  0.0468 -0.1396
  157MOL    H6947181   3.449   3.242   7.848  1.0926  0.7571  0.0003
  157MOL    H7047182   3.176   2.951   7.693  0.7355  1.6441 -1.7488
  157MOL    H7147183   3.085   2.988   7.846 -1.8159  0.1936  0.0568
  157MOL    H7247184   3.039   3.129   7.567  1.0141  1.9013  1.1027
  157MOL    H7347185   2.935   3.013   7.628  0.2699  0.5401 -0.7892
  157MOL    H7447186   2.960   3.164   7.708  1.1815  0.1365 -0.4530
  157MOL    H7547187   3.544   3.116   7.598 -0.8322  1.0185 -0.1770
  157MOL    H7647188   3.653   3.227   7.690  2.0198 -1.7305 -1.0820
  157MOL    C7747189   3.616   3.037   7.784  0.3604  0.2445  0.3691
  157MOL    O7847190   3.744   2.995   7.745 -0.4542 -0.0346  0.1582
  157MOL    C7947191   3.773   2.882   7.674  0.0416  0.1660  0.1827
  157MOL    O8047192   3.705   2.805   7.614 -0.0245  0.0533  0.0017
  157MOL    C8147193   3.924   2.872   7.660 -0.0530  0.4660  0.1023
  157MOL    C8247194   3.957   2.941   7.527  0.4932  0.2304  0.0134
  157MOL    C8347195   3.629   3.054   7.937 -0.1180 -1.1273  0.5110
  157MOL    H8447196   3.544   2.956   7.773  2.6145 -1.8459  0.5380
  157MOL    H8547197   3.962   2.929   7.744 -0.9734 -0.2577  1.0137
  157MOL    H8647198   3.967   2.772   7.669  1.4306  1.0350 -0.5365
  157MOL    H8747199   4.063   2.958   7.541  0.2907  1.1165  0.5041
  157MOL    H8847200   3.938   2.877   7.440 -0.1746 -0.0357  0.3474
  157MOL    H8947201   3.912   3.037   7.503  0.7247  0.3960  0.2429
  157MOL    H9047202   3.696   2.982   0.038  2.8568  0.4460 -1.2376
  157MOL    H9147203   3.667   3.156   7.940 -1.7455 -0.5134  1.3351
  157MOL    C9247204   3.495   3.033   0.071 -0.5921 -0.1215  0.2853
  157MOL    O9347205   3.496   2.893   0.112  0.7618 -0.3131 -0.0163
  157MOL    C9447206   3.411   2.803   0.065  0.1863  0.7991  0.8915
  157MOL    O9547207   3.320   2.828   7.932  0.2393  0.2417 -0.2679
  157MOL    C9647208   3.440   2.654   0.103 -0.1925  0.8575  0.2043
  157MOL    C9747209   3.355   2.601   0.222 -0.4252  0.1474  0.4370
  157MOL    C9847210   3.479   3.118   0.202 -0.0161  0.1235  0.5278
  157MOL    H9947211   3.409   3.045   0.004 -0.3060 -1.8347 -0.4016
  157MOL   H10047212   3.423   2.601   0.009 -1.8272  1.4654  0.1483
  157MOL   H10147213   3.549   2.655   0.110  0.0009  0.7133 -2.1318
  157MOL   H10247214   3.392   2.506   0.260 -1.5598 -0.5328 -0.1153
  157MOL   H10347215   3.342   2.665   0.309 -0.7850  1.1253 -0.3123
  157MOL   H10447216   3.259   2.580   0.175 -0.2407  0.6078 -0.1599
  157MOL   H10547217   3.572   3.101   0.256  0.0745 -1.5825 -0.1588
  157MOL   H10647218   3.477   3.225   0.178 -2.2184 -0.2545 -1.1876
  157MOL   C10747219   3.358   3.075   0.294  0.2367 -0.0862 -0.1733
  157MOL   O10847220   3.359   3.158   0.410  0.6138  0.6550  0.0036
  157MOL   C10947221   3.365   3.103   0.531 -0.6724 -0.2382 -0.3866
  157MOL   O11047222   3.378   2.984   0.547 -0.1271 -0.2361 -0.1652
  157MOL   C11147223   3.368   3.198   0.653 -0.4073  0.1648 -0.4109
  157MOL   C11247224   3.456   3.318   0.622  0.7652 -0.0138 -0.1197
  157MOL   C11347225   3.226   3.097   0.224 -0.2940  0.5289  0.4747
  157MOL   H11447226   3.376   2.971   0.321  1.3872  0.0125 -0.5292
  157MOL   H11547227   3.270   3.232   0.684  0.4884  0.4419  2.3160
  157MOL   H11647228   3.408   3.153   0.745 -0.2227  1.4869  0.1773
  157MOL   H11747229   3.556   3.280   0.606  1.0864  0.3380  1.0027
  157MOL   H11847230   3.417   3.372   0.536 -0.0860  0.6098  0.6442
  157MOL   H11947231   3.462   3.397   0.697 -0.8977  1.4910 -1.5175
  157MOL   H12047232   3.209   3.204   0.207  1.0146  0.6164 -0.3512
  157MOL   H12147233   3.220   3.041   0.131  3.7080  1.4508 -0.4229
  157MOL   C12247234   3.106   3.048   0.306 -0.5555 -0.5888 -0.4835
  157MOL   O12347235   2.985   3.081   0.231 -0.2607 -0.5054  0.0405
  157MOL   C12447236   2.883   3.154   0.292 -0.4356  0.4237  0.1972
  157MOL   O12547237   2.879   3.204   0.403 -0.0230 -0.0009  0.4328
  157MOL   C12647238   2.755   3.163   0.204  0.0338 -0.2491  0.6279
  157MOL   C12747239   2.797   3.217   0.064 -0.3179 -0.0481 -0.3274
  157MOL   C12847240   3.100   2.891   0.306  0.2157  0.5866 -0.9168
  157MOL   H12947241   3.094   3.088   0.407  0.9098  0.7590 -0.8316
  157MOL   H13047242   2.711   3.064   0.197 -0.5467  0.0298  0.2759
  157MOL   H13147243   2.681   3.224   0.256  1.3220  0.0196  2.1941
  157MOL   H13247244   2.718   3.186   7.941 -0.3334 -1.6282  0.3823
  157MOL   H13347245   2.812   3.324   0.049  2.5209 -0.3592  0.1496
  157MOL   H13447246   2.890   3.171   0.033 -0.8670 -2.1407  0.9834
  157MOL   H13547247   3.082   2.850   0.207  1.8609  1.5115 -1.6344
  157MOL   H13647248   3.201   2.866   0.341 -0.1561  1.0691  0.5438
  157MOL   C13747249   2.996   2.832   0.403  0.1802  0.7106  0.1722
  157MOL   O13847250   2.990   2.690   0.369  0.0066  0.2094  0.0469
  157MOL   C13947251   2.900   2.645   0.287 -0.6349  0.7642  0.3396
  157MOL   O14047252   2.813   2.712   0.236  0.1298 -0.0029  0.8192
  157MOL   C14147253   2.920   2.503   0.240  0.2809  0.5409  0.3720
  157MOL   C14247254   2.794   2.421   0.189  0.2541 -0.0079 -0.3243
  157MOL   C14347255   3.030   2.832   0.557 -0.2004  0.1573 -0.1987
  157MOL   H14447256   2.899   2.878   0.388  0.4202  1.1876  0.0768
  157MOL   H14547257   2.985   2.515   0.154  0.8245  0.2306  0.7432
  157MOL   H14647258   2.979   2.450   0.314  0.3996  1.9263  1.2924
  157MOL   H14747259   2.831   2.319   0.178 -1.1908 -0.5819 -0.1038
  157MOL   H14847260   2.718   2.403   0.266  0.0869  0.5032 -0.3656
  157MOL   H14947261   2.746   2.443   0.093 -0.3823 -1.3995 -0.3476
  157MOL   H15047262   3.109   2.759   0.573 -0.1652  0.5289  1.4208
  157MOL   H15147263   3.069   2.931   0.580 -1.7956  0.9584 -0.8581
  157MOL   C15247264   2.894   2.815   0.637 -0.0002 -0.0166 -0.1123
  157MOL   O15347265   2.904   2.719   0.751 -0.1348  0.2118 -0.0705
  157MOL   C15447266   2.891   2.583   0.727  0.2884  0.2916 -0.0279
  157MOL   O15547267   2.882   2.532   0.614 -0.4603  0.1650 -0.2914
  157MOL   C15647268   2.877   2.491   0.848 -0.6367  0.2099  0.6567
  157MOL   C15747269   3.007   2.502   0.930 -0.0696  0.4395 -0.9857
  157MOL   C15847270   2.846   2.952   0.691 -0.4809  0.4765  0.7202
  157MOL   H15947271   2.823   2.774   0.566  1.4001 -2.0484 -0.3926
  157MOL   H16047272   2.797   2.536   0.907  1.0849 -0.7194  3.8479
  157MOL   H16147273   2.848   2.388   0.825 -0.0742  0.2319 -0.1430
  157MOL   H16247274   3.049   2.602   0.926 -0.0750  0.4120 -1.9785
  157MOL   H16347275   3.004   2.459   1.030 -0.6938 -0.0489 -1.2082
  157MOL   H16447276   3.081   2.438   0.881  0.6813 -1.0356  1.9813
  157MOL   H16547277   2.909   2.982   0.775  0.5794 -0.8402  0.3972
  157MOL   H16647278   2.856   3.037   0.624 -0.8519  2.2335  2.8086
  157MOL   C16747279   2.700   2.954   0.743 -0.2775 -0.0683  0.1153
  157MOL   O16847280   2.669   3.077   0.815 -0.5434 -0.6319 -0.2463
  157MOL   C16947281   2.602   3.077   0.928 -0.7311  0.4594  0.1515
  157MOL   O17047282   2.595   2.982   1.004  0.0020  0.2549  0.4092
  157MOL   C17147283   2.533   3.207   0.963 -0.0753 -0.0588  0.0300
  157MOL   C17247284   2.530   3.253   1.104 -0.1891 -0.4024  0.7233
  157MOL   C17347285   2.598   2.941   0.632  0.2111 -0.2834  0.6488
  157MOL   H17447286   2.685   2.874   0.815 -1.5674  0.2253  0.1903
  157MOL   H17547287   2.575   3.285   0.900  0.6864 -0.3851  0.1257
  157MOL   H17647288   2.429   3.180   0.943  0.5204 -3.1641  0.8493
  157MOL   H17747289   2.452   3.327   1.121 -1.4638 -1.8002  1.0182
  157MOL   H17847290   2.507   3.172   1.173 -0.6295 -0.7500  0.1687
  157MOL   H17947291   2.622   3.303   1.134 -0.5467  0.2150  0.8017
  157MOL   H18047292   2.523   3.020   0.641 -0.4979 -1.0853  1.8789
  157MOL   H18147293   2.636   2.968   0.533 -1.2089  0.6419  0.3342
  157MOL   C18247294   2.551   2.796   0.625  0.4859  0.6252  0.5156
  157MOL   O18347295   2.450   2.768   0.724  0.7336 -0.2251  0.0690
  157MOL   C18447296   2.470   2.695   0.832 -0.0548  0.1738  0.3037
  157MOL   O18547297   2.577   2.648   0.868  0.1821  0.1545 -0.0367
  157MOL   C18647298   2.350   2.691   0.920 -0.2081  0.1115 -0.7609
  157MOL   C18747299   2.363   2.583   1.028  0.4030  0.1998 -0.2241
  157MOL   C18847300   2.491   2.757   0.481 -0.3358  0.3138  0.6078
  157MOL   H18947301   2.639   2.733   0.640  0.0996  0.2025  1.0027
  157MOL   H19047302   2.335   2.789   0.964 -1.0477 -0.3663  0.0402
  157MOL   H19147303   2.277   2.670   0.842 -1.2244  0.4857  0.0718
  157MOL   H19247304   2.265   2.541   1.053  0.9277  0.1595  1.8574
  157MOL   H19347305   2.413   2.496   0.987 -1.9510  0.3952 -3.7771
  157MOL   H19447306   2.407   2.614   1.123  0.9468  2.3239 -1.1369
  157MOL   H19547307   2.409   2.826   0.461  0.4712  1.0412 -0.2593
  157MOL   H19647308   2.568   2.779   0.407 -3.4639  0.7898 -2.6569
  157MOL   C19747309   2.460   2.608   0.462 -0.0445  0.1412  0.0367
  157MOL   O19847310   2.331   2.577   0.524  0.2959  0.1131 -0.1494
  157MOL   C19947311   2.300   2.456   0.573 -0.1624  0.4858  0.4733
  157MOL   O20047312   2.378   2.362   0.574  0.2018 -0.9342 -0.0090
  157MOL   C20147313   2.154   2.436   0.623  0.3509  0.3295  0.5174
  157MOL   C20247314   2.096   2.545   0.714 -0.2080  0.1449 -0.1253
  157MOL   C20347315   2.477   2.564   0.312  0.3871  0.1131 -0.0874
  157MOL   H20447316   2.541   2.561   0.518  2.3069  1.8165 -1.8250
  157MOL   H20547317   2.084   2.428   0.540 -0.0291  0.3131  0.8403
  157MOL   H20647318   2.141   2.340   0.673  3.0274  0.0700  0.8362
  157MOL   H20747319   1.988   2.559   0.710 -0.4050 -1.1916  0.1483
  157MOL   H20847320   2.121   2.515   0.816  1.4815  0.4298 -0.4509
  157MOL   H20947321   2.135   2.644   0.689 -3.8602  1.2960 -1.6180
  157MOL   H21047322   2.578   2.575   0.273  0.9820 -2.1615  0.7631
  157MOL   H21147323   2.473   2.456   0.313  3.8390 -0.0622 -0.2263
  157MOL   C21247324   2.370   2.633   0.221 -0.8235  0.5230 -0.0973
  157MOL   O21347325   2.441   2.665   0.096  0.2083  0.6109 -0.2043
  157MOL   C21447326   2.522   2.769   0.088 -0.1018  0.1580 -0.5722
  157MOL   O21547327   2.527   2.863   0.167  0.3141  0.2021  0.0847
  157MOL   C21647328   2.613   2.760   7.911 -0.3631  0.1038 -0.1247
  157MOL   C21747329   2.655   2.901   7.860 -0.1808 -0.3889  0.6711
  157MOL   C21847330   2.260   2.532   0.187 -0.4553 -1.1214  0.3480
  157MOL   H21947331   2.333   2.721   0.274 -0.2972  0.7338 -0.0730
  157MOL   H22047332   2.697   2.703   0.006  0.8547  2.6149  1.0255
  157MOL   H22147333   2.562   2.705   7.832 -0.6768  1.1261 -0.6429
  157MOL   H22247334   2.714   2.951   7.937  0.2149  0.9132 -0.4633
  157MOL   H22347335   2.721   2.892   7.774 -1.0135 -0.9988  0.0939
  157MOL   H22447336   2.573   2.957   7.814  0.0848 -1.9564 -1.8112
  157MOL   H22547337   2.289   2.487   0.092 -2.8101  2.6158 -2.3049
  157MOL   H22647338   2.252   2.443   0.250 -1.4647 -1.2333  0.0799
  157MOL   C22747339   2.124   2.597   0.157 -0.9303  0.0576  0.0262
  157MOL   O22847340   2.044   2.502   0.092 -0.2959  0.5398  0.1848
  157MOL   C22947341   1.973   2.535   7.923 -0.8777 -0.4241 -0.3267
  157MOL   O23047342   1.970   2.648   7.876  0.2206 -0.6966  0.1297
  157MOL   C23147343   1.897   2.418   7.863 -0.5433 -0.1425 -0.4026
  157MOL   C23247344   1.986   2.290   7.862 -0.4364 -0.1925 -0.0015
  157MOL   C23347345   2.057   2.647   0.279  0.5516 -0.0132  0.0968
  157MOL   H23447346   2.153   2.689   0.106  1.3762 -0.0383  1.0874
  157MOL   H23547347   1.804   2.409   7.920 -0.5764 -0.1513 -0.4580
  157MOL   H23647348   1.883   2.456   7.762  0.2217 -0.9419 -0.8148
  157MOL   H23747349   2.076   2.309   7.804  0.5924  1.6031  2.1112
  157MOL   H23847350   2.006   2.256   0.018  0.0092 -0.6771 -0.2477
  157MOL   H23947351   1.935   2.207   7.812  0.3177 -0.1421 -0.8583
  157MOL   H24047352   2.012   2.570   0.341 -2.8954  0.6622 -1.3956
  157MOL   H24147353   2.137   2.669   0.350 -0.0729 -1.3829  1.2481
  157MOL   C24247354   1.957   2.767   0.275 -0.6421 -0.3064 -0.4066
  157MOL   O24347355   1.914   2.801   0.408  0.3837  0.5497  0.3665
  157MOL   C24447356   1.783   2.798   0.442 -1.3363 -0.6968 -0.0513
  157MOL   O24547357   1.695   2.756   0.373  0.0915 -0.0745  0.7321
  157MOL   C24647358   1.754   2.850   0.579  0.6630 -0.4474 -1.6057
  157MOL   C24747359   1.805   2.995   0.604  0.1825  0.6269  0.1950
  157MOL   C24847360   1.997   2.904   0.209 -0.2004 -0.7761  0.4275
  157MOL   H24947361   1.881   2.719   0.214  0.3959  0.4348 -2.3396
  157MOL   H25047362   1.647   2.843   0.596  0.1825 -1.2669 -4.7109
  157MOL   H25147363   1.803   2.783   0.650  1.5030  2.0784  0.3170
  157MOL   H25247364   1.816   3.001   0.713  1.3149 -0.9519  0.1913
  157MOL   H25347365   1.893   3.014   0.543 -0.4372  1.6776 -0.3856
  157MOL   H25447366   1.736   3.075   0.578  1.3712  1.3641 -0.6974
  157MOL   H25547367   2.027   2.978   0.284  0.8801 -0.2229 -0.5491
  157MOL   H25647368   2.092   2.894   0.157 -0.4582 -0.0301 -0.1990
  157MOL   C25747369   1.897   2.961   0.110  0.2317  0.0480 -0.6177
  157MOL   O25847370   1.784   3.042   0.150 -0.5270 -0.6095  0.4483
  157MOL   C25947371   1.806   3.153   0.217  0.3467  0.0067  0.3223
  157MOL   O26047372   1.906   3.191   0.285 -0.7616  0.6440  0.0187
  157MOL   C26147373   1.676   3.240   0.212  0.1320  0.5372  0.1665
  157MOL   C26247374   1.651   3.309   0.079 -0.4525 -0.0569  0.3692
  157MOL   C26347375   1.956   3.006   7.921  0.4005  0.2366 -0.4220
  157MOL   H26447376   1.845   2.872   0.073  4.6890 -3.1497  0.4647
  157MOL   H26547377   1.598   3.170   0.241  0.8147 -0.2166  0.2174
  157MOL   H26647378   1.683   3.312   0.293  0.3917 -1.8589  2.3385
  157MOL   H26747379   1.718   3.394   0.068 -1.9031  1.3687  2.2159
  157MOL   H26847380   1.675   3.242   7.941  1.0729 -1.7159  2.1142
  157MOL   H26947381   1.546   3.341   0.079 -1.0541 -1.9485  0.0697
  157MOL   H27047382   2.017   3.095   7.936  0.3686  0.0360  0.9615
  157MOL   H27147383   2.019   2.924   7.884 -0.2016 -0.7688  0.7708
  157MOL   C27247384   1.849   3.029   7.807  0.3263  0.3666 -0.5499
  157MOL   O27347385   1.929   3.088   7.704  0.6922  0.5659 -0.3040
  157MOL   C27447386   1.894   3.196   7.640 -0.5835 -0.2452  0.2437
  157MOL   O27547387   1.790   3.255   7.655  0.1224 -0.3480 -0.3271
  157MOL   C27647388   1.997   3.237   7.537  0.5401 -0.3723 -0.0473
  157MOL   C27747389   1.930   3.273   7.405 -0.1818 -1.1181 -0.1306
  157MOL   C27847390   1.762   2.902   7.765  0.4018 -0.2957  0.1142
  157MOL   H27947391   1.783   3.106   7.847  0.6784  0.8905 -0.9557
  157MOL   H28047392   2.063   3.315   7.574  0.8223  0.3058 -1.8802
  157MOL   H28147393   2.051   3.142   7.524 -0.7452 -1.6603  3.4620
  157MOL   H28247394   1.895   3.376   7.406 -0.6109 -1.2485  2.4118
  157MOL   H28347395   1.997   3.257   7.321 -2.1187  1.2384 -2.1854
  157MOL   H28447396   1.848   3.206   7.379  0.0146 -0.5150 -2.3515
  157MOL   H28547397   1.837   2.833   7.727  0.0520 -1.7658  2.0662
  157MOL   H28647398   1.712   2.851   7.847  0.7173  2.2313  1.9561
  157MOL   C28747399   1.661   2.935   7.659 -0.7902  0.7821 -0.2266
  157MOL   O28847400   1.619   2.811   7.603  0.4137 -0.8400  0.2767
  157MOL   C28947401   1.678   2.754   7.495  0.0628 -0.1308 -0.2778
  157MOL   O29047402   1.782   2.792   7.443  0.5284 -0.2176 -0.1085
  157MOL   C29147403   1.602   2.637   7.441 -0.3116  0.2456  0.3676
  157MOL   C29247404   1.689   2.508   7.435 -0.2783 -1.0043  0.1134
  157MOL   C29347405   1.540   3.002   7.729 -0.0318  0.1774 -0.5114
  157MOL   H29447406   1.713   2.999   7.588  0.3171  1.9858  1.6457
  157MOL   H29547407   1.516   2.627   7.508  0.2151 -0.7683  0.8912
  157MOL   H29647408   1.565   2.645   7.339  0.5011  0.8283  0.1114
  157MOL   H29747409   1.761   2.492   7.515  2.1604 -0.8285 -1.9683
  157MOL   H29847410   1.641   2.415   7.405 -1.2145 -0.2463 -0.8061
  157MOL   H29947411   1.747   2.517   7.344 -0.5738 -1.2834 -0.1069
  157MOL   H30047412   1.560   3.098   7.776 -1.4776 -0.1932  0.9373
  157MOL   H30147413   1.454   3.011   7.663  0.2763 -1.4078 -1.1382
  157MOL   H30247414   1.507   2.942   7.814 -1.2724  1.0421 -0.3632
  158MOL     C147415   1.669   1.172   0.125 -0.2663  0.1821  0.5532
  158MOL     O247416   1.608   1.170   0.005 -0.1149  0.3989  0.4831
  158MOL     C347417   1.543   1.277   7.909  0.0305  0.6485 -0.5374
  158MOL     O447418   1.517   1.377   0.027  0.3478  0.0451 -0.3770
  158MOL     C547419   1.488   1.243   7.770 -0.2651 -0.4270  0.0427
  158MOL     C647420   1.596   1.230   7.667  0.1797  0.4443 -0.1932
  158MOL     C747421   1.803   1.113   0.085  0.0969 -0.2138 -0.5077
  158MOL     H847422   1.621   1.106   0.198  0.2937 -2.9545 -1.8203
  158MOL     H947423   1.421   1.158   7.774  0.7397 -1.2468 -0.4829
  158MOL    H1047424   1.434   1.333   7.739  0.4866 -0.2010 -0.6326
  158MOL    H1147425   1.682   1.185   7.715 -2.4661 -1.2325  3.1773
  158MOL    H1247426   1.580   1.166   7.580  0.2180  0.7335 -0.4150
  158MOL    H1347427   1.630   1.328   7.633  2.6597 -0.2785  0.1108
  158MOL    H1447428   1.794   1.010   0.051 -1.0484  0.2102 -1.5421
  158MOL    H1547429   1.842   1.156   7.938 -0.4070 -2.2828 -1.7062
  158MOL    H1647430   1.672   1.269   0.174 -0.6081 -0.5159  1.9915
  158MOL    C1747431   1.901   1.112   0.200 -0.1447  0.0464 -0.3773
  158MOL    O1847432   1.839   1.075   0.322 -0.6893  0.1132 -0.2762
  158MOL    C1947433   1.851   1.161   0.434  0.4549  0.3728 -0.2476
  158MOL    O2047434   1.886   1.279   0.430 -0.5127 -0.1251 -0.4500
  158MOL    C2147435   1.782   1.095   0.554 -0.8310  0.4511 -0.3468
  158MOL    C2247436   1.745   1.183   0.670 -0.1272 -0.5690  0.4360
  158MOL    C2347437   2.019   1.019   0.167  0.5007  1.3041  0.1610
  158MOL    H2447438   1.947   1.210   0.207 -0.8004  0.3178  0.1496
  158MOL    H2547439   1.696   1.047   0.505  1.9280 -2.3716 -2.6338
  158MOL    H2647440   1.835   1.004   0.585 -1.1560  0.8257  1.3492
  158MOL    H2747441   1.676   1.263   0.642 -0.8233 -1.6956 -1.1286
  158MOL    H2847442   1.697   1.119   0.744 -0.1346 -0.5170  0.4768
  158MOL    H2947443   1.837   1.227   0.709 -1.2027 -1.0111  3.6376
  158MOL    H3047444   2.062   0.982   0.260 -1.0356 -2.1149 -0.4174
  158MOL    H3147445   1.969   0.931   0.127  1.1875  1.4112 -0.9612
  158MOL    C3247446   2.126   1.085   0.068  0.4174  0.2048 -0.0151
  158MOL    O3347447   2.179   1.193   0.140  0.1372 -0.4836  0.0269
  158MOL    C3447448   2.226   1.298   0.080  0.8595 -0.2958 -0.0142
  158MOL    O3547449   2.212   1.329   7.906  0.2735  0.0714  0.0401
  158MOL    C3647450   2.279   1.391   0.185  0.1041 -0.2767 -0.1988
  158MOL    C3747451   2.302   1.538   0.141  0.1112  0.9420 -0.4636
  158MOL    C3847452   2.246   0.993   0.015 -0.6630 -0.1807 -0.5865
  158MOL    H3947453   2.066   1.116   7.928  0.6228  2.7349  0.7183
  158MOL    H4047454   2.205   1.394   0.265  0.0942  2.5413 -0.2769
  158MOL    H4147455   2.371   1.360   0.233 -0.5169 -0.6024  0.7985
  158MOL    H4247456   2.211   1.597   0.134  0.3701  1.3421 -0.4996
  158MOL    H4347457   2.362   1.609   0.197 -0.4353  1.5592 -0.6584
  158MOL    H4447458   2.338   1.531   0.039  0.7508 -1.1551 -0.1160
  158MOL    H4547459   2.328   1.059   7.929  0.4648 -0.4752  1.6777
  158MOL    H4647460   2.295   0.946   0.100 -1.4733 -1.2748 -0.7212
  158MOL    C4747461   2.212   0.894   7.849  0.2463  0.2191  0.1691
  158MOL    O4847462   2.161   0.963   7.733  0.0821 -0.4841 -0.2249
  158MOL    C4947463   2.060   0.923   7.652  0.9163  0.0497 -0.2843
  158MOL    O5047464   2.001   0.813   7.657 -1.1942  0.1125  0.5326
  158MOL    C5147465   2.021   1.022   7.532  0.7222  0.4257  1.2932
  158MOL    C5247466   2.010   1.171   7.576  0.5640 -0.3284 -0.0836
  158MOL    C5347467   2.331   0.814   7.793 -0.4226  0.3838 -0.0166
  158MOL    H5447468   2.138   0.823   7.887 -0.4658  0.7407 -0.2328
  158MOL    H5547469   2.102   1.010   7.461  0.0413 -3.6256  1.0423
  158MOL    H5647470   1.921   1.002   7.492  1.1210  0.3557  0.3175
  158MOL    H5747471   2.015   1.220   7.478 -2.5040 -0.3372 -0.2797
  158MOL    H5847472   1.918   1.196   7.627 -0.7755 -1.1211 -2.0494
  158MOL    H5947473   2.095   1.203   7.637 -0.4674  1.5686  0.3855
  158MOL    H6047474   2.295   0.747   7.714 -0.7289  0.3965  0.1109
  158MOL    H6147475   2.396   0.897   7.764  3.1691 -2.4188 -0.3920
  158MOL    C6247476   2.402   0.727   7.902 -0.3798 -0.7351 -0.2817
  158MOL    O6347477   2.339   0.598   7.929  0.4381  0.3184 -0.3448
  158MOL    C6447478   2.272   0.572   0.102  0.2277  0.3376  0.3009
  158MOL    O6547479   2.258   0.643   0.203  0.2095  0.1421  0.3906
  158MOL    C6647480   2.220   0.424   0.091 -0.1158  0.0965  0.5712
  158MOL    C6747481   2.186   0.357   0.228 -0.6599  0.4926  0.1728
  158MOL    C6847482   2.551   0.694   7.884 -0.2955 -0.2306 -0.4453
  158MOL    H6947483   2.387   0.785   0.049  0.3823  1.3664 -1.4482
  158MOL    H7047484   2.144   0.411   0.013 -0.3038  3.2910  0.1754
  158MOL    H7147485   2.314   0.381   0.058  0.5237  1.8112  0.1321
  158MOL    H7247486   2.213   0.252   0.227  1.3751  1.0051  0.1282
  158MOL    H7347487   2.248   0.399   0.307 -1.8679  0.3771  1.2074
  158MOL    H7447488   2.080   0.372   0.248 -0.5911  0.5988  0.4720
  158MOL    H7547489   2.591   0.614   0.000 -1.0042  0.5540  1.0961
  158MOL    H7647490   2.567   0.651   7.785  2.5608 -2.7648  1.0385
  158MOL    C7747491   2.634   0.822   7.918  0.5533 -0.2122  0.0076
  158MOL    O7847492   2.645   0.835   0.118 -0.4814  0.1380 -0.2250
  158MOL    C7947493   2.590   0.945   0.179 -0.7060 -0.9757  0.4795
  158MOL    O8047494   2.547   1.041   0.115 -0.3676 -0.5905  0.4382
  158MOL    C8147495   2.573   0.936   0.329  0.3625  0.7631 -0.1771
  158MOL    C8247496   2.459   0.844   0.365 -0.3834 -0.3670  0.2802
  158MOL    C8347497   2.780   0.790   7.873  0.3657  0.4786 -0.4916
  158MOL    H8447498   2.604   0.912   7.865  0.3319 -1.8142 -2.6937
  158MOL    H8547499   2.666   0.900   0.374  0.2948 -1.9904 -2.1252
  158MOL    H8647500   2.546   1.032   0.373 -0.9921 -0.4352  1.6299
  158MOL    H8747501   2.399   0.795   0.289  1.0414  2.1783 -2.6085
  158MOL    H8847502   2.512   0.765   0.417  1.6038 -0.2289 -1.4608
  158MOL    H8947503   2.393   0.897   0.434 -0.3325  1.1381 -0.7889
  158MOL    H9047504   2.849   0.851   7.931  0.9612 -1.8472  1.2843
  158MOL    H9147505   2.797   0.685   7.896 -1.0161  0.4468  0.3953
  158MOL    C9247506   2.806   0.825   7.725 -0.7697  0.4828  0.1019
  158MOL    O9347507   2.707   0.764   7.637 -0.3209 -0.2637 -0.1212
  158MOL    C9447508   2.734   0.652   7.574  0.3976 -0.1463  1.5890
  158MOL    O9547509   2.835   0.593   7.585  0.0225 -0.2746 -0.4706
  158MOL    C9647510   2.617   0.597   7.491 -0.2454 -0.3139 -0.2754
  158MOL    C9747511   2.535   0.713   7.422 -0.3995 -0.6103  0.2303
  158MOL    C9847512   2.803   0.978   7.695  0.4062  0.1931  0.1908
  158MOL    H9947513   2.905   0.790   7.695 -0.4009  0.2307  1.5790
  158MOL   H10047514   2.649   0.516   7.425  1.8110  0.3085 -0.0702
  158MOL   H10147515   2.560   0.548   7.570  1.3913  1.1949  1.8848
  158MOL   H10247516   2.452   0.666   7.370 -0.4530  0.6873 -0.8698
  158MOL   H10347517   2.500   0.789   7.491  1.0224  0.5876 -0.3364
  158MOL   H10447518   2.605   0.763   7.355 -1.2501  1.6344  0.9939
  158MOL   H10547519   2.703   1.015   7.673  0.2128 -0.1963  0.3984
  158MOL   H10647520   2.825   1.031   7.787 -2.8145 -0.9066  1.6462
  158MOL   C10747521   2.914   1.022   7.603  0.6665  0.0272  0.2961
  158MOL   O10847522   2.886   0.962   7.480 -0.0492  0.2746  0.7793
  158MOL   C10947523   2.981   0.910   7.401 -0.8277  0.3519 -0.0460
  158MOL   O11047524   3.108   0.910   7.429 -0.4491 -0.2917  0.1158
  158MOL   C11147525   2.930   0.840   7.284  0.2557 -0.0533  0.1295
  158MOL   C11247526   3.010   0.862   7.153 -0.3378  0.6934  0.0317
  158MOL   C11347527   2.944   1.170   7.583 -0.2836 -0.3063  0.3782
  158MOL   H11447528   3.004   0.979   7.648  1.5934 -0.6522 -2.1154
  158MOL   H11547529   2.944   0.735   7.313 -0.4188  0.6312  3.1587
  158MOL   H11647530   2.822   0.841   7.275  0.1054  2.0736  1.7188
  158MOL   H11747531   3.009   0.766   7.101  0.7545  1.5877 -1.7031
  158MOL   H11847532   2.976   0.946   7.093 -1.9818 -0.5042 -0.7518
  158MOL   H11947533   3.117   0.862   7.173 -0.4744  0.2595  0.7703
  158MOL   H12047534   3.008   1.183   7.496 -0.5652 -0.0604  0.2094
  158MOL   H12147535   2.850   1.213   7.549 -0.6730  0.7044  2.6430
  158MOL   C12247536   3.009   1.241   7.703  0.2557  0.0360 -0.1486
  158MOL   O12347537   3.123   1.169   7.752 -0.1470  0.7132 -0.0234
  158MOL   C12447538   3.130   1.102   7.871 -0.4747  0.3949 -0.5706
  158MOL   O12547539   3.044   1.106   0.017  0.2693 -0.9904 -0.0884
  158MOL   C12647540   3.260   1.045   7.903  0.9041  0.0221 -0.6482
  158MOL   C12747541   3.373   1.147   7.910 -0.7947  0.1021 -0.6743
  158MOL   C12847542   3.048   1.386   7.675 -0.3834 -0.7124 -0.3502
  158MOL   H12947543   2.931   1.237   7.779 -0.7191 -1.0526 -1.1978
  158MOL   H13047544   3.266   0.977   0.043 -1.7993  1.5007  0.7946
  158MOL   H13147545   3.274   0.976   7.820 -1.6437 -0.3321 -0.8317
  158MOL   H13247546   3.374   1.217   0.048  1.5023 -1.7466  0.9489
  158MOL   H13347547   3.470   1.097   7.919 -0.6179  0.6711  0.5228
  158MOL   H13447548   3.393   1.210   7.823  0.7044  0.5739 -0.0061
  158MOL   H13547549   3.108   1.374   7.585 -2.3747 -2.0383 -1.5471
  158MOL   H13647550   2.960   1.439   7.641 -1.0666 -1.2653  0.5362
  158MOL   C13747551   3.115   1.467   7.789 -0.2765  0.3566 -0.0397
  158MOL   O13847552   3.150   1.600   7.738  0.6885 -0.0791 -0.1899
  158MOL   C13947553   3.277   1.629   7.718 -0.7954 -0.2248  0.1866
  158MOL   O14047554   3.376   1.562   7.746 -0.0185  0.2945  0.0314
  158MOL   C14147555   3.301   1.781   7.672  0.1345 -0.4705  0.0296
  158MOL   C14247556   3.206   1.831   7.554 -0.2191 -0.5315 -0.5528
  158MOL   C14347557   3.026   1.485   7.914 -0.0789 -0.4736 -0.0260
  158MOL   H14447558   3.208   1.424   7.827 -0.5536 -0.0939  0.1378
  158MOL   H14547559   3.298   1.842   7.762  0.0043 -0.1463 -0.1911
  158MOL   H14647560   3.406   1.793   7.645  1.2939 -2.4202  3.4765
  158MOL   H14747561   3.257   1.912   7.501  0.7946 -1.7363 -1.4496
  158MOL   H14847562   3.207   1.752   7.479 -0.6884  1.5503 -2.7954
  158MOL   H14947563   3.105   1.856   7.585  0.1332  0.3048 -0.0450
  158MOL   H15047564   2.935   1.533   7.880  0.4536  1.6642  1.4672
  158MOL   H15147565   2.982   1.393   0.008 -3.4789  0.4119 -1.6134
  158MOL   C15247566   3.091   1.562   0.087 -0.5208  0.0886 -0.1808
  158MOL   O15347567   2.998   1.553   0.193  0.2457  0.0489 -0.0984
  158MOL   C15447568   2.953   1.656   0.257 -0.0182 -1.0760 -0.1072
  158MOL   O15547569   2.976   1.774   0.235 -0.3673 -0.4790  0.6616
  158MOL   C15647570   2.846   1.620   0.354  0.7613 -0.1060 -0.6030
  158MOL   C15747571   2.901   1.545   0.469  0.5068  0.3275 -0.4310
  158MOL   C15847572   3.226   1.512   0.140  0.4207 -0.9419  0.2337
  158MOL   H15947573   3.085   1.663   0.047 -1.7902 -1.2829 -3.6219
  158MOL   H16047574   2.798   1.707   0.400 -0.1205 -0.3683 -1.0099
  158MOL   H16147575   2.765   1.557   0.318  2.1403 -1.7476 -0.8672
  158MOL   H16247576   2.830   1.516   0.546  1.9133  1.2009  1.2218
  158MOL   H16347577   2.950   1.454   0.433 -2.4557 -1.1920 -0.7635
  158MOL   H16447578   2.979   1.597   0.524  0.1662 -0.2299  0.5877
  158MOL   H16547579   3.207   1.404   0.141  2.8566 -1.4197 -1.2022
  158MOL   H16647580   3.300   1.542   0.066 -1.7312  2.4161 -0.6426
  158MOL   C16747581   3.272   1.555   0.280  0.4190 -0.3823  0.1562
  158MOL   O16847582   3.373   1.463   0.316 -0.6060 -0.2000 -0.4041
  158MOL   C16947583   3.346   1.365   0.403 -0.4947  0.7354 -0.3881
  158MOL   O17047584   3.241   1.346   0.462  0.0480  0.2995  0.1360
  158MOL   C17147585   3.469   1.271   0.422  0.0179 -0.4879 -0.3339
  158MOL   C17247586   3.431   1.123   0.427 -0.1738 -0.7172  0.4740
  158MOL   C17347587   3.335   1.697   0.286 -0.7716  0.0217 -0.3531
  158MOL   H17447588   3.191   1.550   0.353  0.4014  2.5605  0.4161
  158MOL   H17547589   3.545   1.280   0.344 -0.7782 -0.6356 -1.1246
  158MOL   H17647590   3.530   1.293   0.510 -2.0928  1.5294  0.6695
  158MOL   H17747591   3.372   1.089   0.342  0.5471  0.6906 -0.5954
  158MOL   H17847592   3.522   1.063   0.437 -0.3621 -0.7843  1.9467
  158MOL   H17947593   3.379   1.087   0.516  0.0497 -2.5684 -0.1254
  158MOL   H18047594   3.414   1.702   0.211  0.2837  1.0777  0.8020
  158MOL   H18147595   3.273   1.774   0.240 -0.2485 -0.3911 -1.7628
  158MOL   C18247596   3.388   1.749   0.421  0.6602 -0.1068  0.4228
  158MOL   O18347597   3.452   1.878   0.390 -0.2179  0.3456 -0.1745
  158MOL   C18447598   3.580   1.888   0.380 -0.2341  0.1306  0.2091
  158MOL   O18547599   3.669   1.800   0.399 -0.0289 -1.0209  0.4400
  158MOL   C18647600   3.621   2.038   0.356 -0.2384  0.0101  0.1882
  158MOL   C18747601   3.771   2.046   0.330 -0.6541  0.4610  0.2425
  158MOL   C18847602   3.276   1.763   0.527  0.1530  0.4188  0.7518
  158MOL   H18947603   3.457   1.674   0.460  0.2195  0.5658  2.5944
  158MOL   H19047604   3.558   2.080   0.278  2.4658  1.4043 -1.3268
  158MOL   H19147605   3.615   2.102   0.444  1.4881 -1.0416  1.1010
  158MOL   H19247606   3.806   2.149   0.321 -2.5269  1.2214  1.5458
  158MOL   H19347607   3.831   2.015   0.416  0.5671  0.1616 -0.6913
  158MOL   H19447608   3.801   1.985   0.245  0.9742  1.7476 -0.1326
  158MOL   H19547609   3.236   1.863   0.517  1.8810  1.0337 -0.2013
  158MOL   H19647610   3.191   1.696   0.515  0.7480 -0.1365 -0.4340
  158MOL   C19747611   3.322   1.736   0.669 -0.5047  0.3944  0.2796
  158MOL   O19847612   3.241   1.813   0.753 -0.1439 -0.1270  0.3423
  158MOL   C19947613   3.292   1.937   0.787  1.1275  0.9773  0.5549
  158MOL   O20047614   3.382   1.992   0.729 -0.4407  0.4401 -0.2530
  158MOL   C20147615   3.206   2.006   0.889 -0.4128  0.0569  0.6566
  158MOL   C20247616   3.255   1.962   1.036  0.6466 -0.7130  0.4904
  158MOL   C20347617   3.313   1.584   0.702 -0.4040  0.0288  0.3129
  158MOL   H20447618   3.427   1.766   0.677 -0.3987 -0.1942  1.3050
  158MOL   H20547619   3.222   2.112   0.873 -2.5965  0.3524  0.2737
  158MOL   H20647620   3.100   1.985   0.872  0.2741 -1.9313 -1.3776
  158MOL   H20747621   3.348   1.904   1.031  1.2461 -0.0514  3.1071
  158MOL   H20847622   3.274   2.037   1.113  2.9404  0.2645 -0.9764
  158MOL   H20947623   3.183   1.891   1.078  1.2119 -0.8490  1.2483
  158MOL   H21047624   3.211   1.548   0.687 -0.0380  0.0487 -2.4949
  158MOL   H21147625   3.369   1.527   0.627 -0.2624 -0.5551  0.8609
  158MOL   C21247626   3.369   1.563   0.840 -0.3750  0.1206  0.3724
  158MOL   O21347627   3.348   1.424   0.876 -0.2122  0.4045 -0.7880
  158MOL   C21447628   3.263   1.390   0.967  1.0377  0.3231  0.8264
  158MOL   O21547629   3.180   1.462   1.023 -0.1761  0.9940 -0.1494
  158MOL   C21647630   3.288   1.252   1.009  0.4887 -0.8041 -0.8903
  158MOL   C21747631   3.247   1.152   0.898 -0.5547  0.4415  0.3867
  158MOL   C21847632   3.527   1.589   0.843  0.7468  1.1938  0.4394
  158MOL   H21947633   3.326   1.635   0.909 -2.2297  0.5815 -1.2332
  158MOL   H22047634   3.395   1.243   1.028  0.4778  0.2734 -0.2430
  158MOL   H22147635   3.229   1.230   1.098 -0.7903  1.4733 -1.1291
  158MOL   H22247636   3.274   1.190   0.800  3.0822  0.7459  1.4522
  158MOL   H22347637   3.285   1.051   0.917 -0.5513  0.5411  0.9304
  158MOL   H22447638   3.138   1.147   0.891 -0.3800 -0.6550 -2.3687
  158MOL   H22547639   3.585   1.518   0.783 -1.4680  0.6110 -1.0611
  158MOL   H22647640   3.549   1.691   0.813  3.1410  0.2177 -1.2700
  158MOL   C22747641   3.570   1.570   0.996 -0.3218  0.0436 -0.1745
  158MOL   O22847642   3.716   1.542   0.989 -0.0692 -0.0721 -0.4151
  158MOL   C22947643   3.755   1.412   0.977 -0.3889  0.3572 -0.1665
  158MOL   O23047644   3.681   1.311   0.969  0.2611 -0.2742 -0.4448
  158MOL   C23147645   3.904   1.399   0.981 -0.0266  0.2843  0.2514
  158MOL   C23247646   3.956   1.273   0.922 -0.1437 -0.2893 -0.1815
  158MOL   C23347647   3.549   1.688   1.084  1.0529  0.5589  0.0445
  158MOL   H23447648   3.513   1.486   1.035 -1.2845  1.1741  0.9328
  158MOL   H23547649   3.933   1.483   0.918  0.2475 -0.5062 -0.6967
  158MOL   H23647650   3.951   1.407   1.079 -1.2264 -0.8347  0.9239
  158MOL   H23747651   4.064   1.277   0.929 -0.1186 -0.7862 -0.2800
  158MOL   H23847652   3.920   1.188   0.981  1.6319 -0.6955  0.3460
  158MOL   H23947653   3.931   1.256   0.817  1.2489 -2.1031 -0.2507
  158MOL   H24047654   3.571   1.784   1.037  1.0217  1.1822  1.2658
  158MOL   H24147655   3.441   1.693   1.100  1.2137 -1.9283  2.1618
  158MOL   C24247656   3.617   1.679   1.225 -0.0238 -0.5488  0.1420
  158MOL   O24347657   3.593   1.799   1.297 -0.1828 -0.1019 -0.2438
  158MOL   C24447658   3.477   1.831   1.358 -0.1866  0.4950 -0.3289
  158MOL   O24547659   3.376   1.758   1.368  0.5892  0.9033 -0.2541
  158MOL   C24647660   3.480   1.972   1.423  0.2860 -0.0771 -0.4534
  158MOL   C24747661   3.406   1.970   1.555 -0.4728  0.6461 -0.0555
  158MOL   C24847662   3.606   1.558   1.309 -0.0950 -0.1426  0.7711
  158MOL   H24947663   3.723   1.676   1.203  0.6143 -1.7539  3.1024
  158MOL   H25047664   3.587   1.987   1.431  0.0744  0.9063  0.5683
  158MOL   H25147665   3.449   2.059   1.365  2.0196  1.5052  0.9544
  158MOL   H25247666   3.455   1.929   1.643 -1.2023 -1.5561 -0.6585
  158MOL   H25347667   3.397   2.075   1.585  3.3898  1.2118 -0.6714
  158MOL   H25447668   3.302   1.936   1.557 -0.2308 -0.2016 -1.4316
  158MOL   H25547669   3.500   1.535   1.317 -0.0865 -0.4787 -0.0210
  158MOL   H25647670   3.641   1.472   1.251  0.7790 -0.8969  2.3715
  158MOL   C25747671   3.673   1.555   1.453 -0.4325 -0.4266 -0.0891
  158MOL   O25847672   3.658   1.425   1.513  0.6832 -0.2004 -0.1357
  158MOL   C25947673   3.564   1.404   1.596  0.1178  0.4695  0.1446
  158MOL   O26047674   3.471   1.481   1.633  0.1612  0.5421  1.1902
  158MOL   C26147675   3.564   1.270   1.663 -0.6349  0.1423  0.4293
  158MOL   C26247676   3.462   1.271   1.786 -0.3431  0.3467  0.0378
  158MOL   C26347677   3.828   1.579   1.452 -0.0414  0.0193  0.6758
  158MOL   H26447678   3.624   1.622   1.524 -1.2892  0.6738 -1.7090
  158MOL   H26547679   3.533   1.193   1.591 -1.5468  1.1377 -0.2636
  158MOL   H26647680   3.665   1.246   1.696  0.5785  0.7485 -2.6653
  158MOL   H26747681   3.360   1.309   1.780  0.5599  2.5437 -2.2773
  158MOL   H26847682   3.459   1.179   1.844 -0.9149  1.2041  1.3948
  158MOL   H26947683   3.514   1.340   1.854 -0.7562  2.3341 -1.6142
  158MOL   H27047684   3.869   1.514   1.529  0.0930  0.0251  0.6079
  158MOL   H27147685   3.877   1.541   1.363  1.4175  1.1981  0.9673
  158MOL   C27247686   3.876   1.718   1.480  0.3432 -0.4481 -0.4691
  158MOL   O27347687   3.831   1.745   1.613 -0.3705 -0.3873 -0.1403
  158MOL   C27447688   3.802   1.865   1.653  0.6846  0.5555  0.5961
  158MOL   O27547689   3.817   1.966   1.587  0.9061 -0.5003 -0.8925
  158MOL   C27647690   3.758   1.863   1.800 -0.0156 -0.6099 -0.4908
  158MOL   C27747691   3.758   2.000   1.874 -0.2195  0.2508 -0.1398
  158MOL   C27847692   4.034   1.734   1.471 -0.1662  1.0377 -0.7079
  158MOL   H27947693   3.818   1.783   1.415 -0.7198  1.0089  1.8603
  158MOL   H28047694   3.659   1.817   1.795 -0.5667  0.3628  0.9285
  158MOL   H28147695   3.799   1.783   1.862 -0.7194 -1.3872 -1.0062
  158MOL   H28247696   3.738   1.988   1.980 -0.0661  0.6254 -0.0691
  158MOL   H28347697   3.857   2.045   1.864 -0.1048  0.2424  0.9111
  158MOL   H28447698   3.696   2.077   1.828 -0.7353 -0.7836 -1.2215
  158MOL   H28547699   4.077   1.828   1.506  0.0387 -0.0010  1.9699
  158MOL   H28647700   4.092   1.660   1.527 -2.0754  1.8157  2.4166
  158MOL   C28747701   4.088   1.718   1.319  0.2765 -0.8691 -0.6309
  158MOL   O28847702   4.053   1.830   1.246 -0.2676 -0.2844  0.9174
  158MOL   C28947703   3.987   1.827   1.137  0.7408  0.0046 -0.2722
  158MOL   O29047704   3.964   1.726   1.072 -0.2451 -0.4165  0.2246
  158MOL   C29147705   3.927   1.958   1.095  0.2561 -0.3352 -0.1817
  158MOL   C29247706   3.847   2.018   1.215  0.1241  1.1000  0.1760
  158MOL   C29347707   4.237   1.699   1.317  0.1748  0.3259 -0.1411
  158MOL   H29447708   4.035   1.631   1.282 -4.0508  2.2944 -2.3264
  158MOL   H29547709   4.011   2.026   1.078  0.4505 -0.1178  1.4783
  158MOL   H29647710   3.866   1.947   1.006 -0.1338  0.0386  0.0352
  158MOL   H29747711   3.756   1.960   1.233  0.9934 -0.5176 -0.4934
  158MOL   H29847712   3.900   2.017   1.310 -0.2675 -0.7434  0.4002
  158MOL   H29947713   3.801   2.110   1.180 -1.1699 -0.5924 -2.8214
  158MOL   H30047714   4.262   1.662   1.217 -2.0469  0.2103 -0.6874
  158MOL   H30147715   4.291   1.792   1.334  0.2445  0.2346  0.1366
  158MOL   H30247716   4.274   1.619   1.381 -1.3156  0.6170  1.1022
  159MOL     C147717   2.060   4.167   3.260 -0.2598  0.2502  0.3050
  159MOL     O247718   2.016   4.039   3.302  0.3238 -0.1353 -0.5239
  159MOL     C347719   2.039   4.005   3.443 -0.2798 -0.4308  0.6927
  159MOL     O447720   2.084   4.087   3.525 -0.4354  0.2944 -0.4498
  159MOL     C547721   2.006   3.854   3.475  0.3023 -0.0425 -0.0239
  159MOL     C647722   2.083   3.759   3.391  0.1173  0.4033 -0.2924
  159MOL     C747723   2.004   4.204   3.127  0.3426  0.1219 -0.4937
  159MOL     H847724   2.167   4.180   3.242 -0.7026  1.1972 -1.8398
  159MOL     H947725   2.016   3.833   3.582  1.5012  0.3408 -0.0604
  159MOL    H1047726   1.900   3.857   3.451 -0.1101  1.2295  1.8706
  159MOL    H1147727   2.070   3.782   3.285  0.6956  0.7292 -0.2950
  159MOL    H1247728   2.189   3.768   3.414  0.4719 -2.9804 -0.3882
  159MOL    H1347729   2.060   3.653   3.404 -1.3521  0.6548 -0.7341
  159MOL    H1447730   2.056   4.139   3.056 -1.4939  0.1395 -1.8932
  159MOL    H1547731   1.898   4.179   3.134  0.7479 -1.1313  1.4846
  159MOL    H1647732   2.025   4.246   3.326  1.6704  0.7096  0.8337
  159MOL    C1747733   2.038   4.343   3.078 -0.6673 -0.1646  0.5316
  159MOL    O1847734   2.178   4.364   3.062 -0.1535 -0.4379 -0.2623
  159MOL    C1947735   2.246   4.471   3.130  0.9488  0.2376 -0.7775
  159MOL    O2047736   2.193   4.555   3.204 -0.3742  0.7329 -0.2310
  159MOL    C2147737   2.402   4.474   3.109 -0.2888  0.0645 -0.4949
  159MOL    C2247738   2.460   4.556   2.997  0.2005  0.1852  1.2364
  159MOL    C2347739   1.966   4.379   2.941 -0.0622 -0.1082 -0.8760
  159MOL    H2447740   2.010   4.412   3.158 -0.6596  1.3167 -0.7014
  159MOL    H2547741   2.429   4.499   3.211 -3.4197  0.6555  0.2275
  159MOL    H2647742   2.430   4.369   3.104 -0.7337 -0.1043  0.5125
  159MOL    H2747743   2.567   4.571   3.012  0.5813 -0.7281 -0.4913
  159MOL    H2847744   2.454   4.499   2.904 -0.0405  1.6074  0.3614
  159MOL    H2947745   2.414   4.655   3.002  2.4687  1.3403  0.0787
  159MOL    H3047746   2.000   4.317   2.858 -1.6629 -2.5762  0.2780
  159MOL    H3147747   1.864   4.351   2.964  0.6465 -1.6830  0.4550
  159MOL    C3247748   1.980   4.525   2.891  0.3539  0.2088  0.0977
  159MOL    O3347749   1.914   4.536   2.766  0.1077  0.0532 -0.1392
  159MOL    C3447750   1.983   4.510   2.648  0.8979 -0.6123 -0.7748
  159MOL    O3547751   2.097   4.470   2.638  0.1690 -0.4348  0.1902
  159MOL    C3647752   1.906   4.545   2.520  0.3988 -0.6372 -0.1787
  159MOL    C3747753   1.786   4.445   2.498 -0.0681 -0.0054 -0.9763
  159MOL    C3847754   1.918   4.633   2.999 -0.2298 -0.1497 -0.1413
  159MOL    H3947755   2.087   4.543   2.877  0.6359 -1.9558 -0.7501
  159MOL    H4047756   1.862   4.644   2.528  0.6510 -0.5703  0.3853
  159MOL    H4147757   1.987   4.558   2.448 -0.1937  0.0487 -0.7347
  159MOL    H4247758   1.810   4.340   2.515  1.3545  0.7145  1.8976
  159MOL    H4347759   1.707   4.464   2.571  1.3309 -3.6242  1.6517
  159MOL    H4447760   1.740   4.456   2.400  0.0529  2.0254 -0.8300
  159MOL    H4547761   1.816   4.602   3.024 -1.1985  2.8034 -0.2339
  159MOL    H4647762   1.974   4.623   3.092 -0.1687  1.8370  0.0705
  159MOL    C4747763   1.913   4.777   2.932 -0.1689 -0.1303  0.4945
  159MOL    O4847764   1.779   4.825   2.937 -0.5178  0.0026 -0.3576
  159MOL    C4947765   1.698   4.809   2.833  0.5987  0.1113  0.1120
  159MOL    O5047766   1.730   4.781   2.721 -0.0078 -0.1062 -1.0605
  159MOL    C5147767   1.559   4.846   2.877  0.1357  0.8703  1.3691
  159MOL    C5247768   1.485   4.743   2.964  0.2092 -0.3358  0.9920
  159MOL    C5347769   2.010   4.876   3.007  0.4193  0.2049  0.6043
  159MOL    H5447770   1.947   4.780   2.829  0.8031  1.4043  0.8377
  159MOL    H5547771   1.554   4.939   2.933 -2.0053 -0.1413  2.9333
  159MOL    H5647772   1.499   4.861   2.787  0.7178 -0.8853  0.6655
  159MOL    H5747773   1.506   4.637   2.947  1.9278 -0.0530  1.2582
  159MOL    H5847774   1.493   4.765   3.071 -1.9312  1.2461  0.8630
  159MOL    H5947775   1.380   4.753   2.935  0.8835 -0.5741 -1.6576
  159MOL    H6047776   2.003   4.866   3.115  1.4644 -2.3113  0.4567
  159MOL    H6147777   2.111   4.842   2.985 -1.0040 -2.8223 -1.6397
  159MOL    C6247778   1.993   5.027   2.972  0.3196  0.5001 -0.0728
  159MOL    O6347779   1.913   5.089   3.073 -0.2352  0.0307 -0.3729
  159MOL    C6447780   1.793   5.143   3.032  0.1625 -0.9143  0.0500
  159MOL    O6547781   1.744   5.145   2.919  1.1082  0.1057  0.3011
  159MOL    C6647782   1.716   5.175   3.157  0.2462 -0.1519  0.0555
  159MOL    C6747783   1.579   5.242   3.125 -0.8043  0.1423 -0.1222
  159MOL    C6847784   2.131   5.096   2.957 -0.0313 -0.1851  0.3774
  159MOL    H6947785   1.943   5.025   2.875 -3.1830 -2.1936  1.6695
  159MOL    H7047786   1.700   5.088   3.221  0.3231  0.4021  0.8385
  159MOL    H7147787   1.770   5.238   3.229  1.2622 -0.5024 -0.3909
  159MOL    H7247788   1.526   5.194   3.043 -0.3039  1.1308 -1.0318
  159MOL    H7347789   1.506   5.235   3.206 -0.1110  0.1381  0.5020
  159MOL    H7447790   1.597   5.346   3.096 -2.4246  0.8307  1.2220
  159MOL    H7547791   2.188   5.080   3.048  1.9238  0.3500 -0.7384
  159MOL    H7647792   2.189   5.042   2.882  0.3807  1.7481 -0.7170
  159MOL    C7747793   2.139   5.248   2.933 -0.1959  0.0918 -0.3391
  159MOL    O7847794   2.275   5.286   2.937  0.0755  0.0071  0.7281
  159MOL    C7947795   2.309   5.394   3.008 -0.0036 -0.1181 -0.1368
  159MOL    O8047796   2.232   5.473   3.065  0.2481 -0.3289 -0.4823
  159MOL    C8147797   2.458   5.436   2.983  0.5457  1.1786  0.0003
  159MOL    C8247798   2.454   5.562   2.896  0.5054  0.4773 -0.0148
  159MOL    C8347799   2.079   5.291   2.800 -0.6094 -0.0746 -0.3638
  159MOL    H8447800   2.081   5.294   3.013 -0.5926 -1.5949  0.3841
  159MOL    H8547801   2.511   5.447   3.077  0.0757 -0.8286  0.5214
  159MOL    H8647802   2.506   5.359   2.922 -1.0069 -0.2601  0.5835
  159MOL    H8747803   2.454   5.653   2.956 -1.6862 -1.0685  2.4088
  159MOL    H8847804   2.548   5.570   2.841  0.7999  1.2451  0.5785
  159MOL    H8947805   2.370   5.563   2.827  0.8764  1.1270 -0.4673
  159MOL    H9047806   1.972   5.269   2.797 -0.0686 -2.8983 -0.2159
  159MOL    H9147807   2.103   5.397   2.790  1.2982 -0.5111 -0.4439
  159MOL    C9247808   2.134   5.215   2.676 -0.2780 -0.3358  0.3495
  159MOL    O9347809   2.055   5.101   2.665 -0.0822  0.0509  0.1862
  159MOL    C9447810   2.107   4.995   2.600 -0.4609  0.0731  0.0425
  159MOL    O9547811   2.219   4.990   2.550 -0.1258 -0.2807 -0.2377
  159MOL    C9647812   1.999   4.896   2.556 -0.4416 -0.3443 -0.5174
  159MOL    C9747813   1.925   4.960   2.438 -0.3218  0.1760 -0.6560
  159MOL    C9847814   2.132   5.293   2.544  0.1395 -0.1221 -0.4801
  159MOL    H9947815   2.235   5.186   2.703 -1.6170 -3.0911  2.6645
  159MOL   H10047816   2.048   4.805   2.521  0.1643 -1.2847  2.6404
  159MOL   H10147817   1.940   4.867   2.642  2.5552 -0.6954  1.5101
  159MOL   H10247818   1.897   5.059   2.473 -0.7575  0.5580 -2.0564
  159MOL   H10347819   1.993   4.963   2.352 -0.8227 -1.4689 -1.1366
  159MOL   H10447820   1.840   4.901   2.404 -1.6802  0.1370  2.6506
  159MOL   H10547821   2.145   5.225   2.460  2.2605  0.4042 -0.6061
  159MOL   H10647822   2.040   5.352   2.539  0.7553  0.8324 -0.7415
  159MOL   C10747823   2.249   5.384   2.524 -0.1972  0.3766  0.2170
  159MOL   O10847824   2.369   5.304   2.530  0.8234  0.1334  0.2312
  159MOL   C10947825   2.480   5.363   2.567 -0.3462 -0.7042  0.1916
  159MOL   O11047826   2.489   5.474   2.626  0.1591 -0.2907 -0.2891
  159MOL   C11147827   2.613   5.276   2.543 -0.8125 -0.5653 -0.3403
  159MOL   C11247828   2.654   5.182   2.663  0.4050 -0.1847  0.2214
  159MOL   C11347829   2.246   5.472   2.402  0.6115  0.6424  0.1790
  159MOL   H11447830   2.256   5.452   2.610 -4.1576  1.7429 -0.4325
  159MOL   H11547831   2.613   5.213   2.454 -4.1325 -1.9273  0.5432
  159MOL   H11647832   2.696   5.346   2.539  2.0225 -3.7950 -0.6981
  159MOL   H11747833   2.677   5.238   2.754 -1.8521 -0.0385  0.7489
  159MOL   H11847834   2.563   5.131   2.696 -0.6768  1.6615  0.1861
  159MOL   H11947835   2.743   5.127   2.635  0.6920 -0.8173  2.2975
  159MOL   H12047836   2.340   5.521   2.376  0.4420  1.4302  1.0467
  159MOL   H12147837   2.218   5.403   2.322  0.7923  0.8252 -0.0419
  159MOL   C12247838   2.134   5.582   2.418 -1.3232  0.3275  0.4435
  159MOL   O12347839   2.162   5.644   2.544 -0.7737 -0.2992  0.3795
  159MOL   C12447840   2.062   5.656   2.635 -0.0013  0.5414  0.1128
  159MOL   O12547841   1.954   5.601   2.628  0.1573 -0.2159 -0.3848
  159MOL   C12647842   2.105   5.720   2.763  0.2967 -0.6133  0.1374
  159MOL   C12747843   2.092   5.880   2.749 -0.4644 -0.5964 -0.1129
  159MOL   C12847844   2.122   5.683   2.301 -0.3520 -0.3777  0.1916
  159MOL   H12947845   2.042   5.523   2.413 -1.7916  1.0501  0.4732
  159MOL   H13047846   2.066   5.669   2.851 -0.6169  0.4254  0.3542
  159MOL   H13147847   2.213   5.714   2.775  0.2838 -1.9367 -0.3489
  159MOL   H13247848   1.987   5.905   2.766 -0.3127  1.6900 -2.3942
  159MOL   H13347849   2.151   5.940   2.819  1.0827 -1.4194 -0.6927
  159MOL   H13447850   2.115   5.918   2.650  0.2698  1.1726  0.7144
  159MOL   H13547851   2.203   5.756   2.301 -1.0929  0.4544 -0.3227
  159MOL   H13647852   2.143   5.630   2.209  1.6170  0.3751  0.1800
  159MOL   C13747853   1.992   5.765   2.304 -0.3330  0.1249  0.0833
  159MOL   O13847854   2.028   5.908   2.302  0.0232 -0.0787  0.2525
  159MOL   C13947855   1.976   5.992   2.392  0.3373  0.3206 -0.2121
  159MOL   O14047856   1.886   5.961   2.471 -0.2778 -0.0126 -0.3602
  159MOL   C14147857   2.033   6.131   2.382  0.3534 -0.1362  0.3553
  159MOL   C14247858   2.016   6.220   2.505 -0.0449 -0.2490 -0.7038
  159MOL   C14347859   1.896   5.742   2.194  0.4643 -0.5947 -0.0675
  159MOL   H14447860   1.944   5.734   2.397 -2.0082 -3.3608 -1.8734
  159MOL   H14547861   2.139   6.111   2.368  0.6899  0.8925  1.3315
  159MOL   H14647862   1.989   6.174   2.292  0.9994  1.6687  0.8712
  159MOL   H14747863   2.059   6.176   2.595  3.4483 -2.1355 -3.1597
  159MOL   H14847864   2.065   6.316   2.490  1.6808 -1.1064 -0.7225
  159MOL   H14947865   1.911   6.231   2.530 -0.1615  0.6659 -1.5784
  159MOL   H15047866   1.812   5.810   2.203 -0.2198 -1.4534  0.1324
  159MOL   H15147867   1.947   5.753   2.098 -0.6149 -2.5351 -0.9013
  159MOL   C15247868   1.841   5.593   2.188  0.5440  0.0314  0.1375
  159MOL   O15347869   1.932   5.485   2.152  0.1130 -0.2986  0.8035
  159MOL   C15447870   1.902   5.391   2.064 -0.2074 -0.0328 -0.3533
  159MOL   O15547871   1.812   5.398   1.980  0.0404  0.3715  0.6669
  159MOL   C15647872   2.017   5.288   2.055 -0.3244 -0.1387  0.0888
  159MOL   C15747873   2.026   5.202   2.182 -0.0410 -0.0994  0.0773
  159MOL   C15847874   1.758   5.552   2.319  0.6497  0.9457  0.8512
  159MOL   H15947875   1.767   5.601   2.108 -0.5428  2.5997  1.3446
  159MOL   H16047876   2.005   5.222   1.969 -2.5391 -2.2298  1.9099
  159MOL   H16147877   2.103   5.354   2.052 -0.2989 -0.2401 -1.6834
  159MOL   H16247878   1.990   5.265   2.263 -0.9248  3.8191 -3.2330
  159MOL   H16347879   1.966   5.111   2.179 -1.8549  1.0267  1.4712
  159MOL   H16447880   2.130   5.178   2.209 -0.1747 -0.8947 -0.1049
  159MOL   H16547881   1.836   5.512   2.384 -0.7093  0.1590  1.9961
  159MOL   H16647882   1.725   5.641   2.373 -1.7373 -1.6180  3.7081
  159MOL   C16747883   1.636   5.457   2.297  0.4072 -0.0332 -0.5360
  159MOL   O16847884   1.617   5.401   2.426 -0.0389  0.0891  0.5806
  159MOL   C16947885   1.644   5.271   2.449  0.2221 -0.8209 -0.5255
  159MOL   O17047886   1.677   5.194   2.363  0.2717  0.0889 -0.3934
  159MOL   C17147887   1.622   5.227   2.597  0.2450 -0.7987 -0.2098
  159MOL   C17247888   1.502   5.275   2.678 -0.2388  0.1853  0.1938
  159MOL   C17347889   1.499   5.537   2.264 -0.4392  0.1425 -0.5893
  159MOL   H17447890   1.662   5.381   2.224  1.1027 -2.7803  2.4611
  159MOL   H17547891   1.627   5.119   2.605 -1.9639 -0.7752  2.0688
  159MOL   H17647892   1.719   5.261   2.634  1.3488 -2.1071 -1.8483
  159MOL   H17747893   1.507   5.384   2.680 -0.4981  0.1827  1.1753
  159MOL   H17847894   1.409   5.242   2.632 -1.0548 -0.0960  1.9996
  159MOL   H17947895   1.504   5.225   2.775  0.0199 -0.0526  0.0676
  159MOL   H18047896   1.474   5.585   2.359  0.1256  0.3242 -0.5298
  159MOL   H18147897   1.518   5.617   2.194  1.4016 -0.9478 -1.3766
  159MOL   C18247898   1.372   5.457   2.230  0.1253  0.3947 -0.2006
  159MOL   O18347899   1.260   5.543   2.219  0.2152 -0.0657  0.0579
  159MOL   C18447900   1.197   5.597   2.325 -0.1964  0.3121 -0.1940
  159MOL   O18547901   1.239   5.592   2.433 -0.3543 -0.4480 -0.3145
  159MOL   C18647902   1.065   5.670   2.282 -0.6992  0.2831 -0.1498
  159MOL   C18747903   0.956   5.574   2.222 -0.0303 -0.1107  0.0080
  159MOL   C18847904   1.383   5.381   2.098  0.0552 -0.9467  0.9835
  159MOL   H18947905   1.356   5.388   2.313  0.3069  0.9298  0.2900
  159MOL   H19047906   1.027   5.718   2.373 -0.6617  2.4843 -1.2614
  159MOL   H19147907   1.087   5.744   2.205 -0.3771  0.2852 -0.0562
  159MOL   H19247908   0.931   5.499   2.296  1.2182 -1.4543 -0.8917
  159MOL   H19347909   0.865   5.630   2.200  0.0892  0.4988  1.0501
  159MOL   H19447910   0.996   5.531   2.130  0.5533  1.4483 -0.4857
  159MOL   H19547911   1.329   5.444   2.027  2.3311  0.3230  0.3588
  159MOL   H19647912   1.487   5.365   2.071  0.3655  1.9726  0.2640
  159MOL   C19747913   1.320   5.244   2.098  0.5944  0.1423 -0.1270
  159MOL   O19847914   1.324   5.193   1.964  0.5755 -0.4802 -0.0319
  159MOL   C19947915   1.207   5.148   1.913 -0.4089  0.5764 -0.0834
  159MOL   O20047916   1.115   5.109   1.985  0.1729  0.5008  0.1203
  159MOL   C20147917   1.205   5.122   1.762 -0.7483 -0.3987 -0.1559
  159MOL   C20247918   1.156   4.984   1.731  0.3908  0.6584  0.8544
  159MOL   C20347919   1.397   5.145   2.184  0.1240 -0.0887  0.2433
  159MOL   H20447920   1.219   5.244   2.138  0.1671 -0.1087 -1.1909
  159MOL   H20547921   1.146   5.199   1.712  0.4220  1.0192  0.6008
  159MOL   H20647922   1.307   5.129   1.723 -0.1631 -5.7017  0.0594
  159MOL   H20747923   1.199   4.946   1.638 -0.2980 -0.7776  1.1130
  159MOL   H20847924   1.186   4.906   1.801 -0.3064 -1.6410 -1.3475
  159MOL   H20947925   1.047   4.979   1.726  0.5298 -0.7536 -1.4877
  159MOL   H21047926   1.498   5.128   2.148  0.1671  1.2581 -0.3007
  159MOL   H21147927   1.409   5.188   2.284 -1.2911 -0.5675  0.6353
  159MOL   C21247928   1.344   4.998   2.188  0.4777  0.1144  0.6351
  159MOL   O21347929   1.437   4.910   2.258 -0.2048 -0.1683  0.4455
  159MOL   C21447930   1.538   4.843   2.199 -0.6416  0.2147 -0.0030
  159MOL   O21547931   1.567   4.839   2.077 -0.0795 -0.2674  0.1305
  159MOL   C21647932   1.607   4.750   2.301  0.1142 -0.1306  0.4994
  159MOL   C21747933   1.546   4.615   2.295  0.2616  0.5856  0.7517
  159MOL   C21847934   1.212   4.987   2.264  0.3576 -0.5947  0.0999
  159MOL   H21947935   1.323   4.948   2.093 -1.3336  0.7567  0.6891
  159MOL   H22047936   1.715   4.748   2.282 -0.0011  0.8761 -0.3118
  159MOL   H22147937   1.590   4.781   2.404 -1.4947  0.3845  0.0868
  159MOL   H22247938   1.554   4.563   2.390 -0.5455 -0.6901  0.1392
  159MOL   H22347939   1.441   4.627   2.267  0.4245 -1.8102 -1.0035
  159MOL   H22447940   1.601   4.569   2.213  0.8463 -0.0601  1.5090
  159MOL   H22547941   1.246   4.975   2.367  1.3381 -1.0652 -0.2651
  159MOL   H22647942   1.150   5.076   2.253  1.3376  0.0662 -0.2515
  159MOL   C22747943   1.118   4.869   2.231 -0.3281 -0.5834  0.2967
  159MOL   O22847944   1.202   4.759   2.194  0.0919 -0.6216 -0.2059
  159MOL   C22947945   1.142   4.656   2.118 -0.2733  0.4897 -0.4540
  159MOL   O23047946   1.015   4.654   2.102  0.0473 -0.1487  0.6853
  159MOL   C23147947   1.244   4.553   2.058  0.5329  0.0500  0.6439
  159MOL   C23247948   1.332   4.600   1.943  0.3375 -0.4568  0.5667
  159MOL   C23347949   1.033   4.836   2.350  0.1908 -0.6352  0.1582
  159MOL   H23447950   1.069   4.902   2.140  1.4350  1.5579  0.0756
  159MOL   H23547951   1.308   4.517   2.139  2.8208 -0.8224 -1.4724
  159MOL   H23647952   1.190   4.460   2.036  0.4201 -0.9727  4.8598
  159MOL   H23747953   1.275   4.629   1.855 -1.3757 -0.3552  1.6976
  159MOL   H23847954   1.364   4.699   1.974 -0.5746 -0.2339  0.8109
  159MOL   H23947955   1.412   4.531   1.914  0.2828  0.5513 -2.1033
  159MOL   H24047956   0.980   4.742   2.339 -1.6567  0.4183 -0.1742
  159MOL   H24147957   1.098   4.810   2.434 -0.7547 -0.9301  0.7989
  159MOL   C24247958   0.937   4.953   2.397  0.2339 -0.2517  0.5884
  159MOL   O24347959   0.831   4.963   2.306  0.4171 -0.2463 -0.2614
  159MOL   C24447960   0.812   5.077   2.244 -0.0067 -0.0889 -0.1754
  159MOL   O24547961   0.883   5.177   2.262  0.4251 -0.1156  1.0311
  159MOL   C24647962   0.692   5.078   2.149 -0.3149 -1.1568 -0.3909
  159MOL   C24747963   0.680   4.961   2.064 -0.0959 -0.6374  0.1630
  159MOL   C24847964   0.871   4.931   2.529  0.2441 -0.4240  0.2927
  159MOL   H24947965   0.990   5.048   2.407 -0.1735  0.4604 -3.3018
  159MOL   H25047966   0.603   5.091   2.211  1.4068  2.9735  1.4455
  159MOL   H25147967   0.685   5.170   2.091 -3.0800  0.0942  1.7710
  159MOL   H25247968   0.593   4.967   1.998  0.5134  1.1339 -0.5284
  159MOL   H25347969   0.770   4.961   2.002 -0.8249 -1.2305 -0.9128
  159MOL   H25447970   0.674   4.869   2.122 -0.6603  0.0587  1.2376
  159MOL   H25547971   0.784   4.996   2.538  0.1903 -0.5697  0.8496
  159MOL   H25647972   0.828   4.830   2.532  2.5485 -1.4604 -0.2970
  159MOL   C25747973   0.956   4.965   2.650 -0.2738  0.6851  0.2318
  159MOL   O25847974   0.984   5.106   2.648 -0.4188 -0.2698  0.5895
  159MOL   C25947975   1.105   5.150   2.609  0.5221  0.6013 -0.2519
  159MOL   O26047976   1.206   5.086   2.590  0.6068 -0.3574 -0.8727
  159MOL   C26147977   1.101   5.297   2.567 -0.5051 -0.4560 -0.0986
  159MOL   C26247978   1.055   5.407   2.660 -0.3017  0.3958  0.7220
  159MOL   C26347979   0.897   4.933   2.784 -0.4750 -0.3596 -0.4836
  159MOL   H26447980   1.048   4.912   2.627 -0.5365  0.1026  0.5274
  159MOL   H26547981   1.189   5.327   2.508  0.0431 -0.8706  0.5040
  159MOL   H26647982   1.026   5.294   2.488 -0.3211  1.6450 -0.3693
  159MOL   H26747983   0.976   5.456   2.603 -0.8571 -1.8264 -0.4755
  159MOL   H26847984   1.021   5.381   2.760  0.1577 -1.4880  0.4011
  159MOL   H26947985   1.147   5.463   2.675 -0.5912  0.9896  0.2902
  159MOL   H27047986   0.804   4.986   2.804 -0.4189 -0.3287 -0.3002
  159MOL   H27147987   0.860   4.831   2.793 -0.7693 -0.2166 -0.0693
  159MOL   C27247988   0.994   4.943   2.907  0.6563  0.6159  0.4102
  159MOL   O27347989   1.044   5.069   2.940 -0.0515  0.0786  0.1641
  159MOL   C27447990   1.177   5.079   2.964  0.2813 -0.6622  0.7092
  159MOL   O27547991   1.247   4.979   2.965 -0.4079  0.4290  0.2980
  159MOL   C27647992   1.222   5.221   3.002  0.1788 -0.0116 -0.1687
  159MOL   C27747993   1.182   5.246   3.149  0.4172 -0.5196 -0.1925
  159MOL   C27847994   0.938   4.872   3.037 -0.1140  0.7699  0.0718
  159MOL   H27947995   1.070   4.875   2.870 -1.0566 -1.2672  0.2748
  159MOL   H28047996   1.329   5.214   2.983  1.0745  3.6532  2.8172
  159MOL   H28147997   1.178   5.300   2.940 -2.4749 -0.6065  0.8844
  159MOL   H28247998   1.206   5.168   3.221 -0.1850  0.9397  1.6363
  159MOL   H28347999   1.238   5.332   3.186 -2.9871  2.3795 -1.5237
  159MOL   H28448000   1.079   5.279   3.158  1.0470  1.1969  0.8930
  159MOL   H28548001   0.930   4.766   3.013  0.6929  0.3788  1.4382
  159MOL   H28648002   1.024   4.874   3.104 -0.4439 -0.5388  0.5454
  159MOL   C28748003   0.808   4.934   3.097 -0.7145 -0.3927  0.6483
  159MOL   O28848004   0.721   4.834   3.155  0.5822  0.0903 -0.3594
  159MOL   C28948005   0.620   4.785   3.081 -0.3941 -0.7136  0.1986
  159MOL   O29048006   0.602   4.803   2.963 -0.2826  0.0075  0.3880
  159MOL   C29148007   0.524   4.701   3.162  0.0252 -0.4375  0.3996
  159MOL   C29248008   0.538   4.550   3.135  0.2794 -0.2561 -0.5631
  159MOL   C29348009   0.841   5.049   3.195 -0.1336 -0.4297 -0.8654
  159MOL   H29448010   0.761   4.987   3.014  2.1082 -0.4052 -1.0404
  159MOL   H29548011   0.565   4.716   3.261 -0.9088  1.9715  0.4427
  159MOL   H29648012   0.417   4.722   3.159  0.0383 -0.4449 -0.2361
  159MOL   H29748013   0.513   4.492   3.224 -1.5194  0.8545 -0.3160
  159MOL   H29848014   0.473   4.530   3.051 -0.8518  0.2490  0.1738
  159MOL   H29948015   0.641   4.524   3.111  0.4658 -0.9609  0.8926
  159MOL   H30048016   0.888   5.007   3.284  0.3054  0.3375 -0.7218
  159MOL   H30148017   0.921   5.114   3.158 -0.8318 -0.3030 -2.1639
  159MOL   H30248018   0.760   5.118   3.220  1.3575  0.7330  0.9660
  160MOL     C148019   3.022   0.115   4.901  0.3011 -0.9741 -0.3542
  160MOL     O248020   3.094   0.236   4.904  0.5126 -0.6326 -0.0794
  160MOL     C348021   3.182   0.264   4.804 -0.6594  0.4764 -0.6865
  160MOL     O448022   3.218   0.194   4.710 -0.7990  0.4394  0.0390
  160MOL     C548023   3.259   0.393   4.817 -0.1616 -0.2908 -0.2650
  160MOL     C648024   3.170   0.516   4.787 -0.0843 -0.2756  0.8487
  160MOL     C748025   2.935   0.103   5.023 -0.8545 -0.2654  0.3012
  160MOL     H848026   3.090   0.031   4.908 -1.2751 -2.2597  0.0084
  160MOL     H948027   3.304   0.401   4.916 -0.2469 -0.7257 -0.1881
  160MOL    H1048028   3.344   0.400   4.750 -0.1403  1.6017 -0.0590
  160MOL    H1148029   3.216   0.599   4.734 -2.4746  1.1397  0.9233
  160MOL    H1248030   3.090   0.495   4.716 -0.0509  0.7125  0.5067
  160MOL    H1348031   3.130   0.549   4.883  2.9982  1.6285  1.5396
  160MOL    H1448032   2.891   0.003   5.027  0.5298 -0.9817 -1.4422
  160MOL    H1548033   2.983   0.119   5.119  0.9139  0.7846 -0.7308
  160MOL    H1648034   2.964   0.097   4.810 -0.4802 -1.9932  0.3398
  160MOL    C1748035   2.815   0.204   5.022  0.2762  0.6136  0.0806
  160MOL    O1848036   2.721   0.156   5.111 -0.4210 -0.5011  0.6073
  160MOL    C1948037   2.601   0.119   5.080  0.7592  0.1051  1.2007
  160MOL    O2048038   2.556   0.103   4.968 -0.2828  0.5826  0.2570
  160MOL    C2148039   2.516   0.104   5.210 -0.1228  0.0823 -0.6884
  160MOL    C2248040   2.495   7.906   5.266  0.0792  0.5056  0.0575
  160MOL    C2348041   2.858   0.340   5.073 -0.3724  0.6048  0.4076
  160MOL    H2448042   2.767   0.214   4.925 -1.6221  0.7894  1.0249
  160MOL    H2548043   2.568   0.159   5.288 -0.2052 -2.3831  1.1527
  160MOL    H2648044   2.419   0.155   5.208 -0.5209 -0.5162  2.2344
  160MOL    H2748045   2.458   7.851   5.179 -1.2086  0.9087  0.3404
  160MOL    H2848046   2.582   7.848   5.297  1.5552  2.9443  0.6446
  160MOL    H2948047   2.420   7.898   5.344  1.3403 -0.0047  1.2444
  160MOL    H3048048   2.855   0.345   5.182 -2.6622  1.5391  0.3171
  160MOL    H3148049   2.963   0.358   5.049 -0.4172 -0.7842 -0.9669
  160MOL    C3248050   2.778   0.456   5.008 -0.1928  0.0601 -0.1375
  160MOL    O3348051   2.642   0.444   5.043  0.3900 -0.4348  0.0639
  160MOL    C3448052   2.549   0.467   4.949 -0.7930  0.3863  1.1939
  160MOL    O3548053   2.576   0.511   4.837 -0.3039  0.2939  0.0914
  160MOL    C3648054   2.409   0.431   4.996 -0.6359 -0.1767  0.6972
  160MOL    C3748055   2.334   0.560   5.041  0.2876  0.0586 -0.3871
  160MOL    C3848056   2.841   0.593   5.052  0.4880 -0.5252  0.2866
  160MOL    H3948057   2.791   0.433   4.902 -1.8098  0.3630 -0.4158
  160MOL    H4048058   2.352   0.382   4.917 -0.7181  1.8551 -0.5539
  160MOL    H4148059   2.410   0.358   5.078 -1.9770  1.3696  2.1417
  160MOL    H4248060   2.296   0.543   5.142  1.0654  0.1694 -0.0732
  160MOL    H4348061   2.395   0.650   5.047  0.5253 -0.1460  0.3241
  160MOL    H4448062   2.250   0.579   4.974  1.0914  1.2641 -1.0787
  160MOL    H4548063   2.811   0.615   5.155 -0.4920  2.0707 -0.5092
  160MOL    H4648064   2.950   0.593   5.050  0.4872 -0.3670  0.2120
  160MOL    C4748065   2.810   0.716   4.955 -0.6108 -0.1601  0.5217
  160MOL    O4848066   2.849   0.839   5.016  0.2017  0.3396 -0.6002
  160MOL    C4948067   2.761   0.894   5.114  0.3091  0.5177 -0.6813
  160MOL    O5048068   2.652   0.854   5.155 -0.2007 -0.2063  0.1294
  160MOL    C5148069   2.821   1.021   5.167 -0.1020  0.6145 -0.4962
  160MOL    C5248070   2.870   1.118   5.054  0.3547  0.4894 -0.0480
  160MOL    C5348071   2.880   0.692   4.815 -0.0603  0.0113 -0.2295
  160MOL    H5448072   2.703   0.722   4.937 -0.1750 -0.5742 -2.3902
  160MOL    H5548073   2.757   1.081   5.232  1.2867  2.4410 -0.7550
  160MOL    H5648074   2.903   0.989   5.230 -1.4298  2.6641  2.4068
  160MOL    H5748075   2.784   1.171   5.014  1.2216  0.8375 -1.4850
  160MOL    H5848076   2.932   1.200   5.092 -0.2032  0.1860  1.5841
  160MOL    H5948077   2.927   1.067   4.977  0.0542 -2.2835  1.4856
  160MOL    H6048078   2.978   0.739   4.824 -1.2451  2.6936 -0.7780
  160MOL    H6148079   2.881   0.586   4.791 -1.5084 -0.0078 -0.2763
  160MOL    C6248080   2.808   0.750   4.695 -0.3127  0.1863 -0.1906
  160MOL    O6348081   2.797   0.889   4.721 -0.1078  0.4380 -0.3028
  160MOL    C6448082   2.692   0.965   4.696  0.4948 -0.3227 -0.0030
  160MOL    O6548083   2.588   0.929   4.638 -0.0854 -0.1090 -0.0210
  160MOL    C6648084   2.691   1.106   4.751 -0.0649 -0.1891 -0.1219
  160MOL    C6748085   2.660   1.213   4.649  0.0323 -0.2825 -0.5249
  160MOL    C6848086   2.877   0.717   4.564 -0.2151 -0.8385  0.4478
  160MOL    H6948087   2.705   0.716   4.682 -0.4227  0.6799 -0.6385
  160MOL    H7048088   2.607   1.117   4.820  0.4949  0.7144  0.4274
  160MOL    H7148089   2.792   1.125   4.788 -1.7314  2.7604  3.2504
  160MOL    H7248090   2.570   1.179   4.597  0.0200  0.0119 -0.6957
  160MOL    H7348091   2.647   1.312   4.692 -0.6699 -1.2397  1.5302
  160MOL    H7448092   2.737   1.223   4.573  1.5006  1.5754  1.1678
  160MOL    H7548093   2.835   0.781   4.487  3.1464  1.6478  0.5859
  160MOL    H7648094   2.981   0.750   4.565 -0.3171 -0.4515 -1.5022
  160MOL    C7748095   2.871   0.567   4.518 -1.0684  0.0598 -0.0413
  160MOL    O7848096   2.738   0.537   4.517  0.8342  0.2264 -0.2314
  160MOL    C7948097   2.698   0.413   4.548 -1.0887  0.5570  0.7079
  160MOL    O8048098   2.772   0.318   4.574  0.2356  0.0309  0.3461
  160MOL    C8148099   2.547   0.392   4.519  0.8068 -0.2081 -0.0557
  160MOL    C8248100   2.494   0.288   4.629  0.7274  0.9707 -0.0297
  160MOL    C8348101   2.944   0.557   4.385 -0.9847 -0.6342  0.0779
  160MOL    H8448102   2.928   0.505   4.587  0.3673 -0.2002 -1.4170
  160MOL    H8548103   2.488   0.483   4.525 -1.0407 -1.3803 -0.2885
  160MOL    H8648104   2.523   0.354   4.421  1.3675  0.8173 -0.6042
  160MOL    H8748105   2.403   0.318   4.681 -0.5680 -1.3773 -0.8611
  160MOL    H8848106   2.477   0.190   4.584  0.9983  0.8589  0.1137
  160MOL    H8948107   2.564   0.266   4.709  0.4033 -0.6256 -0.1677
  160MOL    H9048108   2.896   0.622   4.312 -1.1862  0.5461  1.2697
  160MOL    H9148109   3.044   0.595   4.405 -0.0832 -1.5581 -2.3898
  160MOL    C9248110   2.950   0.414   4.318 -0.0553 -0.3290 -0.0690
  160MOL    O9348111   2.970   0.425   4.173  0.5644 -0.4563  0.7549
  160MOL    C9448112   2.910   0.351   4.080 -0.1823  0.4576 -0.8219
  160MOL    O9548113   2.838   0.255   4.112 -0.3340 -0.0177 -0.6018
  160MOL    C9648114   2.927   0.399   3.938  0.1087  1.0273 -0.2926
  160MOL    C9748115   2.787   0.401   3.862  0.5402  0.5010  0.5942
  160MOL    C9848116   3.059   0.329   4.385 -0.8416  0.8026 -0.5433
  160MOL    H9948117   2.855   0.361   4.327 -0.2137  0.0983  0.8093
  160MOL   H10048118   2.954   0.505   3.947 -0.5341  1.2111 -0.4922
  160MOL   H10148119   3.010   0.349   3.888  0.6655  2.5630 -0.9432
  160MOL   H10248120   2.749   0.299   3.852  1.1464 -0.0234  3.2104
  160MOL   H10348121   2.706   0.462   3.903 -0.2804  0.0787 -0.3602
  160MOL   H10448122   2.805   0.437   3.761 -0.1783 -1.6950 -0.3524
  160MOL   H10548123   3.157   0.377   4.373 -0.3986 -0.0049 -0.1952
  160MOL   H10648124   3.057   0.330   4.494  0.9337 -2.5517 -0.4028
  160MOL   C10748125   3.068   0.180   4.349 -0.3644 -0.7274 -0.1280
  160MOL   O10848126   3.191   0.125   4.410  0.0475  0.2446 -0.5147
  160MOL   C10948127   3.288   0.072   4.337 -0.3344 -0.0205  0.5199
  160MOL   O11048128   3.284   0.064   4.217 -0.3607 -0.2293  0.7495
  160MOL   C11148129   3.424   0.041   4.399  0.4121 -0.2695 -0.9271
  160MOL   C11248130   3.497   0.179   4.432  0.7563 -0.1651  0.0366
  160MOL   C11348131   2.941   0.112   4.398 -0.0735  0.2147 -0.1694
  160MOL   H11448132   3.072   0.166   4.241  2.9276  1.0055 -0.2924
  160MOL   H11548133   3.408   7.927   4.490  1.0232  0.1080 -0.5743
  160MOL   H11648134   3.473   7.924   4.325  0.5356  0.9906 -1.9142
  160MOL   H11748135   3.442   0.247   4.496  1.0536 -1.2060  1.4061
  160MOL   H11848136   3.592   0.160   4.481  0.3293 -0.1632  0.8601
  160MOL   H11948137   3.517   0.235   4.340 -0.1359  1.6504  0.9363
  160MOL   H12048138   2.956   0.091   4.504  0.4100 -0.3081 -0.3422
  160MOL   H12148139   2.848   0.166   4.380 -1.9944 -2.9555 -0.2305
  160MOL   C12248140   2.906   7.922   4.326  0.7282  0.4001 -0.0610
  160MOL   O12348141   3.003   7.821   4.349  0.3613  0.5067  0.6125
  160MOL   C12448142   3.042   7.736   4.251  0.3353 -0.2135 -0.0461
  160MOL   O12548143   2.989   7.732   4.140 -0.0648  0.1048 -0.3656
  160MOL   C12648144   3.151   7.642   4.298 -0.7851  0.2219 -0.4505
  160MOL   C12748145   3.180   7.522   4.196 -0.0269 -0.5359 -0.6349
  160MOL   C12848146   2.764   7.865   4.376 -0.2328  0.2357  0.6082
  160MOL   H12948147   2.888   7.935   4.219 -0.5147 -1.5214 -0.1265
  160MOL   H13048148   3.244   7.696   4.317 -1.2442  0.9660 -0.3253
  160MOL   H13148149   3.127   7.601   4.396 -0.3831 -5.3925 -2.5135
  160MOL   H13248150   3.108   7.441   4.211  0.9359 -1.3053 -0.0250
  160MOL   H13348151   3.158   7.534   4.090 -0.7363 -2.2821 -0.7061
  160MOL   H13448152   3.278   7.478   4.215 -0.1535 -1.1880 -1.4677
  160MOL   H13548153   2.786   7.802   4.462 -0.4918 -0.8127 -0.0781
  160MOL   H13648154   2.704   0.006   4.404 -1.0295  0.1720 -0.9003
  160MOL   C13748155   2.685   7.777   4.271  0.3986 -0.0206  0.1124
  160MOL   O13848156   2.583   7.718   4.345 -0.0727 -0.2221 -0.3477
  160MOL   C13948157   2.596   7.591   4.381  0.5715  0.3428 -0.1284
  160MOL   O14048158   2.704   7.523   4.391  0.1315 -0.8714  0.1474
  160MOL   C14148159   2.461   7.530   4.397 -0.4264 -0.0618  0.7648
  160MOL   C14248160   2.364   7.532   4.276 -0.7853 -0.2234 -0.6811
  160MOL   C14348161   2.639   7.850   4.145 -0.0607  0.6402  0.2257
  160MOL   H14448162   2.751   7.694   4.245 -1.0979 -0.8249 -1.1707
  160MOL   H14548163   2.464   7.425   4.426  0.7731 -0.9946 -2.5041
  160MOL   H14648164   2.424   7.591   4.480 -1.3330 -2.6600  2.3170
  160MOL   H14748165   2.342   7.634   4.247  0.5090  1.0159  2.3669
  160MOL   H14848166   2.400   7.473   4.192 -1.5228 -2.8958  0.7927
  160MOL   H14948167   2.269   7.488   4.307 -0.7981 -0.1377 -0.5973
  160MOL   H15048168   2.555   7.913   4.174 -1.3257 -1.1350  0.5699
  160MOL   H15148169   2.719   7.911   4.103 -0.0743  0.1437 -0.5474
  160MOL   C15248170   2.599   7.748   4.036 -0.0896 -0.3222  0.4160
  160MOL   O15348171   2.541   7.820   3.930  0.0109 -0.4009 -0.6291
  160MOL   C15448172   2.406   7.841   3.925  0.0452  0.4463  0.7009
  160MOL   O15548173   2.321   7.798   4.002 -0.2998  0.2805  0.6823
  160MOL   C15648174   2.363   7.930   3.812 -0.7035  0.0231 -0.1058
  160MOL   C15748175   2.309   0.121   3.868 -0.0336  0.1382 -0.0076
  160MOL   C15848176   2.718   7.672   3.971 -0.2122 -0.1982  0.1310
  160MOL   H15948177   2.538   7.672   4.084  1.9208 -1.4493  1.2831
  160MOL   H16048178   2.436   7.935   3.732 -1.3921 -2.1215 -0.9211
  160MOL   H16148179   2.273   7.879   3.776 -1.3692  0.8256  0.3996
  160MOL   H16248180   2.239   0.099   3.949  1.1392 -1.9097  0.4853
  160MOL   H16348181   2.388   0.185   3.907 -1.6110  2.0458  0.1035
  160MOL   H16448182   2.251   0.170   3.789  0.0093 -1.3650 -1.0079
  160MOL   H16548183   2.797   7.742   3.943 -1.2073  0.5842 -0.7787
  160MOL   H16648184   2.769   7.603   4.038 -1.8627 -0.5298  1.0632
  160MOL   C16748185   2.681   7.600   3.839 -0.0058  0.0876 -0.2390
  160MOL   O16848186   2.804   7.549   3.796 -0.3482 -0.5345 -0.3857
  160MOL   C16948187   2.828   7.522   3.669 -0.1263  0.5786 -0.3639
  160MOL   O17048188   2.757   7.551   3.575  0.2540  0.3713  0.3891
  160MOL   C17148189   2.962   7.458   3.643  0.3600 -0.0571 -0.1732
  160MOL   C17248190   2.974   7.325   3.704  0.1040  0.2359 -0.5632
  160MOL   C17348191   2.590   7.480   3.878 -0.1990 -0.0678 -0.9397
  160MOL   H17448192   2.627   7.654   3.762  1.4739 -0.1401 -1.4525
  160MOL   H17548193   2.975   7.461   3.535  0.5723  1.9058 -0.1135
  160MOL   H17648194   3.036   7.525   3.688 -0.3361 -0.6449  1.8946
  160MOL   H17748195   2.903   7.250   3.670  0.7849 -0.3074 -0.7887
  160MOL   H17848196   3.078   7.299   3.686  0.7042  3.2854 -1.8863
  160MOL   H17948197   2.969   7.338   3.812 -0.7957  0.3618 -0.6135
  160MOL   H18048198   2.636   7.387   3.847  0.4375 -1.4329  3.6752
  160MOL   H18148199   2.584   7.479   3.987 -0.8019  2.9492 -0.8931
  160MOL   C18248200   2.441   7.501   3.820 -0.4467 -0.1911  0.3019
  160MOL   O18348201   2.441   7.507   3.676 -0.0356  0.0406  0.0480
  160MOL   C18448202   2.374   7.591   3.604  0.1460  0.2337 -0.3663
  160MOL   O18548203   2.274   7.650   3.653  0.3441 -0.3624 -0.1258
  160MOL   C18648204   2.423   7.610   3.460  0.1603 -0.2001 -0.3718
  160MOL   C18748205   2.359   7.733   3.396 -0.2975  0.2504  0.1504
  160MOL   C18848206   2.353   7.384   3.856 -0.9608 -0.4173  0.1505
  160MOL   H18948207   2.392   7.587   3.867  0.4529  1.0132 -0.9001
  160MOL   H19048208   2.531   7.619   3.458  0.1982 -0.8665 -2.5907
  160MOL   H19148209   2.378   7.526   3.406 -1.3316 -2.3486  3.9788
  160MOL   H19248210   2.255   7.710   3.375  0.0325 -0.2562 -1.0038
  160MOL   H19348211   2.357   7.821   3.460 -1.4262  1.3123 -1.3292
  160MOL   H19448212   2.403   7.760   3.299 -0.6601 -0.8426 -0.3283
  160MOL   H19548213   2.394   7.303   3.796 -0.1695 -0.5280  0.8273
  160MOL   H19648214   2.370   7.360   3.962  0.2979  2.9431  0.7787
  160MOL   C19748215   2.205   7.392   3.824  0.0124 -0.3958  0.1724
  160MOL   O19848216   2.154   7.258   3.835  0.1327  0.4659 -0.0185
  160MOL   C19948217   2.162   7.183   3.720 -0.0255  0.3564 -0.0712
  160MOL   O20048218   2.212   7.212   3.613  0.2195  0.4079 -0.0060
  160MOL   C20148219   2.110   7.039   3.740 -0.0804  0.5667  0.2147
  160MOL   C20248220   2.226   6.934   3.760  0.4285  0.6346  0.2793
  160MOL   C20348221   2.133   7.492   3.911 -0.4718  0.6130 -0.7630
  160MOL   H20448222   2.188   7.430   3.724  0.3852  1.8032  0.9131
  160MOL   H20548223   2.060   7.045   3.837  0.1825 -1.0144  0.4644
  160MOL   H20648224   2.050   7.018   3.651 -0.6636  0.5478  0.6075
  160MOL   H20748225   2.215   6.839   3.708 -2.6904  1.2251 -0.2304
  160MOL   H20848226   2.322   6.976   3.731  0.3143  0.8851  0.2590
  160MOL   H20948227   2.231   6.902   3.864 -0.3465  0.4832  0.2750
  160MOL   H21048228   2.158   7.499   4.017 -1.5093  3.8415 -0.6795
  160MOL   H21148229   2.168   7.594   3.895  2.0602 -0.1224 -0.0171
  160MOL   C21248230   1.977   7.501   3.901 -0.0318  0.2553  0.0950
  160MOL   O21348231   1.945   7.491   3.768  0.0457 -0.0830  0.5865
  160MOL   C21448232   1.858   7.580   3.704  0.0630  0.2801  0.0890
  160MOL   O21548233   1.789   7.671   3.760 -0.5466 -0.1321  0.1834
  160MOL   C21648234   1.842   7.545   3.564 -0.1038  0.0774  1.3613
  160MOL   C21748235   1.859   7.659   3.456 -0.4964 -0.1572 -0.0307
  160MOL   C21848236   1.894   7.398   3.980 -0.2222  0.0662  0.0428
  160MOL   H21948237   1.953   7.597   3.947 -0.7891 -0.2557  0.7628
  160MOL   H22048238   1.916   7.465   3.557 -0.8834 -0.4613 -1.5564
  160MOL   H22148239   1.742   7.504   3.549  0.3413  0.1431 -2.2024
  160MOL   H22248240   1.815   7.755   3.481 -0.5783  0.7943 -3.5328
  160MOL   H22348241   1.963   7.683   3.437 -0.7407  0.1530 -0.9937
  160MOL   H22448242   1.817   7.632   3.359  0.6325 -1.1645 -0.2534
  160MOL   H22548243   1.792   7.421   3.951 -0.2357 -0.7699 -0.6179
  160MOL   H22648244   1.916   7.299   3.940 -0.9327 -0.1474  0.1877
  160MOL   C22748245   1.896   7.402   4.136 -0.0148  1.0043 -0.0940
  160MOL   O22848246   1.842   7.518   4.178  0.4169 -0.0373 -0.4244
  160MOL   C22948247   1.914   7.617   4.239 -0.6866  0.3555 -0.3604
  160MOL   O23048248   2.033   7.610   4.254  0.1277 -0.1515 -0.4425
  160MOL   C23148249   1.833   7.733   4.288  0.8157  0.7522 -0.5356
  160MOL   C23248250   1.777   7.818   4.173 -0.0657 -0.6569 -0.1165
  160MOL   C23348251   1.822   7.286   4.199  0.8830  0.1512 -0.3102
  160MOL   H23448252   1.997   7.402   4.177 -0.0819  0.9884  0.0726
  160MOL   H23548253   1.753   7.700   4.355  2.3813 -0.7775  0.6048
  160MOL   H23648254   1.892   7.800   4.351 -0.1617  1.0209  0.1076
  160MOL   H23748255   1.699   7.767   4.117  0.1592  0.2900 -1.3399
  160MOL   H23848256   1.735   7.911   4.213  0.0163 -1.1228  1.0509
  160MOL   H23948257   1.865   7.836   4.111  0.4735 -0.2057  0.7694
  160MOL   H24048258   1.819   7.285   4.308 -0.6443  0.2228 -0.3377
  160MOL   H24148259   1.722   7.275   4.156 -0.4002 -1.0841  2.8593
  160MOL   C24248260   1.897   7.160   4.181 -0.2041  0.8157 -0.0961
  160MOL   O24348261   2.006   7.156   4.272 -0.8295 -0.1584  0.4253
  160MOL   C24448262   2.134   7.120   4.229 -0.3249 -0.5013  0.4207
  160MOL   O24548263   2.157   7.082   4.118  0.3600  0.3179  0.4043
  160MOL   C24648264   2.246   7.158   4.328 -0.5796  0.0291 -0.5525
  160MOL   C24748265   2.313   7.034   4.387 -0.0769  1.1371 -0.8223
  160MOL   C24848266   1.802   7.038   4.196 -0.3005  0.0745  0.4352
  160MOL   H24948267   1.940   7.154   4.081  2.4264 -0.5730  1.0712
  160MOL   H25048268   2.326   7.197   4.265 -1.8255  0.5688 -1.8243
  160MOL   H25148269   2.215   7.223   4.409  1.1995 -0.9898  0.9899
  160MOL   H25248270   2.388   7.008   4.313  0.0756 -0.4541 -0.1109
  160MOL   H25348271   2.365   7.058   4.480 -2.2232  0.9269  0.4693
  160MOL   H25448272   2.248   6.947   4.398  0.7525  0.5379 -0.6863
  160MOL   H25548273   1.786   7.019   4.302  1.0731  0.3806  0.7071
  160MOL   H25648274   1.696   7.046   4.172 -0.5751 -1.8124  0.9501
  160MOL   C25748275   1.851   6.903   4.128 -0.2661 -0.4738 -0.3698
  160MOL   O25848276   1.794   6.802   4.200  0.7523  0.6141 -0.4777
  160MOL   C25948277   1.856   6.746   4.307 -0.7072  0.9224  0.2835
  160MOL   O26048278   1.967   6.782   4.351  0.4137  0.4560 -0.0835
  160MOL   C26148279   1.760   6.642   4.364 -0.3654  0.1068  0.2733
  160MOL   C26248280   1.629   6.709   4.416 -0.4021  0.6533 -0.1370
  160MOL   C26348281   1.814   6.894   3.979  0.0455 -0.3559 -0.1746
  160MOL   H26448282   1.957   6.880   4.138 -0.2430 -0.5706 -0.8288
  160MOL   H26548283   1.734   6.571   4.286 -4.1375  0.6800  0.9242
  160MOL   H26648284   1.807   6.592   4.449 -0.3905  0.8813  0.7510
  160MOL   H26748285   1.577   6.755   4.331 -1.2206 -0.9353 -0.5145
  160MOL   H26848286   1.568   6.636   4.469  0.4408 -0.1286 -0.2445
  160MOL   H26948287   1.656   6.792   4.482 -1.0612  0.6076  0.2009
  160MOL   H27048288   1.710   6.919   3.955 -0.4037 -0.0117  1.9692
  160MOL   H27148289   1.880   6.959   3.922 -1.7591 -0.9170 -3.0115
  160MOL   C27248290   1.841   6.756   3.926  0.2212  0.4090  0.0828
  160MOL   O27348291   1.722   6.675   3.930 -0.2941 -0.2212 -0.2199
  160MOL   C27448292   1.722   6.551   3.985  0.1000  0.0746  0.7957
  160MOL   O27548293   1.816   6.494   4.044 -0.2594  0.4478  0.3913
  160MOL   C27648294   1.590   6.478   3.955  0.4643 -0.7810 -0.1007
  160MOL   C27748295   1.587   6.330   4.007  0.0953 -0.0145 -0.4170
  160MOL   C27848296   1.890   6.764   3.777  0.2319  0.0189  0.0006
  160MOL   H27948297   1.919   6.704   3.981 -0.8986 -0.1111  1.1989
  160MOL   H28048298   1.504   6.534   3.990  0.9908  0.1409 -0.2594
  160MOL   H28148299   1.580   6.491   3.847 -1.7948  1.1161  0.3052
  160MOL   H28248300   1.593   6.335   4.116  1.1527 -0.9070 -0.4283
  160MOL   H28348301   1.500   6.270   3.980 -0.1591 -0.1441  0.6839
  160MOL   H28448302   1.667   6.269   3.966 -0.9141 -0.0772 -2.3774
  160MOL   H28548303   1.803   6.799   3.721 -0.8820 -0.6840  1.2483
  160MOL   H28648304   1.972   6.835   3.771  0.5118 -0.3381 -0.4005
  160MOL   C28748305   1.956   6.638   3.715  0.3280  0.6870  0.2861
  160MOL   O28848306   2.003   6.673   3.588  0.1385 -0.2365  0.3553
  160MOL   C28948307   1.944   6.634   3.468  0.0315 -0.4368  0.1516
  160MOL   O29048308   1.866   6.542   3.461 -0.1713  0.6418 -0.1549
  160MOL   C29148309   1.992   6.720   3.350  0.1450  0.7383 -1.0997
  160MOL   C29248310   1.939   6.863   3.361  0.0799 -0.0507  0.3326
  160MOL   C29348311   2.074   6.582   3.791 -0.0742 -0.4601  0.1302
  160MOL   H29448312   1.885   6.557   3.731 -1.0508  1.9202  0.5443
  160MOL   H29548313   2.100   6.723   3.332  0.2972  0.1415 -0.2781
  160MOL   H29648314   1.957   6.678   3.256  1.2875  1.2412 -1.7652
  160MOL   H29748315   2.028   6.926   3.368  0.9355 -1.1545 -0.4836
  160MOL   H29848316   1.894   6.907   3.272  0.2454 -0.8679 -0.1527
  160MOL   H29948317   1.868   6.874   3.443  0.8860 -1.4941  1.2402
  160MOL   H30048318   2.101   6.480   3.762 -1.1537 -1.0386  1.1047
  160MOL   H30148319   2.157   6.652   3.776 -1.7473  1.4338 -0.4462
  160MOL   H30248320   2.056   6.568   3.898 -0.6786  1.3065  0.2611
  161MOL     C148321   1.777   7.844   7.170  0.9849 -0.6141  0.3485
  161MOL     O248322   1.746   7.910   7.052  0.1110  0.4708  0.1829
  161MOL     C348323   1.697   7.848   6.942  0.0843  0.3248 -0.2708
  161MOL     O448324   1.688   7.728   6.922 -0.4085  0.3359  0.7202
  161MOL     C548325   1.646   7.939   6.838 -0.1512 -0.7265 -0.8202
  161MOL     C648326   1.623   7.863   6.707  0.9855 -0.2334  0.0628
  161MOL     C748327   1.788   0.008   7.286 -0.1565 -0.7463 -0.4909
  161MOL     H848328   1.871   7.788   7.167  0.4306 -1.5436 -0.0041
  161MOL     H948329   1.550   0.037   6.868  0.9206 -0.8258  2.9723
  161MOL    H1048330   1.710   0.081   6.822 -0.3439 -0.0858  1.6341
  161MOL    H1148331   1.714   7.820   6.665  0.2271 -0.5499 -1.3049
  161MOL    H1248332   1.551   7.784   6.727 -0.0150  0.5207 -0.4955
  161MOL    H1348333   1.572   7.929   6.637  1.8491 -1.6582 -1.9719
  161MOL    H1448334   1.868   0.081   7.271 -0.7652  0.7397  2.9899
  161MOL    H1548335   1.693   0.060   7.282  0.5471  1.0773  3.7091
  161MOL    H1648336   1.693   7.776   7.187 -1.0034  0.8213 -3.2553
  161MOL    C1748337   1.794   7.893   7.430  0.1284 -0.0577 -0.8741
  161MOL    O1848338   1.742   0.050   7.514 -0.1666  0.1199  0.6431
  161MOL    C1948339   1.833   0.129   7.568  0.2738 -0.1405  0.0249
  161MOL    O2048340   1.957   0.113   7.572  0.2455  0.4189 -0.2347
  161MOL    C2148341   1.778   0.264   7.604 -0.0662 -0.4457  0.1537
  161MOL    C2248342   1.765   0.297   7.754 -0.4746  0.1921 -0.5975
  161MOL    C2348343   1.716   7.754   7.457  0.4486  0.3869 -0.0454
  161MOL    H2448344   1.896   7.865   7.459  0.0554 -0.7682 -1.2818
  161MOL    H2548345   1.842   0.341   7.562 -1.3265  0.7193  0.3222
  161MOL    H2648346   1.675   0.260   7.568 -0.1348  1.7432  0.0255
  161MOL    H2748347   1.845   0.366   7.782  0.4514 -1.4388  0.8661
  161MOL    H2848348   1.669   0.343   7.778 -0.1021 -0.4212  2.2496
  161MOL    H2948349   1.778   0.203   7.808 -2.2465 -0.0240 -0.4942
  161MOL    H3048350   1.768   7.683   7.393 -0.4315 -1.4792  1.2813
  161MOL    H3148351   1.741   7.721   7.557 -3.0047 -1.1188  0.3808
  161MOL    C3248352   1.562   7.757   7.448  0.5239 -0.4514  1.0274
  161MOL    O3348353   1.519   7.626   7.435  0.7062  0.3907  0.0784
  161MOL    C3448354   1.440   7.581   7.332  0.3766 -0.4017 -0.0990
  161MOL    O3548355   1.425   7.636   7.225  0.6995 -0.2715 -0.3263
  161MOL    C3648356   1.404   7.428   7.335 -0.4593  0.2777 -0.6435
  161MOL    C3748357   1.528   7.342   7.367  0.1144 -1.0711 -0.1117
  161MOL    C3848358   1.488   7.806   7.568 -0.0198  0.0376 -0.3147
  161MOL    H3948359   1.528   7.823   7.368 -2.0539 -0.7879  1.8024
  161MOL    H4048360   1.337   7.410   7.419  3.3384 -2.0173  2.0039
  161MOL    H4148361   1.341   7.400   7.250 -2.2349 -0.9531  1.0280
  161MOL    H4248362   1.543   7.338   7.475 -0.1622  0.0739 -0.0262
  161MOL    H4348363   1.509   7.243   7.325 -1.7519 -0.2960 -1.1855
  161MOL    H4448364   1.615   7.384   7.318 -0.1216 -1.3630 -0.7892
  161MOL    H4548365   1.485   7.739   7.654  0.5140  1.1311  0.5714
  161MOL    H4648366   1.532   7.898   7.606  0.1673  0.2794 -1.1230
  161MOL    C4748367   1.336   7.838   7.527  0.4989  0.1102 -0.3368
  161MOL    O4848368   1.254   7.819   7.649  0.4297 -0.1508 -0.6921
  161MOL    C4948369   1.208   7.704   7.685 -0.7792 -0.7000 -0.1388
  161MOL    O5048370   1.235   7.603   7.620 -0.2867  0.0751 -0.4091
  161MOL    C5148371   1.126   7.710   7.812 -0.3002 -0.2508  0.3051
  161MOL    C5248372   1.106   7.567   7.873 -0.5838 -0.3662 -0.7448
  161MOL    C5348373   1.319   0.041   7.485  0.2938  0.2200  0.0045
  161MOL    H5448374   1.299   7.776   7.445  2.4921 -2.1341  0.4040
  161MOL    H5548375   1.156   7.787   7.883 -0.8665 -1.0998  1.4786
  161MOL    H5648376   1.028   7.728   7.768  0.0295 -1.5926 -1.0056
  161MOL    H5748377   1.207   7.537   7.902  0.0224  1.6558 -0.6375
  161MOL    H5848378   1.049   7.567   0.021  1.2576  2.2226  0.4676
  161MOL    H5948379   1.068   7.495   7.800 -0.4116  1.4001 -2.6299
  161MOL    H6048380   1.391   0.068   7.408  0.4840  1.7238  0.7003
  161MOL    H6148381   1.231   0.044   7.421 -0.6420  0.8085  1.3068
  161MOL    C6248382   1.298   0.144   7.597 -0.3327 -0.3574  0.2944
  161MOL    O6348383   1.406   0.141   7.691 -0.2692  0.7995  0.0817
  161MOL    C6448384   1.383   0.122   7.823 -0.0806 -0.3305  0.1189
  161MOL    O6548385   1.280   0.087   7.873  1.1327  0.2611 -0.1169
  161MOL    C6648386   1.504   0.132   7.910 -0.1220  0.1637 -0.3994
  161MOL    C6748387   1.466   0.137   0.114 -0.2223  0.0460 -1.1249
  161MOL    C6848388   1.287   0.287   7.536  0.3675 -0.2304 -0.4837
  161MOL    H6948389   1.205   0.116   7.648  0.0956  0.3988  1.5181
  161MOL    H7048390   1.578   0.056   7.886  1.1410  0.1118  3.3871
  161MOL    H7148391   1.549   0.230   7.901  0.9246 -0.2953 -0.2111
  161MOL    H7248392   1.389   0.205   0.149 -0.4131 -0.6658 -0.1408
  161MOL    H7348393   1.430   0.041   0.153  0.2560  0.1279 -0.4620
  161MOL    H7448394   1.553   0.151   0.179 -2.9988  1.9497  2.3912
  161MOL    H7548395   1.300   0.368   7.608 -1.7852 -1.8645  1.8269
  161MOL    H7648396   1.380   0.288   7.480 -0.0025 -0.4351 -1.1130
  161MOL    C7748397   1.169   0.308   7.443  0.0581  0.1044 -0.5246
  161MOL    O7848398   1.058   0.313   7.527  0.5101 -0.3388 -0.4424
  161MOL    C7948399   0.945   0.235   7.512 -0.6326  0.1666  0.6582
  161MOL    O8048400   0.927   0.175   7.406 -0.0848  0.1470 -0.5942
  161MOL    C8148401   0.866   0.214   7.638  0.6133  0.3410 -0.1137
  161MOL    C8248402   0.917   0.076   7.696  0.0691 -0.7401  0.0777
  161MOL    C8348403   1.179   0.443   7.373  0.1996  0.0682  0.3347
  161MOL    H8448404   1.152   0.240   7.360  1.1952  0.3537 -0.9715
  161MOL    H8548405   0.897   0.289   7.711  2.2995 -0.4430 -0.0150
  161MOL    H8648406   0.758   0.210   7.624  0.5520 -0.5553  0.5821
  161MOL    H8748407   0.848   0.039   7.771 -1.2729 -0.3693 -0.9392
  161MOL    H8848408   0.926   0.000   7.618 -0.1696 -1.4866  0.7758
  161MOL    H8948409   1.007   0.102   7.751 -1.2567  0.1042  1.8752
  161MOL    H9048410   1.087   0.457   7.316  1.4791  0.5633 -1.6613
  161MOL    H9148411   1.173   0.524   7.446 -0.0477  0.9287 -0.6280
  161MOL    C9248412   1.297   0.452   7.278  0.1951  1.2008  0.0567
  161MOL    O9348413   1.275   0.350   7.179  0.4661 -0.1356 -0.2574
  161MOL    C9448414   1.378   0.260   7.157  0.2500 -0.3294  0.2183
  161MOL    O9548415   1.493   0.268   7.208  0.0987 -0.3687 -0.3550
  161MOL    C9648416   1.335   0.155   7.059 -0.2356  0.0375  0.2289
  161MOL    C9748417   1.318   0.019   7.126  0.5460  0.4846  0.1043
  161MOL    C9848418   1.317   0.586   7.206 -0.3672  0.1400 -0.7843
  161MOL    H9948419   1.386   0.433   7.337  0.7555  1.2100 -0.7895
  161MOL   H10048420   1.255   0.197   6.998  0.6610  2.4772  0.7106
  161MOL   H10148421   1.400   0.149   6.972 -1.0992  1.8169 -0.5429
  161MOL   H10248422   1.230   0.009   7.190 -1.2176  0.9974 -2.1757
  161MOL   H10348423   1.310   7.886   7.049  3.5310  0.2774 -0.0282
  161MOL   H10448424   1.408   7.934   7.179 -1.6495 -1.2226  3.0689
  161MOL   H10548425   1.385   0.578   7.121  2.6771  1.6809  1.4655
  161MOL   H10648426   1.213   0.613   7.186  0.6122  3.5390 -1.5287
  161MOL   C10748427   1.381   0.693   7.293 -0.7878 -0.0644  0.4796
  161MOL   O10848428   1.510   0.651   7.334  0.4109  0.1620 -0.8858
  161MOL   C10948429   1.622   0.669   7.265  0.7801  0.2895  0.4382
  161MOL   O11048430   1.632   0.719   7.152 -0.3190 -0.5253  0.0563
  161MOL   C11148431   1.747   0.636   7.346  0.1654  0.4603 -0.0525
  161MOL   C11248432   1.843   0.748   7.373  0.2942  0.3255  0.1067
  161MOL   C11348433   1.367   0.844   7.260  0.3495 -0.7407 -0.4588
  161MOL   H11448434   1.338   0.683   7.393 -0.7961 -1.1390  0.3787
  161MOL   H11548435   1.717   0.603   7.446  0.1356  1.1551  0.1663
  161MOL   H11648436   1.815   0.565   7.297 -0.3763 -0.1999  0.1422
  161MOL   H11748437   1.947   0.717   7.384  0.5003  0.3185 -1.7303
  161MOL   H11848438   1.834   0.827   7.298  0.1993  1.0991  0.9269
  161MOL   H11948439   1.819   0.796   7.468 -1.4654  0.2293 -0.2809
  161MOL   H12048440   1.414   0.861   7.163 -1.1611  1.9231 -0.7703
  161MOL   H12148441   1.266   0.860   7.221  0.0702 -0.9299  0.1771
  161MOL   C12248442   1.417   0.941   7.372  0.2689 -0.3062 -0.4050
  161MOL   O12348443   1.447   1.059   7.298  0.0067 -0.2203 -0.5373
  161MOL   C12448444   1.573   1.091   7.264 -0.2122 -0.6960  0.5819
  161MOL   O12548445   1.675   1.016   7.272  0.0607  0.1126  0.1520
  161MOL   C12648446   1.582   1.226   7.195 -0.4403  0.2310  0.5376
  161MOL   C12748447   1.576   1.341   7.289 -0.6780  0.9290  0.2435
  161MOL   C12848448   1.309   0.968   7.478 -1.2528  0.1576 -0.0079
  161MOL   H12948449   1.512   0.912   7.418  0.8397  2.3020  0.1047
  161MOL   H13048450   1.679   1.222   7.146 -0.6389  0.6316  0.1025
  161MOL   H13148451   1.500   1.237   7.125 -0.2790  0.5546  0.3953
  161MOL   H13248452   1.558   1.440   7.248 -2.3329  0.8841  0.8323
  161MOL   H13348453   1.496   1.327   7.362 -0.2481 -0.7422  0.4192
  161MOL   H13448454   1.672   1.343   7.340 -1.9465  0.2371  2.7168
  161MOL   H13548455   1.331   1.053   7.542  1.2360  0.3326 -1.0406
  161MOL   H13648456   1.227   1.006   7.417  0.4916  1.1351 -1.8067
  161MOL   C13748457   1.273   0.856   7.582 -0.1557  0.1435  0.4830
  161MOL   O13848458   1.389   0.822   7.662 -0.2227 -0.0971  0.5005
  161MOL   C13948459   1.434   0.694   7.656  0.3821  0.8325 -0.8777
  161MOL   O14048460   1.377   0.592   7.613  0.4175  0.3117 -0.4434
  161MOL   C14148461   1.575   0.683   7.719 -0.6376  0.2661  0.7662
  161MOL   C14248462   1.640   0.813   7.777 -0.0509  0.0758  0.1066
  161MOL   C14348463   1.155   0.882   7.676  0.1145 -0.0670  0.5034
  161MOL   H14448464   1.244   0.775   7.515  2.3746 -0.9786  0.6783
  161MOL   H14548465   1.576   0.607   7.798  1.9262  1.1241  1.5962
  161MOL   H14648466   1.639   0.637   7.644 -0.9609 -0.2638  0.8122
  161MOL   H14748467   1.721   0.782   7.844  1.5438  0.7961 -1.4649
  161MOL   H14848468   1.684   0.890   7.713 -0.6322 -0.9601 -1.5636
  161MOL   H14948469   1.569   0.872   7.835  1.5484  1.1449  1.0499
  161MOL   H15048470   1.152   0.805   7.753 -0.7172 -0.4108  0.1338
  161MOL   H15148471   1.180   0.969   7.737 -0.8017 -0.7788  1.9215
  161MOL   C15248472   1.016   0.904   7.615 -0.1017 -0.1435 -0.1729
  161MOL   O15348473   0.957   0.771   7.596 -0.2193  0.1972 -0.6715
  161MOL   C15448474   0.948   0.706   7.479 -0.1452 -0.1992 -0.2340
  161MOL   O15548475   0.989   0.742   7.369 -0.6007  0.7245 -0.0209
  161MOL   C15648476   0.854   0.585   7.493 -0.5710  0.1046  0.0413
  161MOL   C15748477   0.709   0.626   7.508 -0.6370  0.3350  0.1229
  161MOL   C15848478   0.915   0.975   7.707  0.3623 -0.4140 -0.5001
  161MOL   H15948479   1.039   0.961   7.525  0.1876  1.6820  1.0327
  161MOL   H16048480   0.865   0.518   7.408 -2.2980  3.4598 -2.9787
  161MOL   H16148481   0.879   0.541   7.589 -1.0107  0.0813  0.1446
  161MOL   H16248482   0.654   0.586   7.423 -1.5738  0.5650  0.6132
  161MOL   H16348483   0.656   0.587   7.595 -2.1385  0.4709 -0.7146
  161MOL   H16448484   0.695   0.735   7.506 -0.4415  0.3553 -0.2157
  161MOL   H16548485   0.825   0.983   7.647 -0.5652 -1.5310  0.7081
  161MOL   H16648486   0.884   0.935   7.804 -3.0917  2.9940 -0.0796
  161MOL   C16748487   0.955   1.122   7.736  0.4402  0.4850 -0.1469
  161MOL   O16848488   0.972   1.193   7.619 -0.4344  0.3328  0.0120
  161MOL   C16948489   1.085   1.274   7.606 -0.3073  0.4393 -0.5991
  161MOL   O17048490   1.180   1.285   7.683  0.4438  0.8905 -0.2024
  161MOL   C17148491   1.080   1.346   7.476 -0.3526  0.3930  1.0201
  161MOL   C17248492   1.161   1.269   7.376  0.2432 -0.6725 -0.2357
  161MOL   C17348493   0.853   1.193   7.823 -0.1140 -0.4126  0.2553
  161MOL   H17448494   1.049   1.116   7.792  1.0389  0.2229 -1.1582
  161MOL   H17548495   0.974   1.356   7.450 -0.3467  0.7963  1.1511
  161MOL   H17648496   1.112   1.449   7.490 -2.1583  0.9688  1.1366
  161MOL   H17748497   1.154   1.323   7.282  0.7882  0.7656  0.5390
  161MOL   H17848498   1.265   1.269   7.407 -0.6164 -0.2167  2.7893
  161MOL   H17948499   1.118   1.171   7.358  3.2349 -1.8283 -1.3589
  161MOL   H18048500   0.895   1.293   7.831 -0.0726 -0.4395  0.3717
  161MOL   H18148501   0.763   1.192   7.760 -0.7938  1.3604  1.1428
  161MOL   C18248502   0.814   1.137   0.015 -0.2310  0.3059 -0.0466
  161MOL   O18348503   0.925   1.161   0.103  0.1778  0.1720 -0.5972
  161MOL   C18448504   1.011   1.060   0.132  0.2658  0.0201 -0.2876
  161MOL   O18548505   1.001   0.943   0.097  0.0023 -0.1874 -0.0356
  161MOL   C18648506   1.128   1.106   0.215 -0.0032 -0.2974 -0.4040
  161MOL   C18748507   1.207   1.208   0.131 -0.0880  0.1003 -0.1919
  161MOL   C18848508   0.690   1.196   0.077 -0.1967  0.5324  0.5165
  161MOL   H18948509   0.795   1.031   7.945 -1.0230  0.4228  0.1268
  161MOL   H19048510   1.083   1.142   0.308  0.1366  1.3659 -0.9748
  161MOL   H19148511   1.194   1.023   0.244  1.1562  1.2401  1.5143
  161MOL   H19248512   1.149   1.291   0.090 -2.5001  0.0100  2.8386
  161MOL   H19348513   1.273   1.259   0.201 -0.5929  1.5265 -0.7322
  161MOL   H19448514   1.256   1.156   0.049  0.0918 -1.1553  0.6905
  161MOL   H19548515   0.698   1.162   0.180  2.4960 -0.9644 -0.1351
  161MOL   H19648516   0.699   1.304   0.081 -0.1570  0.7315 -3.4479
  161MOL   C19748517   0.564   1.152   7.945  0.7951 -0.5760  0.7850
  161MOL   O19848518   0.534   1.017   0.025  0.2177 -0.2210  0.2364
  161MOL   C19948519   0.544   0.921   7.868 -0.2978 -0.2009  0.1879
  161MOL   O20048520   0.572   0.942   7.751  0.4762 -0.0981  0.7275
  161MOL   C20148521   0.523   0.783   7.928 -0.4798  0.2870  0.2672
  161MOL   C20248522   0.642   0.737   0.067  0.0271  0.0276 -0.5385
  161MOL   C20348523   0.445   1.242   0.052 -0.1595 -0.3652 -0.1235
  161MOL   H20448524   0.566   1.163   7.836 -0.5086  0.2215  0.8229
  161MOL   H20548525   0.434   0.800   0.043 -0.1766  3.3876 -0.0721
  161MOL   H20648526   0.499   0.706   7.854 -0.8408  2.3805 -1.8768
  161MOL   H20748527   0.602   0.648   0.116 -1.5089 -0.7461 -3.0414
  161MOL   H20848528   0.726   0.702   0.007  0.5922 -0.9209  0.8082
  161MOL   H20948529   0.663   0.814   0.141  1.7179 -0.9865  0.0629
  161MOL   H21048530   0.350   1.188   0.046 -0.2598 -0.1407 -0.6589
  161MOL   H21148531   0.448   1.260   0.159 -0.3380 -0.4486 -0.1037
  161MOL   C21248532   0.439   1.377   7.921 -0.5753 -0.3047  0.1662
  161MOL   O21348533   0.395   1.349   7.787  1.0220 -0.4574 -0.1290
  161MOL   C21448534   0.481   1.354   7.686  0.1577 -0.2869 -0.1122
  161MOL   O21548535   0.597   1.387   7.696  0.0676 -0.3725 -0.2044
  161MOL   C21648536   0.415   1.312   7.555 -0.4442 -0.0820  0.3933
  161MOL   C21748537   0.494   1.364   7.437  1.3072  0.6715  0.2204
  161MOL   C21848538   0.330   1.477   0.028  0.6726  0.3368  0.2186
  161MOL   H21948539   0.535   1.427   7.927  0.1255 -1.3438 -1.9620
  161MOL   H22048540   0.433   1.205   7.549  0.3133  0.1911 -3.0808
  161MOL   H22148541   0.307   1.326   7.542 -0.4655  1.3374  1.8645
  161MOL   H22248542   0.522   1.468   7.457  2.4799  0.4603 -0.3495
  161MOL   H22348543   0.586   1.310   7.420  0.5418 -1.1016  1.5483
  161MOL   H22448544   0.432   1.366   7.347  0.6851 -2.4723  0.5192
  161MOL   H22548545   0.235   1.423   0.021 -0.9905  3.4294 -2.9544
  161MOL   H22648546   0.340   1.481   0.136  1.1835  2.1983  0.1193
  161MOL   C22748547   0.330   1.615   7.908  0.0667  0.8408  0.6730
  161MOL   O22848548   0.293   1.616   7.766 -0.1953 -0.3852 -0.4208
  161MOL   C22948549   0.346   1.708   7.676  0.1941 -0.2936 -0.3643
  161MOL   O23048550   0.419   1.798   7.714 -0.2581  0.4257  0.0848
  161MOL   C23148551   0.299   1.690   7.529 -0.3972  0.0950  0.1726
  161MOL   C23248552   0.151   1.638   7.506 -0.3089 -0.3142  0.1692
  161MOL   C23348553   0.240   1.718   0.032 -0.3336  0.0041  0.0897
  161MOL   H23448554   0.430   1.657   7.916 -0.1269  1.7862 -1.6068
  161MOL   H23548555   0.305   1.781   7.469  0.0346  0.1193  0.2560
  161MOL   H23648556   0.375   1.617   7.500 -1.2543 -0.3099 -1.1225
  161MOL   H23748557   0.152   1.529   7.511 -1.1396 -0.2512  2.5005
  161MOL   H23848558   0.096   1.659   7.598 -0.2240 -1.2070  0.4276
  161MOL   H23948559   0.091   1.689   7.432  0.1233 -0.9669 -0.6402
  161MOL   H24048560   0.212   1.793   7.903  0.5617  0.4619  0.2020
  161MOL   H24148561   0.150   1.661   0.057 -1.9836  1.0167 -3.3387
  161MOL   C24248562   0.299   1.789   0.156  0.2611  0.3217 -0.0199
  161MOL   O24348563   0.375   1.896   0.099 -0.3165  0.1833  0.1084
  161MOL   C24448564   0.498   1.918   0.143  0.1625 -0.7077 -0.1966
  161MOL   O24548565   0.567   1.853   0.215  0.1879 -0.6278  0.7364
  161MOL   C24648566   0.545   2.054   0.093  0.0632  0.1560  0.0014
  161MOL   C24748567   0.633   2.032   7.921 -0.1127  0.8551 -0.1543
  161MOL   C24848568   0.198   1.844   0.267 -0.6785  0.8381  0.8713
  161MOL   H24948569   0.360   1.712   0.203 -0.6161 -0.2737  0.1426
  161MOL   H25048570   0.459   2.116   0.070  0.8977  0.8017 -1.4021
  161MOL   H25148571   0.614   2.086   0.172  1.0972 -2.9026  0.4238
  161MOL   H25248572   0.657   2.127   7.873  2.4236  1.1632  1.6110
  161MOL   H25348573   0.719   1.974   0.009 -1.6070 -2.1332 -1.3559
  161MOL   H25448574   0.581   1.964   7.854  0.5381 -1.2496  1.4469
  161MOL   H25548575   0.178   1.758   0.332  0.8442 -0.4359 -0.3235
  161MOL   H25648576   0.254   1.911   0.332  1.6940 -0.2439 -0.0111
  161MOL   C25748577   0.061   1.897   0.225 -0.3210 -0.2798 -0.6484
  161MOL   O25848578   7.902   1.897   0.325  0.6510 -0.7703  0.3858
  161MOL   C25948579   7.912   1.955   0.441  0.1424 -0.3269  0.5333
  161MOL   O26048580   0.062   2.019   0.479 -0.0594  0.0112  0.0492
  161MOL   C26148581   7.779   1.972   0.517  0.0109  0.2225  0.0147
  161MOL   C26248582   7.679   2.068   0.464  0.7776 -0.7095 -0.0241
  161MOL   C26348583   0.072   2.030   0.152 -0.3296  0.3132  0.1985
  161MOL   H26448584   0.017   1.826   0.155  0.0377  0.4061 -1.5732
  161MOL   H26548585   7.734   1.873   0.516 -0.1657  0.3139 -0.8950
  161MOL   H26648586   7.802   1.988   0.623  0.5059 -3.2314  0.4998
  161MOL   H26748587   7.612   2.019   0.393  0.0675 -1.4021  1.1192
  161MOL   H26848588   7.630   2.137   0.532  0.2041 -2.1558  1.0576
  161MOL   H26948589   7.734   2.132   0.395  0.1089 -0.8402 -0.6911
  161MOL   H27048590   0.075   2.104   0.232 -1.5035  0.1890  0.3755
  161MOL   H27148591   0.168   2.039   0.102 -0.4200 -0.5242 -0.1279
  161MOL   C27248592   7.894   2.052   0.061 -0.4257  0.0935  0.4539
  161MOL   O27348593   7.886   2.189   0.025  0.1229 -0.3830 -0.4736
  161MOL   C27448594   7.772   2.264   0.054  0.5403 -0.5045 -0.4908
  161MOL   O27548595   7.675   2.213   0.110  0.4433 -0.3541  0.0850
  161MOL   C27648596   7.777   2.411   7.936 -0.2208  0.2043  0.0574
  161MOL   C27748597   7.680   2.513   0.048 -0.0200 -0.4351 -0.7340
  161MOL   C27848598   7.907   1.966   7.874  0.2385 -0.0996  0.1354
  161MOL   H27948599   7.801   2.018   0.108 -0.8171 -2.1890 -1.8435
  161MOL   H28048600   7.879   2.446   0.010 -0.3039  0.7629 -0.5466
  161MOL   H28148601   7.764   2.397   7.829  0.9834  0.9220 -0.1888
  161MOL   H28248602   7.681   2.510   0.157  0.5647  0.7173 -0.6982
  161MOL   H28348603   7.697   2.617   0.018  0.9431 -0.8252 -1.5760
  161MOL   H28448604   7.579   2.497   0.009  0.0980  1.2913 -1.8081
  161MOL   H28548605   0.057   1.990   7.826 -0.1322 -0.0080 -0.5419
  161MOL   H28648606   7.907   1.863   7.911 -0.4052 -0.7001 -1.5318
  161MOL   C28748607   7.787   1.976   7.775 -0.9114  0.3755  0.1801
  161MOL   O28848608   7.787   2.095   7.700 -0.0277 -0.7595  0.1167
  161MOL   C28948609   7.680   2.165   7.667  0.1086  0.1813  0.4662
  161MOL   O29048610   7.570   2.158   7.727 -0.0385  0.6179 -0.1160
  161MOL   C29148611   7.707   2.272   7.570 -0.5543 -0.3218 -0.2514
  161MOL   C29248612   7.590   2.373   7.555 -0.6893  0.1629  0.3736
  161MOL   C29348613   7.796   1.863   7.671  0.3065  0.4238  0.0325
  161MOL   H29448614   7.695   1.978   7.833 -0.1242  0.0710  1.4618
  161MOL   H29548615   7.807   2.314   7.573 -0.4672 -0.6398  1.7500
  161MOL   H29648616   7.703   2.246   7.464 -2.8210  1.1472 -0.5712
  161MOL   H29748617   7.593   2.435   7.465 -1.9761 -0.7542 -0.3205
  161MOL   H29848618   7.500   2.313   7.545 -0.8106  0.4963 -0.6287
  161MOL   H29948619   7.567   2.438   7.640  0.6737  2.3931 -0.9133
  161MOL   H30048620   7.704   1.862   7.613 -0.3526 -0.4915  1.0656
  161MOL   H30148621   7.879   1.894   7.608  0.0121  0.6918 -0.2212
  161MOL   H30248622   7.805   1.768   7.725 -3.5929 -0.7068 -1.1006
  162MOL     C148623   3.879   1.146   1.389  0.0448 -0.5543  0.6992
  162MOL     O248624   3.782   1.143   1.285 -0.3625  0.0004  0.1093
  162MOL     C348625   3.668   1.086   1.298  0.0348 -0.1732  0.6836
  162MOL     O448626   3.620   1.046   1.406 -0.5443  0.4602  0.3876
  162MOL     C548627   3.588   1.068   1.164  0.3042  0.2099  0.5598
  162MOL     C648628   3.445   1.014   1.202  0.8126 -0.3772 -0.6539
  162MOL     C748629   3.946   1.013   1.425 -0.2775 -0.4703 -0.4954
  162MOL     H848630   3.821   1.185   1.473 -0.1648 -0.7110  0.6258
  162MOL     H948631   3.580   1.158   1.103  1.5448  0.7621  1.2029
  162MOL    H1048632   3.630   0.992   1.099 -3.6360  0.2026 -2.1284
  162MOL    H1148633   3.457   0.910   1.232 -0.3255 -0.1549  0.6163
  162MOL    H1248634   3.398   1.067   1.284 -1.2760 -1.6689 -0.9926
  162MOL    H1348635   3.380   1.019   1.115  1.1195  4.0436 -0.7477
  162MOL    H1448636   4.006   1.035   1.513  3.0014  1.8831 -3.1931
  162MOL    H1548637   3.868   0.941   1.451 -0.6389  0.0251 -0.2013
  162MOL    H1648638   3.958   1.219   1.372 -1.0646  1.0910  2.4070
  162MOL    C1748639   4.044   0.948   1.319 -0.0402 -0.5037 -0.5512
  162MOL    O1848640   4.153   1.038   1.316  0.1753 -0.3734  0.0616
  162MOL    C1948641   4.192   1.086   1.198  0.0286 -0.3191  0.2461
  162MOL    O2048642   4.145   1.050   1.093 -0.1584  0.5170  0.0626
  162MOL    C2148643   4.297   1.190   1.208 -0.4683 -0.4799 -0.1351
  162MOL    C2248644   4.241   1.324   1.173 -0.1994  0.3130 -0.1781
  162MOL    C2348645   4.095   0.818   1.365 -0.5798 -0.4383  0.1361
  162MOL    H2448646   3.993   0.944   1.223  0.0347  2.5460 -0.7726
  162MOL    H2548647   4.338   1.202   1.309 -1.0665  2.2463 -0.1668
  162MOL    H2648648   4.368   1.159   1.131 -1.4967 -0.4532 -1.1074
  162MOL    H2748649   4.142   1.335   1.218 -0.7133  1.0170 -1.4433
  162MOL    H2848650   4.304   1.408   1.200 -0.6160  0.8507 -0.8613
  162MOL    H2948651   4.229   1.330   1.065 -1.8026 -0.7940 -0.0911
  162MOL    H3048652   4.178   0.796   1.298 -0.0401 -0.2097  0.7232
  162MOL    H3148653   4.137   0.816   1.466  2.0842  0.6349 -0.9060
  162MOL    C3248654   3.983   0.706   1.355  0.8947  0.1286  0.5503
  162MOL    O3348655   3.954   0.686   1.221 -0.0885  0.1583  0.0585
  162MOL    C3448656   3.830   0.705   1.174 -0.6935  0.1038 -0.0718
  162MOL    O3548657   3.725   0.749   1.223 -0.5478  0.6232  0.4684
  162MOL    C3648658   3.835   0.670   1.025  0.2157 -0.4967 -0.3700
  162MOL    C3748659   3.917   0.774   0.948 -0.5684  0.6516 -0.0091
  162MOL    C3848660   4.013   0.573   1.425  0.5795 -0.2365  0.2884
  162MOL    H3948661   3.900   0.747   1.411 -0.4181  1.5295 -2.3242
  162MOL    H4048662   3.880   0.571   1.028  0.7313 -0.2670 -0.5104
  162MOL    H4148663   3.736   0.680   0.980  1.1825 -2.2786 -3.0378
  162MOL    H4248664   3.874   0.874   0.936 -1.6867  0.2940  0.9209
  162MOL    H4348665   4.017   0.778   0.990 -0.3278 -0.1471 -0.4949
  162MOL    H4448666   3.936   0.735   0.848  1.2498 -2.0498  1.3337
  162MOL    H4548667   3.925   0.512   1.405 -0.0545  0.7671 -0.0515
  162MOL    H4648668   4.099   0.525   1.379  1.8812  0.1075  2.3497
  162MOL    C4748669   4.040   0.577   1.574  0.6709  0.0302 -0.7433
  162MOL    O4848670   3.927   0.593   1.660  0.6912 -0.1318  0.0669
  162MOL    C4948671   3.834   0.494   1.683  0.0798  0.5043 -0.0171
  162MOL    O5048672   3.838   0.390   1.622 -0.0804  0.0262  0.1592
  162MOL    C5148673   3.737   0.529   1.801 -0.2040  0.4727 -0.4512
  162MOL    C5248674   3.706   0.411   1.893 -0.2461 -0.7251  0.1114
  162MOL    C5348675   4.134   0.460   1.626 -0.3968 -0.5419 -0.4603
  162MOL    H5448676   4.095   0.670   1.587  1.2537 -0.5367  1.0551
  162MOL    H5548677   3.778   0.612   1.858  0.9139  0.2645 -0.9414
  162MOL    H5648678   3.641   0.560   1.759  0.4131  2.1474 -0.6852
  162MOL    H5748679   3.762   0.321   1.868  3.2049  1.1319  0.7960
  162MOL    H5848680   3.730   0.431   1.997  0.4949  1.3306 -0.4102
  162MOL    H5948681   3.598   0.396   1.898 -0.6164  0.9060 -2.0004
  162MOL    H6048682   4.081   0.365   1.616  0.8383 -1.1419 -1.4832
  162MOL    H6148683   4.221   0.442   1.563  0.5480 -0.9255  0.9288
  162MOL    C6248684   4.186   0.470   1.772 -0.0704 -0.6008  0.3995
  162MOL    O6348685   4.240   0.346   1.802 -0.1854  0.1158 -0.9557
  162MOL    C6448686   4.165   0.247   1.847  0.5696 -0.2931  0.3760
  162MOL    O6548687   4.043   0.242   1.834  0.6777 -0.2063 -0.0090
  162MOL    C6648688   4.240   0.144   1.924  0.4181  0.0566  0.4115
  162MOL    C6748689   4.257   0.010   1.845  0.3406 -0.1261  0.7759
  162MOL    C6848690   4.284   0.578   1.802  0.2569  0.3949  0.1050
  162MOL    H6948691   4.100   0.484   1.837  1.2553 -0.2143  2.1226
  162MOL    H7048692   4.339   0.185   1.945  0.6032  0.0841 -0.5086
  162MOL    H7148693   4.185   0.123   2.017 -1.6516 -0.7163 -0.9441
  162MOL    H7248694   4.181   0.003   1.767 -0.4783 -0.8018  1.6347
  162MOL    H7348695   4.355   0.016   1.798 -0.6942  1.3304 -1.3030
  162MOL    H7448696   4.259   7.862   1.901  3.1442 -1.5710 -1.5684
  162MOL    H7548697   4.385   0.548   1.777 -0.2743 -1.2775 -0.0756
  162MOL    H7648698   4.253   0.671   1.755 -0.5387  0.4500  0.7239
  162MOL    C7748699   4.306   0.624   1.948 -0.0215 -0.1146 -0.2658
  162MOL    O7848700   4.424   0.701   1.945  0.1108  0.1528  0.1605
  162MOL    C7948701   4.505   0.705   2.052 -0.5376  0.3602  0.2389
  162MOL    O8048702   4.494   0.660   2.165  0.1403  0.3167  0.8528
  162MOL    C8148703   4.620   0.798   2.009 -0.7459  0.2168  0.6379
  162MOL    C8248704   4.736   0.800   2.109  0.0581  0.2081 -0.5422
  162MOL    C8348705   4.174   0.694   2.006 -0.2350 -0.4142 -0.0568
  162MOL    H8448706   4.326   0.528   1.994  0.7026  0.1107 -0.1164
  162MOL    H8548707   4.655   0.760   1.913 -0.0161  2.2693  0.0597
  162MOL    H8648708   4.578   0.896   1.988  0.8614  1.2725  2.2225
  162MOL    H8748709   4.829   0.823   2.056  0.6132  0.5495  0.5707
  162MOL    H8848710   4.716   0.875   2.185  1.0701  2.1761 -2.1836
  162MOL    H8948711   4.757   0.704   2.156  0.4924  0.8947  0.6765
  162MOL    H9048712   4.096   0.625   1.975 -0.7247  0.7651 -1.5106
  162MOL    H9148713   4.170   0.698   2.114 -1.8663 -0.6574 -0.0985
  162MOL    C9248714   4.147   0.836   1.959 -0.2813  0.2727  0.1518
  162MOL    O9348715   4.006   0.848   1.952 -0.4791  0.0588 -0.5351
  162MOL    C9448716   3.958   0.917   1.854  0.1293 -0.1096 -0.0279
  162MOL    O9548717   4.030   0.980   1.774  0.4867  0.2753 -0.0076
  162MOL    C9648718   3.811   0.918   1.866 -0.6022 -0.4871 -0.6518
  162MOL    C9748719   3.735   0.908   1.732 -0.5233 -0.2649 -0.5064
  162MOL    C9848720   4.198   0.947   2.058 -0.5094  0.4307 -0.1131
  162MOL    H9948721   4.212   0.851   1.872  0.1543  1.8177  0.7332
  162MOL   H10048722   3.784   0.834   1.930  1.5621 -0.1649  0.7238
  162MOL   H10148723   3.784   1.010   1.917  0.0518 -0.8739  0.3960
  162MOL   H10248724   3.740   0.999   1.673  0.7690  0.1285  0.1880
  162MOL   H10348725   3.767   0.821   1.674  2.9691  1.8848 -1.9694
  162MOL   H10448726   3.628   0.908   1.752 -0.4223  0.9152  0.0991
  162MOL   H10548727   4.112   0.951   2.125  1.4813 -2.1702  2.7810
  162MOL   H10648728   4.266   0.910   2.136 -0.8593  0.2900  0.1275
  162MOL   C10748729   4.229   1.081   1.993 -0.7963  0.6642  0.0624
  162MOL   O10848730   4.254   1.153   2.114 -0.2435 -0.7064  0.3681
  162MOL   C10948731   4.153   1.231   2.167 -0.1763  0.1465  0.2628
  162MOL   O11048732   4.032   1.232   2.125  0.1900 -0.6245  0.7589
  162MOL   C11148733   4.195   1.301   2.296 -0.4696 -0.8919 -1.0855
  162MOL   C11248734   4.077   1.362   2.378 -0.0496 -0.0895  0.1979
  162MOL   C11348735   4.362   1.083   1.918  0.2782  0.0283 -0.4490
  162MOL   H11448736   4.148   1.133   1.943 -3.5800 -1.7347  1.9614
  162MOL   H11548737   4.255   1.229   2.352  1.3972  0.6278 -1.0711
  162MOL   H11648738   4.269   1.379   2.279 -2.6383  1.9655  1.9819
  162MOL   H11748739   3.990   1.297   2.389  1.7928 -2.7050 -0.1485
  162MOL   H11848740   4.113   1.373   2.481  0.4504  0.6341 -0.0470
  162MOL   H11948741   4.055   1.458   2.332  0.9123 -0.1697 -0.4572
  162MOL   H12048742   4.439   1.135   1.975  1.9676 -0.9689 -1.7800
  162MOL   H12148743   4.404   0.984   1.900 -2.6356 -0.4626 -5.6497
  162MOL   C12248744   4.358   1.153   1.781 -0.0614  0.5131 -0.3552
  162MOL   O12348745   4.269   1.263   1.762  0.1007 -0.8637  0.2391
  162MOL   C12448746   4.193   1.275   1.658 -0.2707 -0.1454  0.4752
  162MOL   O12548747   4.207   1.214   1.556  0.4290  0.3551  0.2156
  162MOL   C12648748   4.088   1.384   1.667 -0.2557 -0.9502 -0.3975
  162MOL   C12748749   3.953   1.339   1.719 -0.3961  0.9196 -0.2794
  162MOL   C12848750   4.496   1.218   1.747  0.3371  0.5511 -0.8289
  162MOL   H12948751   4.333   1.069   1.715 -0.7920  1.2801 -1.0666
  162MOL   H13048752   4.119   1.472   1.723 -2.4944 -1.2413  1.3944
  162MOL   H13148753   4.072   1.418   1.565 -2.0155  3.1698  1.1446
  162MOL   H13248754   3.902   1.276   1.647  0.1145 -0.1759  0.3060
  162MOL   H13348755   3.950   1.291   1.817  0.6923 -1.2820 -1.2809
  162MOL   H13448756   3.895   1.430   1.735 -0.4023  0.8555  0.0685
  162MOL   H13548757   4.493   1.280   1.657  1.6253  0.6344 -0.8265
  162MOL   H13648758   4.518   1.291   1.824  0.7162  0.4990 -0.8860
  162MOL   C13748759   4.608   1.119   1.717  0.1965  0.0336 -0.2832
  162MOL   O13848760   4.582   1.062   1.587 -0.1895  0.0441 -0.6347
  162MOL   C13948761   4.528   0.936   1.579 -0.0066  0.1928 -0.2613
  162MOL   O14048762   4.526   0.866   1.678 -0.9269 -0.2846  0.0886
  162MOL   C14148763   4.460   0.903   1.446 -0.5353 -0.2372 -1.0967
  162MOL   C14248764   4.533   0.947   1.315  0.0675  0.9324 -0.1164
  162MOL   C14348765   4.746   1.197   1.721 -0.3127  0.6256  0.0959
  162MOL   H14448766   4.625   1.047   1.796  0.4276 -1.1527 -1.4016
  162MOL   H14548767   4.447   0.795   1.448 -2.3552 -0.0464 -1.0316
  162MOL   H14648768   4.358   0.942   1.447 -0.4982 -0.0921  2.4922
  162MOL   H14748769   4.486   0.896   1.231  0.0828 -1.6422  1.3932
  162MOL   H14848770   4.523   1.054   1.301  0.5638  1.0617  0.4932
  162MOL   H14948771   4.639   0.919   1.312 -0.7357 -2.2181 -1.4163
  162MOL   H15048772   4.741   1.288   1.661  1.1009  0.2225 -0.6727
  162MOL   H15148773   4.757   1.228   1.825  3.1309  1.8482 -0.5677
  162MOL   C15248774   4.875   1.109   1.689  0.2833 -0.5074  0.1424
  162MOL   O15348775   4.977   1.207   1.678 -0.7550 -0.1420  0.0573
  162MOL   C15448776   5.072   1.189   1.585 -0.1778  0.3994  0.7073
  162MOL   O15548777   5.075   1.096   1.509  0.0695  0.5102  0.1778
  162MOL   C15648778   5.191   1.283   1.581  0.1990 -0.6722  0.2233
  162MOL   C15748779   5.320   1.197   1.582 -0.0013  0.2410  0.5247
  162MOL   C15848780   4.922   1.007   1.802  0.3322  0.3743  0.1016
  162MOL   H15948781   4.862   1.066   1.590 -1.0015 -0.1990  0.1600
  162MOL   H16048782   5.173   1.346   1.494  0.7262  0.6549  1.0631
  162MOL   H16148783   5.193   1.340   1.674  0.6132  1.5206 -1.0879
  162MOL   H16248784   5.330   1.121   1.660  0.0345  1.7463  2.0265
  162MOL   H16348785   5.345   1.145   1.489 -3.4712 -2.0810  0.7962
  162MOL   H16448786   5.398   1.272   1.597 -0.3627  0.1148  3.4927
  162MOL   H16548787   4.971   1.062   1.882  0.9576 -0.7654  0.5056
  162MOL   H16648788   4.839   0.954   1.849  0.0370  0.5033 -0.2686
  162MOL   C16748789   5.031   0.905   1.758 -0.4785 -0.1838  0.6165
  162MOL   O16848790   5.054   0.830   1.876  0.0356 -0.5948  0.1820
  162MOL   C16948791   5.175   0.841   1.947  0.0375  0.5206 -0.2304
  162MOL   O17048792   5.268   0.902   1.900 -0.4295 -0.0556  0.3205
  162MOL   C17148793   5.177   0.775   2.085  0.3802  0.0374  0.6554
  162MOL   C17248794   5.320   0.726   2.106 -0.4598  0.1990 -0.1490
  162MOL   C17348795   4.979   0.819   1.644 -0.3846 -0.6313 -0.0389
  162MOL   H17448796   5.117   0.963   1.724 -0.1512 -1.8194 -1.4324
  162MOL   H17548797   5.157   0.854   2.157  0.8088 -0.4006  1.2656
  162MOL   H17648798   5.102   0.697   2.089 -0.6449  0.8033 -2.6783
  162MOL   H17748799   5.396   0.803   2.095 -0.5108  0.2508 -0.1392
  162MOL   H17848800   5.334   0.708   2.213  0.6775  0.3861 -0.2594
  162MOL   H17948801   5.348   0.638   2.049  1.7864  1.0007 -0.3086
  162MOL   H18048802   4.892   0.761   1.675 -1.1836  0.7897  0.4069
  162MOL   H18148803   4.942   0.878   1.560  0.9756  0.4086  0.0813
  162MOL   C18248804   5.077   0.708   1.589 -0.2851  0.4585  0.1244
  162MOL   O18348805   5.022   0.667   1.467 -0.3788  0.3631  0.3635
  162MOL   C18448806   4.910   0.592   1.444  0.0249 -0.5588 -0.1884
  162MOL   O18548807   4.848   0.539   1.536  0.3172  0.0875  0.3060
  162MOL   C18648808   4.870   0.579   1.299  0.1817 -0.2639  0.1421
  162MOL   C18748809   4.824   0.713   1.233 -0.2881  0.2797  0.3061
  162MOL   C18848810   5.212   0.769   1.554 -1.0448 -0.1630 -0.2607
  162MOL   H18948811   5.095   0.626   1.659 -1.0592 -0.1291 -0.3620
  162MOL   H19048812   4.951   0.542   1.235  1.0415  0.5580  0.7482
  162MOL   H19148813   4.796   0.499   1.296  0.0170 -0.1170  0.2866
  162MOL   H19248814   4.837   0.697   1.126 -2.8202 -2.4657  0.3346
  162MOL   H19348815   4.716   0.725   1.241 -0.3624 -0.0201 -0.2285
  162MOL   H19448816   4.875   0.805   1.261 -0.9432  0.3671  1.2580
  162MOL   H19548817   5.204   0.854   1.487 -0.8926 -0.6719 -0.9298
  162MOL   H19648818   5.256   0.804   1.647  0.6796 -1.4436 -0.5823
  162MOL   C19748819   5.312   0.668   1.495 -1.3473 -0.9616 -0.4153
  162MOL   O19848820   5.277   0.660   1.356 -0.3904 -0.4503 -0.3784
  162MOL   C19948821   5.253   0.542   1.295  0.3096  0.4726  0.0975
  162MOL   O20048822   5.250   0.429   1.350 -0.4154  0.4404  0.8172
  162MOL   C20148823   5.220   0.556   1.145 -0.5532 -0.2284  0.4840
  162MOL   C20248824   5.152   0.688   1.102  0.0812 -0.0439 -0.0154
  162MOL   C20348825   5.457   0.714   1.503 -0.2852  0.2344 -0.3162
  162MOL   H20448826   5.298   0.580   1.557 -1.1444  0.4264  1.6420
  162MOL   H20548827   5.314   0.549   1.092 -0.5463  0.6996  0.3624
  162MOL   H20648828   5.156   0.470   1.126 -1.1832  0.2839  0.2707
  162MOL   H20748829   5.224   0.741   1.039 -1.2492 -0.8673 -2.2907
  162MOL   H20848830   5.071   0.662   1.033 -0.9588  1.0581  0.7587
  162MOL   H20948831   5.108   0.737   1.189  1.3817 -0.1045  0.6806
  162MOL   H21048832   5.514   0.646   1.439  0.1321 -0.2255  0.5305
  162MOL   H21148833   5.472   0.809   1.453 -0.3732 -0.2176 -1.2126
  162MOL   C21248834   5.524   0.720   1.646  0.1960 -0.1487 -0.4846
  162MOL   O21348835   5.554   0.587   1.679  0.2017  0.1496  0.5377
  162MOL   C21448836   5.475   0.510   1.757 -0.9347  0.7718  0.5740
  162MOL   O21548837   5.373   0.547   1.813  0.4498  0.2797 -0.4314
  162MOL   C21648838   5.529   0.365   1.765  0.1534 -0.7767 -0.0507
  162MOL   C21748839   5.509   0.284   1.636  0.1600 -0.2432  0.1162
  162MOL   C21848840   5.656   0.807   1.646  0.1948 -0.0143 -0.0466
  162MOL   H21948841   5.453   0.756   1.720  1.0239  2.8644 -1.0921
  162MOL   H22048842   5.636   0.377   1.783  0.2518 -1.1848 -0.3599
  162MOL   H22148843   5.488   0.311   1.851 -0.4899  0.3313  0.3508
  162MOL   H22248844   5.465   0.191   1.671  0.0328 -0.2003  0.0716
  162MOL   H22348845   5.432   0.321   1.568 -0.2959 -1.2346  0.0847
  162MOL   H22448846   5.601   0.261   1.583  3.7363 -1.1628  6.2649
  162MOL   H22548847   5.732   0.760   1.583 -0.0612 -0.4523 -0.0353
  162MOL   H22648848   5.615   0.901   1.610  0.7211 -0.2196 -1.1866
  162MOL   C22748849   5.729   0.838   1.785  0.3815  0.3481  0.3545
  162MOL   O22848850   5.804   0.724   1.819 -0.2510 -0.8519  0.3503
  162MOL   C22948851   5.799   0.666   1.929 -0.5513  1.0313 -0.8280
  162MOL   O23048852   5.733   0.702   2.031  0.2594 -0.4105 -0.2836
  162MOL   C23148853   5.883   0.542   1.929  0.3135  0.4262 -0.3257
  162MOL   C23248854   5.924   0.474   2.067  0.4644  0.2747 -0.1757
  162MOL   C23348855   5.843   0.942   1.769 -0.0379 -0.2472  0.2183
  162MOL   H23448856   5.658   0.864   1.863  0.0693 -1.0366  0.5294
  162MOL   H23548857   5.827   0.470   1.869 -1.0634  1.1012  0.1283
  162MOL   H23648858   5.973   0.563   1.871 -0.2524  0.6477 -1.1399
  162MOL   H23748859   5.838   0.416   2.103  1.5126 -1.1637  0.0368
  162MOL   H23848860   5.996   0.393   2.066 -0.6466 -0.7632  1.5598
  162MOL   H23948861   5.954   0.550   2.139 -0.1619 -1.3238  1.8409
  162MOL   H24048862   5.890   0.952   1.867  4.2184  0.5841 -1.7892
  162MOL   H24148863   5.926   0.898   1.715  2.2274  2.0509  1.6839
  162MOL   C24248864   5.805   1.078   1.722 -0.3997  0.9302  0.3668
  162MOL   O24348865   5.775   1.164   1.824 -0.3419  0.4863  0.1387
  162MOL   C24448866   5.645   1.191   1.840  0.0810 -0.2389  0.5674
  162MOL   O24548867   5.547   1.155   1.771 -0.2227 -0.2765 -0.2662
  162MOL   C24648868   5.632   1.300   1.952  0.1523 -0.1284 -0.4798
  162MOL   C24748869   5.488   1.339   1.966  0.0701 -0.3555  0.0865
  162MOL   C24848870   5.925   1.147   1.645 -0.3017  0.4072 -0.0510
  162MOL   H24948871   5.734   1.062   1.641 -1.2385  1.3045  1.0290
  162MOL   H25048872   5.680   1.278   2.048 -1.9338  0.2345  0.6769
  162MOL   H25148873   5.688   1.383   1.910  0.3828 -0.2199 -0.3554
  162MOL   H25248874   5.473   1.399   1.876  1.1203  0.9348  0.7540
  162MOL   H25348875   5.427   1.249   1.960 -0.5100 -0.0562  1.3182
  162MOL   H25448876   5.462   1.394   2.057 -1.7878 -1.2467  0.1234
  162MOL   H25548877   5.999   1.195   1.708  1.7778 -2.7063 -0.0235
  162MOL   H25648878   5.974   1.064   1.594  0.0263 -0.7963  2.1585
  162MOL   C25748879   5.892   1.237   1.522  0.2442 -1.0231  0.0008
  162MOL   O25848880   5.801   1.345   1.562 -0.6775  0.1730  0.1071
  162MOL   C25948881   5.690   1.359   1.499  0.1085 -0.3150 -0.4085
  162MOL   O26048882   5.648   1.286   1.407 -0.2403  0.0559  0.3333
  162MOL   C26148883   5.602   1.470   1.557 -0.8550  0.6780 -0.3071
  162MOL   C26248884   5.671   1.600   1.571 -0.5482 -0.2601  0.5284
  162MOL   C26348885   6.022   1.293   1.454 -0.3192 -0.0346 -0.1219
  162MOL   H26448886   5.838   1.165   1.461 -2.0880  1.1039 -0.5635
  162MOL   H26548887   5.523   1.489   1.485 -1.0566  1.2276  0.0517
  162MOL   H26648888   5.561   1.429   1.649 -3.1342  2.1305 -0.6221
  162MOL   H26748889   5.708   1.633   1.668 -3.9567 -0.9442  2.1283
  162MOL   H26848890   5.751   1.612   1.498  0.6293  0.2194  1.8793
  162MOL   H26948891   5.597   1.676   1.550  1.5452  1.6801  0.0326
  162MOL   H27048892   6.075   1.351   1.529 -2.3638 -0.0481  1.3872
  162MOL   H27148893   6.080   1.202   1.438 -1.1153 -0.5257 -0.2516
  162MOL   C27248894   6.009   1.353   1.316  0.5047 -0.4495  0.0435
  162MOL   O27348895   6.137   1.401   1.269  0.4010 -0.4458 -0.1512
  162MOL   C27448896   6.148   1.530   1.263 -0.8895  0.1748 -0.4623
  162MOL   O27548897   6.059   1.615   1.269  0.0821 -0.4947 -0.2216
  162MOL   C27648898   6.296   1.565   1.227 -0.5371 -0.9747  0.3597
  162MOL   C27748899   6.315   1.633   1.092  0.0282 -0.3285  1.1845
  162MOL   C27848900   5.965   1.251   1.207 -0.7015 -0.1099 -0.1334
  162MOL   H27948901   5.927   1.425   1.324  0.9814  0.1446 -0.4304
  162MOL   H28048902   6.347   1.612   1.310  1.5598 -1.2463 -0.7453
  162MOL   H28148903   6.351   1.472   1.227 -1.3813 -1.4826  1.5892
  162MOL   H28248904   6.398   1.601   1.030 -0.9660  0.6923 -0.7337
  162MOL   H28348905   6.227   1.620   1.029  1.5003 -0.8864 -0.7971
  162MOL   H28448906   6.329   1.739   1.113 -0.7098  0.3136 -1.3931
  162MOL   H28548907   6.048   1.196   1.162 -0.6848  1.8001 -2.5511
  162MOL   H28648908   5.893   1.182   1.252  1.2381 -0.5772  2.3799
  162MOL   C28748909   5.893   1.308   1.090  0.5051 -0.4907 -0.4594
  162MOL   O28848910   5.873   1.211   0.990  0.3138  0.2873 -0.2072
  162MOL   C28948911   5.957   1.209   0.886  0.3515  0.0959  0.3938
  162MOL   O29048912   6.053   1.286   0.859  0.1378 -0.1227 -0.3605
  162MOL   C29148913   5.930   1.082   0.806 -0.0792  0.4074  0.9988
  162MOL   C29248914   6.038   1.046   0.702 -0.7116 -0.5576 -0.8873
  162MOL   C29348915   5.765   1.400   1.113 -0.1402 -0.8195 -0.4596
  162MOL   H29448916   5.968   1.378   1.052  0.3285 -0.1623 -0.2038
  162MOL   H29548917   5.905   1.007   0.881  1.6170 -0.9844  0.2129
  162MOL   H29648918   5.850   1.110   0.737  0.9029  0.0228 -0.3170
  162MOL   H29748919   6.129   1.005   0.746 -0.2946  1.7970  0.5318
  162MOL   H29848920   6.010   0.949   0.662 -1.4625 -1.6763  2.1871
  162MOL   H29948921   6.051   1.114   0.618  0.0107 -0.3328 -0.5964
  162MOL   H30048922   5.786   1.490   1.172  0.0473 -3.0910  3.0581
  162MOL   H30148923   5.710   1.438   1.027  1.7303  1.8957 -0.5349
  162MOL   H30248924   5.695   1.353   1.182  1.4143 -1.7038  0.5465
  163MOL     C148925   2.310   4.221   7.516  0.3998 -0.1245 -0.0799
  163MOL     O248926   2.178   4.266   7.490 -0.4515 -0.3131  0.0167
  163MOL     C348927   2.078   4.249   7.574 -0.2522 -0.1462  0.3353
  163MOL     O448928   2.072   4.172   7.668 -0.2010  0.6839 -0.2169
  163MOL     C548929   1.956   4.335   7.542 -0.6666  0.6170 -0.3740
  163MOL     C648930   1.988   4.484   7.559  0.3987 -0.0251  0.3797
  163MOL     C748931   2.423   4.275   7.429 -0.1600 -0.8524 -0.0653
  163MOL     H848932   2.302   4.114   7.498 -1.9737  0.2230 -1.3605
  163MOL     H948933   1.946   4.303   7.439 -0.2004  0.1074 -0.2631
  163MOL    H1048934   1.880   4.305   7.615 -0.4647 -0.1818 -0.4907
  163MOL    H1148935   1.995   4.522   7.661 -2.0796 -0.8182  0.8846
  163MOL    H1248936   2.073   4.512   7.497 -0.1935  1.7145  0.3368
  163MOL    H1348937   1.910   4.544   7.512 -1.2113 -0.0213  2.9191
  163MOL    H1448938   2.404   4.260   7.323 -3.0186  0.2154  0.2649
  163MOL    H1548939   2.428   4.384   7.437 -1.9584 -0.7320 -0.5676
  163MOL    H1648940   2.328   4.226   7.623 -0.3007 -0.4215  0.0527
  163MOL    C1748941   2.555   4.217   7.469 -0.1163  0.1535 -0.4201
  163MOL    O1848942   2.550   4.079   7.432  0.0020  0.1682 -0.0499
  163MOL    C1948943   2.550   3.981   7.530 -0.6277 -0.5118 -0.0932
  163MOL    O2048944   2.553   4.001   7.653 -0.0044  0.3107 -0.1530
  163MOL    C2148945   2.543   3.841   7.474 -0.1120 -0.0259 -0.6655
  163MOL    C2248946   2.610   3.832   7.334 -0.4479  0.0227  0.2762
  163MOL    C2348947   2.682   4.279   7.402 -0.7354 -0.2538  0.1669
  163MOL    H2448948   2.563   4.223   7.578  1.4887 -1.1500 -0.4484
  163MOL    H2548949   2.590   3.770   7.542  1.0949  0.5630 -0.8781
  163MOL    H2648950   2.439   3.809   7.474  0.1757 -1.1236  2.1758
  163MOL    H2748951   2.643   3.731   7.314  2.6881  0.8498  1.0636
  163MOL    H2848952   2.525   3.855   7.269 -2.5660  2.5560  3.7397
  163MOL    H2948953   2.694   3.897   7.309 -0.3518 -0.6579 -1.2378
  163MOL    H3048954   2.775   4.230   7.431 -1.2417 -1.8319 -0.7648
  163MOL    H3148955   2.671   4.282   7.294 -1.0911  0.2571  0.2160
  163MOL    C3248956   2.705   4.427   7.431  0.1263 -0.6275 -0.1001
  163MOL    O3348957   2.773   4.426   7.557 -0.2633  0.0062 -0.1258
  163MOL    C3448958   2.754   4.528   7.648 -0.1671 -1.2802  0.4720
  163MOL    O3548959   2.670   4.619   7.633 -0.0298  0.0662  0.0007
  163MOL    C3648960   2.843   4.527   7.766 -0.0104 -0.2538  0.0139
  163MOL    C3748961   2.983   4.580   7.718  0.5770 -0.0708  0.6445
  163MOL    C3848962   2.802   4.491   7.333  0.1756 -0.0109 -0.6612
  163MOL    H3948963   2.618   4.492   7.431  1.5930  1.4011 -0.6849
  163MOL    H4048964   2.810   4.594   7.845  0.0547 -0.2261  0.0170
  163MOL    H4148965   2.867   4.430   7.810 -0.9521 -0.0424  1.0019
  163MOL    H4248966   2.973   4.673   7.662  5.1334  0.4292  0.4758
  163MOL    H4348967   3.052   4.597   7.801 -0.2994  0.2139  1.3213
  163MOL    H4448968   3.027   4.507   7.651  1.8544  0.4529  0.9049
  163MOL    H4548969   2.901   4.445   7.342  0.3931  0.2506 -1.6497
  163MOL    H4648970   2.772   4.461   7.232  0.6055 -0.6276 -0.6063
  163MOL    C4748971   2.817   4.649   7.341 -0.0466 -0.0851  0.3944
  163MOL    O4848972   2.922   4.689   7.249  0.0312 -0.5531  0.1847
  163MOL    C4948973   3.049   4.685   7.282 -0.6144 -0.4470 -0.3183
  163MOL    O5048974   3.102   4.659   7.392 -0.1483  0.5099 -0.2878
  163MOL    C5148975   3.129   4.713   7.154 -0.1569  0.3225 -0.6713
  163MOL    C5248976   3.133   4.603   7.051 -0.4874 -0.1635  0.2921
  163MOL    C5348977   2.688   4.729   7.310  1.0370  0.2649  0.3565
  163MOL    H5448978   2.833   4.665   7.447  1.9769 -0.9811  0.2586
  163MOL    H5548979   3.100   4.804   7.101  0.0863  0.9083  0.1904
  163MOL    H5648980   3.231   4.740   7.182 -0.3688  1.0086 -0.5513
  163MOL    H5748981   3.031   4.579   7.022 -1.2287  1.9841  1.0453
  163MOL    H5848982   3.188   4.627   6.960  0.5217 -0.5702  0.7844
  163MOL    H5948983   3.190   4.523   7.100 -1.3545 -1.5414 -0.9105
  163MOL    H6048984   2.608   4.688   7.371 -0.1372 -0.7836 -1.8586
  163MOL    H6148985   2.695   4.837   7.329  0.1880  0.1467  1.4256
  163MOL    C6248986   2.643   4.712   7.163  0.4314  0.6755 -0.3009
  163MOL    O6348987   2.501   4.730   7.153  0.3135 -0.0763 -0.0927
  163MOL    C6448988   2.419   4.626   7.161 -0.0570  0.8352 -0.4006
  163MOL    O6548989   2.456   4.509   7.170 -0.3184 -0.2487  0.6001
  163MOL    C6648990   2.270   4.667   7.169  0.3151  0.1427 -0.2409
  163MOL    C6748991   2.186   4.564   7.245 -0.2938 -0.3455  0.0460
  163MOL    C6848992   2.714   4.817   7.073 -0.0012 -0.4664 -0.5566
  163MOL    H6948993   2.666   4.613   7.123  0.2732  1.5522 -2.6517
  163MOL    H7048994   2.264   4.767   7.213  0.0635 -0.4120  1.0096
  163MOL    H7148995   2.218   4.698   7.078 -0.1451  0.9325  0.2779
  163MOL    H7248996   2.092   4.611   7.274  0.0251  0.4645 -0.2459
  163MOL    H7348997   2.165   4.470   7.195 -0.4741 -0.0131 -0.4994
  163MOL    H7448998   2.245   4.535   7.332 -0.0307 -1.3605 -0.4554
  163MOL    H7548999   2.654   4.908   7.076  0.9670  0.1341  0.7817
  163MOL    H7649000   2.813   4.849   7.105  0.3409 -2.4304  0.4101
  163MOL    C7749001   2.728   4.774   6.921  0.8513 -0.8248  0.5025
  163MOL    O7849002   2.607   4.706   6.877  0.3676  0.1386  0.0606
  163MOL    C7949003   2.613   4.577   6.849 -0.1605 -0.6257  0.0593
  163MOL    O8049004   2.714   4.505   6.847 -0.1625  0.0495 -0.6742
  163MOL    C8149005   2.476   4.524   6.809  0.8540  0.4177 -0.1379
  163MOL    C8249006   2.401   4.582   6.684 -0.2493  0.0762 -0.6363
  163MOL    C8349007   2.773   4.888   6.823 -0.1606  0.3053  0.4471
  163MOL    H8449008   2.811   4.706   6.901 -0.7577 -1.8120 -3.1730
  163MOL    H8549009   2.497   4.418   6.798  0.7147  0.1105  2.4466
  163MOL    H8649010   2.418   4.518   6.900  0.9454  2.0985  0.0439
  163MOL    H8749011   2.427   4.687   6.674 -1.1162  0.5215  1.3916
  163MOL    H8849012   2.434   4.529   6.595  2.0011 -0.2701  0.3676
  163MOL    H8949013   2.297   4.562   6.708 -0.5839  1.6435 -0.7176
  163MOL    H9049014   2.683   4.944   6.797  1.4738  1.5953 -2.7252
  163MOL    H9149015   2.832   4.961   6.879 -0.1559 -0.3774  1.3245
  163MOL    C9249016   2.841   4.852   6.692  0.5849 -0.3905 -0.3267
  163MOL    O9349017   2.763   4.756   6.619 -0.4140 -0.0053  0.1850
  163MOL    C9449018   2.826   4.664   6.546 -0.9909 -0.0206  0.8889
  163MOL    O9549019   2.943   4.666   6.523  0.0637  0.5131 -0.0244
  163MOL    C9649020   2.734   4.558   6.480  0.4000 -0.1606 -0.2832
  163MOL    C9749021   2.769   4.509   6.345  0.6305  0.4646  1.0330
  163MOL    C9849022   2.856   4.969   6.595  1.0763 -0.1376 -0.2707
  163MOL    H9949023   2.938   4.816   6.726 -0.5430 -1.7140  1.5858
  163MOL   H10049024   2.722   4.464   6.534 -1.9938  1.3171  1.8883
  163MOL   H10149025   2.635   4.601   6.463  0.6051  0.4433  0.0288
  163MOL   H10249026   2.741   4.584   6.271  1.1249 -0.6052 -0.2650
  163MOL   H10349027   2.874   4.491   6.321  0.3937 -0.6114  0.7688
  163MOL   H10449028   2.708   4.421   6.328  1.3328 -0.1752  1.7552
  163MOL   H10549029   2.884   4.932   6.497  0.6216  2.1865 -1.3172
  163MOL   H10649030   2.756   5.002   6.568  0.3887 -3.3132 -1.8332
  163MOL   C10749031   2.952   5.078   6.646 -0.5408  0.1717 -0.4454
  163MOL   O10849032   3.074   5.025   6.686 -0.4037 -0.3426  0.4405
  163MOL   C10949033   3.113   5.038   6.817 -0.2229  0.1364  0.7066
  163MOL   O11049034   3.075   5.114   6.902 -0.1437 -0.2725 -0.3646
  163MOL   C11149035   3.234   4.946   6.843  0.4339  0.8617 -0.4791
  163MOL   C11249036   3.364   4.978   6.768 -0.2181  0.0961 -0.1410
  163MOL   C11349037   2.983   5.174   6.521 -0.4112 -0.8901  0.0985
  163MOL   H11449038   2.900   5.141   6.718 -1.5891  0.8849 -1.7924
  163MOL   H11549039   3.247   4.951   6.951  1.3931 -0.5670 -0.5102
  163MOL   H11649040   3.198   4.850   6.805  0.8710  1.6117 -2.8211
  163MOL   H11749041   3.345   4.980   6.661  0.1434  1.1444 -0.1885
  163MOL   H11849042   3.395   5.080   6.790  0.3581 -0.1936  0.3766
  163MOL   H11949043   3.443   4.907   6.790  0.2730  1.5727  3.0360
  163MOL   H12049044   3.061   5.235   6.567 -1.0002  0.8802 -1.1715
  163MOL   H12149045   3.024   5.121   6.435 -0.1583 -2.6116  1.2604
  163MOL   C12249046   2.872   5.274   6.476  0.7359 -0.1024 -0.3879
  163MOL   O12349047   2.854   5.373   6.571 -0.0398  0.0109  0.2664
  163MOL   C12449048   2.770   5.360   6.670  1.5787  0.0530 -0.6092
  163MOL   O12549049   2.697   5.265   6.697 -0.0715 -0.0496 -0.1883
  163MOL   C12649050   2.763   5.493   6.749  0.1009 -0.8755  0.2065
  163MOL   C12749051   2.669   5.596   6.680 -0.5159  0.0926 -0.7355
  163MOL   C12849052   2.926   5.352   6.358  0.0156  0.6074  0.2212
  163MOL   H12949053   2.781   5.219   6.450  1.1754 -2.3344  2.5095
  163MOL   H13049054   2.732   5.472   6.851  2.4007  0.4066  1.2001
  163MOL   H13149055   2.862   5.538   6.743 -0.8252  0.9523 -2.9598
  163MOL   H13249056   2.706   5.634   6.585 -1.4912  1.1477 -0.6969
  163MOL   H13349057   2.574   5.543   6.665  0.1316 -0.3845 -3.2506
  163MOL   H13449058   2.658   5.683   6.745 -0.4412 -0.4778  0.0586
  163MOL   H13549059   3.019   5.399   6.391 -0.5458  2.0698 -0.2225
  163MOL   H13649060   2.957   5.282   6.281  2.3118 -0.6488  2.2431
  163MOL   C13749061   2.836   5.469   6.311  0.6125  0.0371  0.1538
  163MOL   O13849062   2.901   5.521   6.197  0.0800  0.4695 -0.1354
  163MOL   C13949063   2.985   5.628   6.217 -0.1154 -0.1920  0.0337
  163MOL   O14049064   3.014   5.688   6.324  0.0532  0.3982  0.8117
  163MOL   C14149065   3.053   5.658   6.086  0.0452 -0.7269 -0.3376
  163MOL   C14249066   2.960   5.740   5.986 -0.7775  0.1716 -0.5453
  163MOL   C14349067   2.696   5.424   6.260 -0.3581  0.2872 -0.1591
  163MOL   H14449068   2.820   5.545   6.387 -1.0187  0.5807 -0.6912
  163MOL   H14549069   3.141   5.723   6.092 -1.0974  0.7151  1.3163
  163MOL   H14649070   3.088   5.569   6.034  2.1788  0.5434 -1.1683
  163MOL   H14749071   3.005   5.767   5.890 -2.8108 -1.3499 -1.9688
  163MOL   H14849072   2.877   5.674   5.961  0.4860 -2.1840  1.2882
  163MOL   H14949073   2.939   5.833   6.038 -2.7101 -1.4547  1.6569
  163MOL   H15049074   2.699   5.335   6.197 -2.2200  1.0141 -1.2869
  163MOL   H15149075   2.628   5.394   6.339  0.0741 -2.4173 -0.7563
  163MOL   C15249076   2.615   5.523   6.173  0.3337  0.0933  0.7349
  163MOL   O15349077   2.481   5.477   6.142 -0.1471  0.1889 -0.5077
  163MOL   C15449078   2.427   5.464   6.016 -0.3201  0.4477  0.6324
  163MOL   O15549079   2.477   5.502   5.910  1.5325  0.2986 -0.3735
  163MOL   C15649080   2.301   5.368   6.014  0.2404 -0.4734 -0.3070
  163MOL   C15749081   2.341   5.218   6.017  0.1386 -0.0464  0.8891
  163MOL   C15849082   2.593   5.662   6.225 -0.5685  0.5974  0.1675
  163MOL   H15949083   2.672   5.537   6.082  1.3713  0.6980  1.4695
  163MOL   H16049084   2.226   5.392   6.089  1.6794 -0.2043  1.0761
  163MOL   H16149085   2.258   5.394   5.918 -0.5238  1.7374  0.6149
  163MOL   H16249086   2.364   5.181   5.917 -1.2606  0.3211  0.4195
  163MOL   H16349087   2.431   5.198   6.075 -0.8915 -1.8457  1.9179
  163MOL   H16449088   2.257   5.160   6.055  0.1085 -0.4215  0.2626
  163MOL   H16549089   2.540   5.657   6.319  1.7718 -0.1902  1.4923
  163MOL   H16649090   2.692   5.701   6.250 -0.1043 -1.0780  0.9662
  163MOL   C16749091   2.521   5.766   6.124 -0.3261  0.7913  0.4400
  163MOL   O16849092   2.456   5.876   6.192 -0.2618 -0.3327 -0.3404
  163MOL   C16949093   2.329   5.910   6.179 -0.0197  1.1324  0.1953
  163MOL   O17049094   2.249   5.870   6.092 -0.1160  0.1107 -0.2390
  163MOL   C17149095   2.287   6.029   6.262  0.0530  0.3247  0.0801
  163MOL   C17249096   2.292   5.980   6.405  0.1823  0.3865 -1.1397
  163MOL   C17349097   2.621   5.822   6.022  0.3244  0.4305  0.7562
  163MOL   H17449098   2.443   5.713   6.069  3.6900 -4.2281 -0.7899
  163MOL   H17549099   2.357   6.109   6.239  0.0840  0.3253  0.1766
  163MOL   H17649100   2.190   6.057   6.222  0.2780  2.0050  0.6654
  163MOL   H17749101   2.381   5.921   6.428 -0.0208  1.0246  1.3133
  163MOL   H17849102   2.289   6.060   6.478  0.5840  0.7558 -1.5270
  163MOL   H17949103   2.201   5.921   6.412 -0.6590  1.9740  1.6684
  163MOL   H18049104   2.698   5.872   6.081  0.3155  1.6237 -0.2151
  163MOL   H18149105   2.670   5.744   5.964 -0.9372  2.6615 -3.5151
  163MOL   C18249106   2.564   5.923   5.918 -0.0626 -0.0995 -0.0572
  163MOL   O18349107   2.669   5.958   5.840  0.2493  0.0582  0.4253
  163MOL   C18449108   2.718   6.073   5.834  0.0737 -0.5759  0.2909
  163MOL   O18549109   2.685   6.165   5.906  0.0484  0.1374  0.0730
  163MOL   C18649110   2.827   6.080   5.724  0.6761 -0.5938 -0.4783
  163MOL   C18749111   2.886   6.214   5.710  0.4833 -0.3152  0.6170
  163MOL   C18849112   2.445   5.866   5.827 -0.0567  0.2317 -0.8819
  163MOL   H18949113   2.531   6.009   5.977 -1.0284  1.5461 -2.9162
  163MOL   H19049114   2.910   6.015   5.750  0.9585  0.4618  1.2758
  163MOL   H19149115   2.781   6.034   5.636 -2.3903 -1.7403  1.6613
  163MOL   H19249116   2.805   6.287   5.704  0.7892 -0.2504 -3.9864
  163MOL   H19349117   2.957   6.249   5.785 -0.1750  0.6626  0.7907
  163MOL   H19449118   2.937   6.231   5.616 -2.8703 -1.0607 -1.4067
  163MOL   H19549119   2.481   5.781   5.771  0.2687  0.2106 -0.6390
  163MOL   H19649120   2.371   5.812   5.886 -0.9101  3.1663  0.8869
  163MOL   C19749121   2.372   5.970   5.741 -0.2440 -0.2697  0.7978
  163MOL   O19849122   2.290   5.898   5.642 -0.2521  0.5551 -0.3705
  163MOL   C19949123   2.335   5.864   5.531 -0.6574 -0.3311 -0.4623
  163MOL   O20049124   2.443   5.904   5.482 -0.0897 -0.1689  0.2279
  163MOL   C20149125   2.249   5.760   5.466 -0.5055 -0.5406  0.1745
  163MOL   C20249126   2.303   5.696   5.332 -0.3279  0.0960  0.1644
  163MOL   C20349127   2.289   6.079   5.813  0.4464  0.0357  0.1587
  163MOL   H20449128   2.448   6.019   5.680 -2.1066 -0.0644 -1.4567
  163MOL   H20549129   2.246   5.689   5.549 -2.5172  2.9820  3.2787
  163MOL   H20649130   2.150   5.802   5.449 -1.5197 -2.6159  0.7869
  163MOL   H20749131   2.392   5.634   5.338 -1.2961 -1.2255  1.2719
  163MOL   H20849132   2.226   5.631   5.289 -1.0380  0.3433  1.0491
  163MOL   H20949133   2.333   5.769   5.257 -0.0812  0.4351  0.5990
  163MOL   H21049134   2.216   6.034   5.880 -0.1235  1.9828  0.8796
  163MOL   H21149135   2.361   6.120   5.884 -0.7849  1.4548  0.6030
  163MOL   C21249136   2.211   6.183   5.732 -0.0028 -0.4682  0.1589
  163MOL   O21349137   2.305   6.251   5.652 -0.3301 -0.2622 -0.1706
  163MOL   C21449138   2.377   6.348   5.694  0.3448 -0.3461 -0.0092
  163MOL   O21549139   2.367   6.406   5.805 -0.0097  0.1022  0.7342
  163MOL   C21649140   2.488   6.385   5.600  0.1814  0.4008 -0.1853
  163MOL   C21749141   2.582   6.499   5.653 -0.1545  0.3435 -0.1335
  163MOL   C21849142   2.082   6.143   5.656  0.4999  0.2616  0.2967
  163MOL   H21949143   2.169   6.248   5.808  0.3355 -0.1481  0.0714
  163MOL   H22049144   2.554   6.300   5.583  0.8738  1.0990 -1.0266
  163MOL   H22149145   2.453   6.419   5.503 -1.0865 -0.3989 -0.0186
  163MOL   H22249146   2.559   6.594   5.604 -2.2842  0.3355  0.7663
  163MOL   H22349147   2.579   6.519   5.760  0.0455 -1.7550  0.2699
  163MOL   H22449148   2.687   6.490   5.624 -0.5331 -1.6765 -0.9642
  163MOL   H22549149   2.048   6.224   5.591  1.3729  1.1593  0.9399
  163MOL   H22649150   2.124   6.078   5.580 -0.7556 -1.3569  0.9647
  163MOL   C22749151   1.962   6.074   5.726 -0.6793  0.1475 -0.2942
  163MOL   O22849152   1.998   5.956   5.801  0.4784  0.2934  0.6370
  163MOL   C22949153   1.988   5.831   5.747  0.8541  0.3823 -0.2826
  163MOL   O23049154   1.963   5.808   5.627  0.0465 -0.2792  0.0114
  163MOL   C23149155   2.001   5.716   5.842 -0.2425  0.1555  0.4982
  163MOL   C23249156   2.097   5.609   5.789 -0.1181 -0.8237 -0.9864
  163MOL   C23349157   1.875   6.163   5.821  0.0326  0.0125 -0.0055
  163MOL   H23449158   1.899   6.050   5.640 -1.5563 -0.3670  0.4890
  163MOL   H23549159   2.049   5.744   5.936  1.0273  2.1225 -0.6953
  163MOL   H23649160   1.907   5.665   5.864 -0.8434  1.0899  0.1061
  163MOL   H23749161   2.127   5.537   5.864  0.1537  0.8212  0.5123
  163MOL   H23849162   2.062   5.554   5.701 -2.2538 -0.1529 -0.5899
  163MOL   H23949163   2.186   5.659   5.752 -0.0540 -1.4672 -1.7124
  163MOL   H24049164   1.796   6.103   5.867 -0.7253  0.6572 -0.4575
  163MOL   H24149165   1.935   6.199   5.905  1.7458 -3.0568  0.1449
  163MOL   C24249166   1.799   6.282   5.739 -0.3050 -0.3979  0.2848
  163MOL   O24349167   1.679   6.224   5.670 -0.2403 -0.0221 -0.1061
  163MOL   C24449168   1.681   6.212   5.543 -0.2019 -0.3138  0.8568
  163MOL   O24549169   1.764   6.268   5.478 -0.0215 -0.5264  0.6917
  163MOL   C24649170   1.567   6.141   5.478  0.1395  0.3691  0.3258
  163MOL   C24749171   1.626   6.009   5.431  0.5010  0.7565 -0.0621
  163MOL   C24849172   1.755   6.386   5.845  0.1822 -0.2541  0.2076
  163MOL   H24949173   1.876   6.318   5.671  2.5101 -2.0390  2.4815
  163MOL   H25049174   1.485   6.120   5.546 -0.2973 -0.1671 -0.3558
  163MOL   H25149175   1.555   6.197   5.385 -1.3674 -0.0707  0.2442
  163MOL   H25249176   1.727   6.014   5.390  1.1197 -0.9848  1.2021
  163MOL   H25349177   1.633   5.944   5.518 -2.0309 -1.2776 -1.3166
  163MOL   H25449178   1.554   5.953   5.372  0.1709  1.9668 -0.8328
  163MOL   H25549179   1.669   6.355   5.904 -0.3576 -1.0364 -0.9583
  163MOL   H25649180   1.834   6.414   5.914  1.7359 -0.6658 -1.3714
  163MOL   C25749181   1.722   6.519   5.773  0.5634  0.9933 -0.2745
  163MOL   O25849182   1.590   6.498   5.724 -0.2387  0.0533 -0.2971
  163MOL   C25949183   1.519   6.588   5.646  0.7743  0.5089  0.0231
  163MOL   O26049184   1.565   6.693   5.609  0.1937 -1.2611 -0.0316
  163MOL   C26149185   1.379   6.549   5.596  0.1566 -0.1666  0.3208
  163MOL   C26249186   1.395   6.464   5.468 -0.0449 -0.1118  0.5458
  163MOL   C26349187   1.732   6.649   5.872  0.7126  0.1982  0.0022
  163MOL   H26449188   1.779   6.540   5.683 -0.9045 -1.0394 -1.7071
  163MOL   H26549189   1.326   6.490   5.672 -0.7692 -0.1204 -0.2775
  163MOL   H26649190   1.311   6.633   5.581  1.3643  0.7937  0.2080
  163MOL   H26749191   1.456   6.374   5.479  1.2259  0.5021 -1.1941
  163MOL   H26849192   1.303   6.435   5.418  0.7863  1.0967 -1.7856
  163MOL   H26949193   1.442   6.521   5.387  2.2944 -1.7438  0.7051
  163MOL   H27049194   1.693   6.740   5.826 -1.8841 -0.6754  0.3714
  163MOL   H27149195   1.670   6.628   5.959  0.7505 -0.0327 -0.0264
  163MOL   C27249196   1.862   6.690   5.928  0.1019  0.1932  0.1199
  163MOL   O27349197   1.957   6.707   5.822 -0.0565  0.0253  0.0345
  163MOL   C27449198   2.084   6.654   5.827 -0.2554  0.4841 -0.1061
  163MOL   O27549199   2.128   6.586   5.923  0.8239  0.3789 -0.4359
  163MOL   C27649200   2.167   6.682   5.702 -0.4494  0.0039 -0.2880
  163MOL   C27749201   2.308   6.721   5.731 -0.5436  0.5476  0.8174
  163MOL   C27849202   1.848   6.819   6.014  0.3121  0.4526  0.3996
  163MOL   H27949203   1.895   6.606   5.990  0.8132  0.0455 -0.4516
  163MOL   H28049204   2.176   6.589   5.646  0.1461 -0.4035  0.4698
  163MOL   H28149205   2.138   6.757   5.629  0.5031 -0.6631 -1.3743
  163MOL   H28249206   2.359   6.662   5.807 -2.0770 -0.2130  1.2774
  163MOL   H28349207   2.367   6.724   5.640 -1.0529  0.7008  0.4911
  163MOL   H28449208   2.304   6.828   5.754 -0.2981  0.6029  0.5965
  163MOL   H28549209   1.827   6.897   5.941  2.1046  0.3385 -0.2402
  163MOL   H28649210   1.761   6.808   6.080 -1.1838 -0.0000 -1.5781
  163MOL   C28749211   1.974   6.847   6.099 -0.3140  0.0551 -0.1907
  163MOL   O28849212   1.965   6.985   6.137 -0.1106  0.2080 -0.5034
  163MOL   C28949213   2.042   7.078   6.080 -0.1880 -0.2795 -0.0204
  163MOL   O29049214   2.107   7.065   5.975 -0.1264 -0.4153  0.6405
  163MOL   C29149215   2.030   7.214   6.143  0.0116 -0.5265 -0.4631
  163MOL   C29249216   2.080   7.208   6.288 -0.2727  0.0061  0.0206
  163MOL   C29349217   1.959   6.764   6.231 -0.6235 -0.4231  0.0389
  163MOL   H29449218   2.067   6.833   6.043 -0.7457  2.1738 -1.4875
  163MOL   H29549219   2.091   7.287   6.089  2.1471 -2.3755 -0.6173
  163MOL   H29649220   1.930   7.255   6.134 -0.5660 -1.8822 -0.2465
  163MOL   H29749221   2.102   7.107   6.321  0.7278 -0.2112 -1.2706
  163MOL   H29849222   2.165   7.276   6.295 -1.7149  2.0549 -1.7992
  163MOL   H29949223   2.000   7.254   6.346 -0.6666  0.8640 -1.1690
  163MOL   H30049224   1.968   6.661   6.196 -1.3958 -0.9776  1.4378
  163MOL   H30149225   2.042   6.790   6.298  0.4638 -0.8587 -1.1183
  163MOL   H30249226   1.870   6.783   6.291 -1.6597 -0.8021 -1.3587
  164MOL     C149227   5.120   6.764   6.279 -0.1889  0.0613 -0.4099
  164MOL     O249228   5.206   6.844   6.186 -0.5168  0.5152 -0.1709
  164MOL     C349229   5.171   6.858   6.059 -0.3140  0.0163  0.0751
  164MOL     O449230   5.071   6.802   6.013  0.4018  0.2170  0.3355
  164MOL     C549231   5.275   6.931   5.965 -0.7485  0.0379 -0.1369
  164MOL     C649232   5.354   6.840   5.868  0.0034  0.0039  0.4473
  164MOL     C749233   5.128   6.818   6.415  0.1980 -0.7270  0.4682
  164MOL     H849234   5.130   6.657   6.259  1.1514  0.4919 -2.2654
  164MOL     H949235   5.226   7.018   5.922 -1.2098 -0.3399 -0.3690
  164MOL    H1049236   5.354   6.969   6.030 -0.0171 -2.9588  0.8124
  164MOL    H1149237   5.321   6.843   5.764  0.2459  1.6767  0.4011
  164MOL    H1249238   5.454   6.878   5.844 -0.9164  1.4839 -1.1430
  164MOL    H1349239   5.364   6.736   5.898 -2.7597 -0.3519  0.1785
  164MOL    H1449240   5.230   6.808   6.450  0.0612 -0.4814  0.9428
  164MOL    H1549241   5.110   6.925   6.403 -0.6048 -0.6762  1.9401
  164MOL    H1649242   5.018   6.781   6.245  0.0379  0.5082 -0.8861
  164MOL    C1749243   5.022   6.770   6.518 -0.3374 -0.0639 -0.6200
  164MOL    O1849244   4.889   6.802   6.480  0.4257 -0.3918  0.7870
  164MOL    C1949245   4.823   6.915   6.504 -0.3914  0.4730 -0.4657
  164MOL    O2049246   4.866   7.006   6.565 -0.4705 -0.1766 -0.2925
  164MOL    C2149247   4.686   6.917   6.445 -0.7600  0.1856  0.0554
  164MOL    C2249248   4.588   7.005   6.518  0.1407  0.0704 -0.6555
  164MOL    C2349249   5.027   6.626   6.573 -0.2534  0.5512 -0.3038
  164MOL    H2449250   5.044   6.823   6.610  1.9270  0.2095 -1.2776
  164MOL    H2549251   4.697   6.951   6.343 -1.6360  1.6739  0.4465
  164MOL    H2649252   4.639   6.818   6.448 -0.2908 -0.0471 -0.1658
  164MOL    H2749253   4.622   7.108   6.502 -2.2538  1.1852  0.9796
  164MOL    H2849254   4.491   7.000   6.469 -0.1446  0.0878 -0.1027
  164MOL    H2949255   4.582   6.981   6.624 -0.8997 -0.1090 -0.7516
  164MOL    H3049256   4.933   6.609   6.625  0.2956 -0.2517  0.4260
  164MOL    H3149257   5.003   6.568   6.484 -1.1615  0.2881  0.1165
  164MOL    C3249258   5.165   6.594   6.634 -0.1701  0.1397  0.2757
  164MOL    O3349259   5.153   6.614   6.775  0.0141  0.1932 -0.0497
  164MOL    C3449260   5.195   6.725   6.828  0.5017  0.0890  0.1187
  164MOL    O3549261   5.229   6.818   6.762  0.1976  0.1332  0.0217
  164MOL    C3649262   5.217   6.715   6.978  0.5282 -0.3409 -0.3339
  164MOL    C3749263   5.193   6.845   7.048 -0.5254  0.2107  0.2602
  164MOL    C3849264   5.199   6.441   6.604 -0.3392 -0.2451  0.7123
  164MOL    H3949265   5.244   6.653   6.589  1.6979 -2.8881 -0.5886
  164MOL    H4049266   5.148   6.646   7.026  1.9642 -1.3677  0.3064
  164MOL    H4149267   5.316   6.686   7.013  0.1478 -0.0323  0.9976
  164MOL    H4249268   5.271   6.917   7.022 -0.4117 -0.2654 -0.7403
  164MOL    H4349269   5.097   6.890   7.026  0.2142  1.2620 -0.8593
  164MOL    H4449270   5.202   6.842   7.157  2.2841 -1.2847  0.0373
  164MOL    H4549271   5.129   6.369   6.646  1.1538 -2.3847 -0.3448
  164MOL    H4649272   5.200   6.431   6.495 -2.2588  1.1487  0.5347
  164MOL    C4749273   5.335   6.400   6.666 -0.3947  0.3097 -0.6210
  164MOL    O4849274   5.345   6.267   6.699  0.1463  0.2229  0.2991
  164MOL    C4949275   5.277   6.215   6.793 -0.4847  0.0716  0.5514
  164MOL    O5049276   5.228   6.273   6.888  0.2409 -0.2706  0.0218
  164MOL    C5149277   5.277   6.060   6.773  0.1653  1.1632 -0.1159
  164MOL    C5249278   5.246   5.980   6.905  0.2234  0.4509  0.2551
  164MOL    C5349279   5.447   6.447   6.576 -0.4202  0.3876  0.5501
  164MOL    H5449280   5.342   6.455   6.760  0.4447 -0.2756 -0.3297
  164MOL    H5549281   5.200   6.039   6.699 -1.8006  0.0377  2.1792
  164MOL    H5649282   5.370   6.031   6.725 -0.7245 -0.4147 -0.9162
  164MOL    H5749283   5.230   6.042   6.993 -1.9349 -0.7136  0.7282
  164MOL    H5849284   5.159   5.916   6.887 -0.4654  1.5929 -0.5788
  164MOL    H5949285   5.323   5.907   6.929 -0.5039 -0.0429  1.1111
  164MOL    H6049286   5.438   6.556   6.570 -0.6561  0.2915 -1.0109
  164MOL    H6149287   5.532   6.444   6.644 -0.3715  1.4105  0.5491
  164MOL    C6249288   5.480   6.368   6.445 -0.8288  0.8274  0.2439
  164MOL    O6349289   5.524   6.466   6.346  0.9481 -0.1933  0.7120
  164MOL    C6449290   5.438   6.514   6.252  0.2856 -0.3257  0.2151
  164MOL    O6549291   5.326   6.468   6.227  0.2633  0.3505  0.6155
  164MOL    C6649292   5.486   6.630   6.176  0.0476 -0.4551  1.0397
  164MOL    C6749293   5.538   6.743   6.264 -0.1533 -0.0313  0.0563
  164MOL    C6849294   5.595   6.256   6.442  0.0708  0.7194 -0.0797
  164MOL    H6949295   5.390   6.321   6.405 -0.7725  0.8509  0.0906
  164MOL    H7049296   5.564   6.606   6.103 -0.3685 -3.7208  1.5603
  164MOL    H7149297   5.402   6.668   6.118 -0.8486 -2.3348  1.0394
  164MOL    H7249298   5.633   6.728   6.315  0.9748  0.7689 -1.7653
  164MOL    H7349299   5.525   6.832   6.202  4.1089  0.1183 -0.7782
  164MOL    H7449300   5.472   6.773   6.345 -0.4949 -0.5184 -0.0405
  164MOL    H7549301   5.551   6.177   6.503  1.3640  0.9193  1.1315
  164MOL    H7649302   5.607   6.199   6.350 -0.0935  1.8321 -0.8115
  164MOL    C7749303   5.730   6.294   6.495 -0.1683 -0.1253  0.2419
  164MOL    O7849304   5.788   6.182   6.551 -0.1136 -0.2246 -0.2255
  164MOL    C7949305   5.767   6.161   6.688  0.5363 -0.1875  0.7913
  164MOL    O8049306   5.713   6.239   6.767 -0.3414 -0.2626 -0.2317
  164MOL    C8149307   5.810   6.016   6.734  0.2357  0.0596 -0.6232
  164MOL    C8249308   5.682   5.929   6.718 -0.6064  0.3774  0.3625
  164MOL    C8349309   5.821   6.339   6.375  0.5347  0.7843 -0.4603
  164MOL    H8449310   5.732   6.374   6.569  0.6135  0.2880 -0.2183
  164MOL    H8549311   5.885   5.979   6.663 -1.3852 -0.8735 -1.8802
  164MOL    H8649312   5.854   6.020   6.833  1.3552  2.6100 -1.1910
  164MOL    H8749313   5.592   5.988   6.702 -0.5659 -0.3074 -2.6253
  164MOL    H8849314   5.690   5.861   6.633 -2.4778  1.1510 -0.4743
  164MOL    H8949315   5.670   5.855   6.798 -0.0993 -0.9265 -0.7371
  164MOL    H9049316   5.836   6.256   6.306  2.5178  1.2016 -0.5553
  164MOL    H9149317   5.779   6.425   6.323  1.1162  0.5745 -1.2739
  164MOL    C9249318   5.964   6.376   6.420 -0.1913  0.2343  0.1357
  164MOL    O9349319   6.047   6.384   6.301  0.3974  0.4087 -0.6472
  164MOL    C9449320   6.104   6.274   6.254 -0.2432  0.6208  0.6787
  164MOL    O9549321   6.109   6.159   6.296  0.3079  0.4983  0.3167
  164MOL    C9649322   6.171   6.306   6.116  0.1514 -0.3147 -0.4615
  164MOL    C9749323   6.094   6.247   6.001 -0.0038  0.5330  0.7527
  164MOL    C9849324   5.975   6.519   6.483 -0.3658  0.1671  0.3286
  164MOL    H9949325   6.002   6.300   6.488 -0.7692 -1.1309 -1.0465
  164MOL   H10049326   6.189   6.412   6.097 -0.5455 -0.0400  0.3858
  164MOL   H10149327   6.271   6.263   6.110 -0.5343 -2.5800  3.1524
  164MOL   H10249328   6.167   6.218   5.926 -0.1802  0.2172  0.6994
  164MOL   H10349329   6.030   6.161   6.021 -0.0542  0.2431 -0.5936
  164MOL   H10449330   6.032   6.321   5.950  0.3101 -0.3777 -0.9895
  164MOL   H10549331   5.949   6.587   6.403  1.3392  0.4086 -0.0361
  164MOL   H10649332   5.915   6.522   6.574  1.3766 -0.5992  1.5400
  164MOL   C10749333   6.118   6.544   6.537  0.6386 -0.2796 -0.6970
  164MOL   O10849334   6.221   6.560   6.436  0.3061  0.1361 -0.4774
  164MOL   C10949335   6.347   6.534   6.463 -0.4317 -0.4268  0.0439
  164MOL   O11049336   6.396   6.512   6.572  0.6016 -0.5258 -0.1169
  164MOL   C11149337   6.427   6.546   6.344  0.1690 -0.0024 -0.3513
  164MOL   C11249338   6.564   6.479   6.357  1.1556  0.6960 -0.0480
  164MOL   C11349339   6.120   6.673   6.619  0.6298  0.2421 -0.4827
  164MOL   H11449340   6.145   6.462   6.603 -3.5921 -0.7149  0.6218
  164MOL   H11549341   6.380   6.506   6.254  0.6818 -0.3303 -0.4730
  164MOL   H11649342   6.441   6.654   6.342  0.4213 -0.0458 -1.2891
  164MOL   H11749343   6.611   6.512   6.450 -0.0676  1.1872  0.4061
  164MOL   H11849344   6.565   6.370   6.361 -0.3535  0.5955 -1.6554
  164MOL   H11949345   6.635   6.513   6.281  3.4706  0.1652  1.8139
  164MOL   H12049346   6.223   6.703   6.638  0.0731  1.3969  0.7231
  164MOL   H12149347   6.084   6.758   6.562  1.2882 -0.3555 -1.8175
  164MOL   C12249348   6.064   6.652   6.763 -0.1341  0.5013  0.4318
  164MOL   O12349349   6.151   6.566   6.836 -0.2262 -0.5724  0.1746
  164MOL   C12449350   6.112   6.507   6.948 -0.3944 -0.6683  0.0356
  164MOL   O12549351   5.999   6.491   6.990  0.9802 -0.1171 -0.2330
  164MOL   C12649352   6.228   6.440   7.007 -0.4743 -0.0899  0.9207
  164MOL   C12749353   6.355   6.522   7.038  0.4282  0.4472 -0.4919
  164MOL   C12849354   6.050   6.786   6.835 -0.6677  0.6893  0.4546
  164MOL   H12949355   5.970   6.597   6.767  0.1313 -0.0819 -0.9308
  164MOL   H13049356   6.191   6.386   7.094 -0.1293 -0.0771  1.0731
  164MOL   H13149357   6.253   6.367   6.931 -1.2716 -0.8256  1.3550
  164MOL   H13249358   6.402   6.550   6.944  1.8184  1.1942  0.4040
  164MOL   H13349359   6.340   6.616   7.091  1.0523  0.0472  0.4059
  164MOL   H13449360   6.438   6.472   7.086  0.1778  0.1535 -0.3647
  164MOL   H13549361   6.033   6.771   6.942  0.3874  2.0704  0.8331
  164MOL   H13649362   6.147   6.837   6.834 -0.3801  0.1505 -1.4101
  164MOL   C13749363   5.943   6.886   6.789 -0.1130  0.3591 -0.5290
  164MOL   O13849364   5.824   6.808   6.761  0.4983  0.3487  0.6187
  164MOL   C13949365   5.750   6.745   6.861  0.5133  0.0742  0.1067
  164MOL   O14049366   5.795   6.728   6.973  0.5224  0.4915 -0.3801
  164MOL   C14149367   5.616   6.680   6.822  0.1513 -0.1009 -0.1753
  164MOL   C14249368   5.591   6.554   6.919  0.1960  0.8912  0.4498
  164MOL   C14349369   5.915   6.995   6.892 -0.4474  0.5526  0.3509
  164MOL   H14449370   5.983   6.935   6.701 -1.9346  0.8129 -1.1172
  164MOL   H14549371   5.544   6.761   6.820  0.1756 -0.0290  1.1870
  164MOL   H14649372   5.637   6.649   6.719  0.5574 -1.3548  0.2743
  164MOL   H14749373   5.673   6.485   6.942 -0.8263 -0.5053 -0.0422
  164MOL   H14849374   5.566   6.595   7.017 -0.8143  1.1030  0.1087
  164MOL   H14949375   5.511   6.497   6.873 -1.0443  2.1772  1.0009
  164MOL   H15049376   5.821   7.041   6.862 -0.5033 -1.1934 -2.2870
  164MOL   H15149377   5.890   6.962   6.993  2.6165 -0.8942  0.6934
  164MOL   C15249378   6.013   7.110   6.913 -0.1715 -0.3178 -0.1485
  164MOL   O15349379   6.137   7.060   6.969  0.5339 -0.0992  0.3693
  164MOL   C15449380   6.200   7.124   7.065 -0.0317 -0.8244  0.4500
  164MOL   O15549381   6.183   7.250   7.089  0.2879 -0.0545 -0.5902
  164MOL   C15649382   6.301   7.034   7.144  0.9174 -0.0622 -0.3000
  164MOL   C15749383   6.242   6.895   7.192 -0.4331  0.5090  0.0675
  164MOL   C15849384   6.039   7.197   6.791 -0.1982 -0.3039  0.0463
  164MOL   H15949385   5.974   7.181   6.986  1.3019  1.7034 -1.2686
  164MOL   H16049386   6.389   7.019   7.083 -0.2286  1.7661 -2.4983
  164MOL   H16149387   6.347   7.083   7.230  0.4606  0.8969 -0.5847
  164MOL   H16249388   6.153   6.897   7.256 -1.0955 -1.3067 -0.7770
  164MOL   H16349389   6.232   6.830   7.105 -3.0328 -0.5499  1.1105
  164MOL   H16449390   6.319   6.839   7.245 -1.2145 -2.0729 -1.4504
  164MOL   H16549391   6.112   7.275   6.808 -0.8556  0.1159  1.0140
  164MOL   H16649392   6.079   7.127   6.718 -1.8263 -0.5970 -0.5845
  164MOL   C16749393   5.911   7.251   6.725 -0.0411 -0.0937  0.5288
  164MOL   O16849394   5.875   7.360   6.816 -0.1776 -0.2488 -0.8484
  164MOL   C16949395   5.752   7.415   6.818  0.3720 -0.2177  0.3933
  164MOL   O17049396   5.664   7.379   6.740 -0.4511  0.1825 -0.5158
  164MOL   C17149397   5.723   7.539   6.911  0.3914  0.2619 -0.1300
  164MOL   C17249398   5.831   7.654   6.889  0.5494  0.3637  0.3233
  164MOL   C17349399   5.927   7.290   6.578 -0.4538 -1.0247 -0.3144
  164MOL   H17449400   5.826   7.183   6.727 -0.3907  0.3621  2.0546
  164MOL   H17549401   5.627   7.589   6.906  1.1768  1.7753 -0.4889
  164MOL   H17649402   5.714   7.488   7.007  0.3219 -0.7375 -0.6562
  164MOL   H17749403   5.808   7.735   6.958  0.3389  0.9031 -0.3741
  164MOL   H17849404   5.934   7.619   6.897  0.5252 -0.0788 -1.1907
  164MOL   H17949405   5.824   7.700   6.790  3.3751 -1.2144 -0.6509
  164MOL   H18049406   5.862   7.370   6.544  0.9062 -0.0777 -0.7274
  164MOL   H18149407   6.022   7.344   6.569 -1.4164  0.9084  0.8456
  164MOL   C18249408   5.929   7.176   6.478 -0.2431  0.0321 -0.6610
  164MOL   O18349409   5.791   7.131   6.471  0.2307  0.5091 -0.1972
  164MOL   C18449410   5.746   7.004   6.482 -0.1875 -0.0722 -0.2168
  164MOL   O18549411   5.814   6.903   6.494  0.2278 -0.3454  0.3448
  164MOL   C18649412   5.597   7.005   6.482  0.6535 -0.0092 -0.8876
  164MOL   C18749413   5.532   7.089   6.597 -0.5914  0.1853 -0.4324
  164MOL   C18849414   5.988   7.213   6.337  0.2922 -0.1449  0.0511
  164MOL   H18949415   5.986   7.097   6.526 -1.2222  0.2577  0.8998
  164MOL   H19049416   5.553   7.038   6.388  1.2965 -2.2635 -1.9946
  164MOL   H19149417   5.570   6.901   6.498 -1.1955  0.5620 -0.2545
  164MOL   H19249418   5.556   7.195   6.585 -2.3853  0.4687 -1.7786
  164MOL   H19349419   5.424   7.077   6.587 -0.6388  0.5317 -0.3210
  164MOL   H19449420   5.568   7.048   6.691  0.2477 -1.6604 -1.5251
  164MOL   H19549421   5.985   7.121   6.280 -0.9973 -0.1370  0.0829
  164MOL   H19649422   5.923   7.288   6.290  1.7124  0.5425 -0.8473
  164MOL   C19749423   6.137   7.262   6.316  0.1518  0.3373 -0.7886
  164MOL   O19849424   6.219   7.158   6.363  0.8142 -0.1022 -0.4032
  164MOL   C19949425   6.314   7.174   6.452  0.2534  0.2872  0.6007
  164MOL   O20049426   6.337   7.280   6.508  0.2172  0.1205  0.1688
  164MOL   C20149427   6.388   7.046   6.484  0.0855 -0.2987  0.2424
  164MOL   C20249428   6.409   6.996   6.629  0.2711  0.4452  0.1477
  164MOL   C20349429   6.183   7.290   6.172 -0.3877  0.6593 -0.8219
  164MOL   H20449430   6.160   7.345   6.383  2.6715 -1.2743  0.4351
  164MOL   H20549431   6.356   6.966   6.417  0.0260 -1.4335  1.6119
  164MOL   H20649432   6.489   7.068   6.448 -0.3508 -0.2055 -0.9591
  164MOL   H20749433   6.434   7.084   6.688  2.1640  1.3999 -2.0178
  164MOL   H20849434   6.318   6.960   6.676 -0.0018  1.0431  0.0778
  164MOL   H20949435   6.480   6.914   6.645 -0.1064  0.1482  0.3059
  164MOL   H21049436   6.292   7.295   6.173 -0.3692  0.0423  0.0981
  164MOL   H21149437   6.152   7.199   6.120  0.9095  0.1248 -0.6690
  164MOL   C21249438   6.123   7.422   6.112  0.1512  0.6085 -0.1209
  164MOL   O21349439   6.191   7.532   6.176 -0.0387 -0.1557 -0.2941
  164MOL   C21449440   6.126   7.648   6.209  0.5288  0.4210 -0.2109
  164MOL   O21549441   6.002   7.667   6.209  0.1316  0.0459  0.4262
  164MOL   C21649442   6.217   7.759   6.245 -0.5381 -0.4744  0.3132
  164MOL   C21749443   6.158   7.902   6.252 -0.2556  0.2177  0.5042
  164MOL   C21849444   6.152   7.442   5.966  0.7603  0.2793 -0.7732
  164MOL   H21949445   6.015   7.430   6.128  0.4776  0.8169  2.0470
  164MOL   H22049446   6.274   7.742   6.336 -2.0658 -1.2066  1.1472
  164MOL   H22149447   6.293   7.756   6.167 -1.7961  1.6292 -1.0505
  164MOL   H22249448   6.074   7.913   6.183 -0.2293 -1.1860  0.2310
  164MOL   H22349449   6.116   7.914   6.352 -0.8339 -0.8011  0.3975
  164MOL   H22449450   6.236   0.030   6.230 -0.8616  1.1695  1.4393
  164MOL   H22549451   6.113   7.541   5.942  1.0609  0.3561 -0.9529
  164MOL   H22649452   6.261   7.454   5.960  0.9516 -0.9865 -0.0039
  164MOL   C22749453   6.098   7.325   5.866 -0.6715 -0.1109 -0.4900
  164MOL   O22849454   5.952   7.335   5.876 -0.4130 -0.6423 -0.2043
  164MOL   C22949455   5.883   7.227   5.937 -0.3190  0.1502 -0.3525
  164MOL   O23049456   5.941   7.140   6.002 -0.3241 -0.2959  0.4596
  164MOL   C23149457   5.734   7.228   5.916 -0.4559 -0.0578  0.2612
  164MOL   C23249458   5.665   7.140   6.017  0.4823 -0.2391 -0.0769
  164MOL   C23349459   6.139   7.348   5.718  0.2183  0.3516 -0.6902
  164MOL   H23449460   6.137   7.230   5.903 -0.9573  0.2814  0.8366
  164MOL   H23549461   5.683   7.324   5.925 -0.2846 -0.2452  4.2363
  164MOL   H23649462   5.713   7.200   5.813  1.8985 -1.3289  0.0886
  164MOL   H23749463   5.676   7.033   5.999 -1.0441 -0.7339  1.7216
  164MOL   H23849464   5.709   7.153   6.116  0.2388 -2.8517  0.4204
  164MOL   H23949465   5.556   7.147   6.017  0.5008  0.1624 -0.8185
  164MOL   H24049466   6.079   7.433   5.688 -1.9752 -1.2144 -0.8391
  164MOL   H24149467   6.243   7.380   5.715  0.8785 -1.5357  0.6802
  164MOL   C24249468   6.108   7.223   5.628 -0.1808  0.8479 -0.2911
  164MOL   O24349469   6.121   7.259   5.490  0.1480  0.3615  0.5643
  164MOL   C24449470   6.006   7.284   5.413 -0.4276  0.2426 -0.0973
  164MOL   O24549471   5.897   7.297   5.451 -0.2748  0.1806  0.0604
  164MOL   C24649472   6.045   7.304   5.267 -0.3259  0.2571  0.2795
  164MOL   C24749473   6.137   7.427   5.235 -0.1576  0.2072  0.0320
  164MOL   C24849474   6.207   7.103   5.653  0.1253 -0.5684 -0.1465
  164MOL   H24949475   6.013   7.177   5.653  0.6666 -2.3197 -2.5244
  164MOL   H25049476   6.105   7.217   5.244  0.9554  0.8847  1.2057
  164MOL   H25149477   5.958   7.292   5.202  1.6460 -0.4447 -2.2815
  164MOL   H25249478   6.082   7.518   5.258 -2.4577 -0.7706 -1.4046
  164MOL   H25349479   6.228   7.442   5.293 -0.0214  1.7357 -0.5515
  164MOL   H25449480   6.165   7.432   5.130 -0.5536  2.4569  0.0009
  164MOL   H25549481   6.296   7.101   5.589  0.3464 -0.9682  0.1684
  164MOL   H25649482   6.232   7.108   5.759  2.1752  1.7163 -0.6946
  164MOL   C25749483   6.139   6.968   5.638 -0.0212  0.5595  0.0325
  164MOL   O25849484   6.254   6.889   5.665 -0.1950 -0.5281  0.3738
  164MOL   C25949485   6.284   6.797   5.578 -0.3256 -0.4508  0.3154
  164MOL   O26049486   6.234   6.766   5.468  0.2061  0.5166 -0.4993
  164MOL   C26149487   6.418   6.733   5.615 -0.1666 -0.4904 -0.0926
  164MOL   C26249488   6.382   6.600   5.686  0.0107  0.0634  0.0270
  164MOL   C26349489   6.037   6.935   5.751 -0.0449 -0.0618  1.1200
  164MOL   H26449490   6.090   6.962   5.541  0.7005  1.2688 -0.3871
  164MOL   H26549491   6.484   6.722   5.529  0.3429  1.2456  0.0540
  164MOL   H26649492   6.478   6.797   5.680 -0.5260  0.0095 -0.2540
  164MOL   H26749493   6.310   6.615   5.767 -0.2818 -0.5033 -0.1271
  164MOL   H26849494   6.333   6.540   5.610  0.6006 -1.7622  1.0617
  164MOL   H26949495   6.469   6.557   5.736  1.1619 -0.5225 -2.4505
  164MOL   H27049496   6.077   6.955   5.851  0.3893 -0.8309  1.1050
  164MOL   H27149497   5.948   6.991   5.723 -0.3053 -0.6979  0.6547
  164MOL   C27249498   5.990   6.782   5.765  0.0859  0.2841 -0.1493
  164MOL   O27349499   5.923   6.759   5.889 -0.5344 -0.4135  0.0690
  164MOL   C27449500   5.974   6.681   5.990  0.1302  0.1644  0.1838
  164MOL   O27549501   6.071   6.610   5.979 -0.3717 -0.1798 -0.3379
  164MOL   C27649502   5.895   6.673   6.118 -0.6425  0.1492 -0.5842
  164MOL   C27749503   5.926   6.789   6.214 -0.3619  0.1121 -0.2351
  164MOL   C27849504   5.902   6.730   5.649  0.7005  0.8462 -0.1984
  164MOL   H27949505   6.078   6.718   5.767 -0.5940 -0.6531  2.6804
  164MOL   H28049506   5.792   6.685   6.085 -1.1018 -0.5280  0.5442
  164MOL   H28149507   5.911   6.575   6.164  1.7968 -0.0272 -1.7614
  164MOL   H28249508   6.023   6.768   6.259  0.2862 -2.2173 -2.5804
  164MOL   H28349509   5.927   6.881   6.155 -0.8470  0.3660  0.1443
  164MOL   H28449510   5.841   6.800   6.281  0.7944  0.7550  1.1393
  164MOL   H28549511   5.803   6.774   5.652  0.3825  0.2314 -1.4395
  164MOL   H28649512   5.964   6.767   5.567  2.6628 -1.1178  0.3532
  164MOL   C28749513   5.890   6.578   5.638  0.6518  0.3676  0.2688
  164MOL   O28849514   5.780   6.536   5.723  0.3688 -0.1240 -0.1590
  164MOL   C28949515   5.784   6.406   5.776 -0.7003  0.0545 -0.2325
  164MOL   O29049516   5.878   6.327   5.771  0.3433 -0.4444 -0.0613
  164MOL   C29149517   5.660   6.382   5.865 -0.0352 -0.1727  0.3295
  164MOL   C29249518   5.688   6.318   5.998 -1.0871  0.2197  0.6893
  164MOL   C29349519   5.862   6.536   5.494 -0.3473 -0.1570 -0.0395
  164MOL   H29449520   5.983   6.540   5.678  0.5114  0.4841  0.7157
  164MOL   H29549521   5.626   6.482   5.889  0.9132  0.3276 -0.3622
  164MOL   H29649522   5.584   6.328   5.808  0.3157 -1.1014  0.7230
  164MOL   H29749523   5.681   6.209   5.993  2.2259 -0.0273 -0.3254
  164MOL   H29849524   5.786   6.348   6.037 -2.1950  1.9460  2.2161
  164MOL   H29949525   5.621   6.352   6.076  1.1400  2.8998  1.5263
  164MOL   H30049526   5.764   6.570   5.460  0.9658  0.1589 -3.8161
  164MOL   H30149527   5.941   6.562   5.423 -0.4419  2.0195  0.6315
  164MOL   H30249528   5.850   6.428   5.490  0.9848 -0.4500  3.0744
  165MOL     C149529   2.823   2.627   2.538 -0.1912  0.1193 -0.0119
  165MOL     O249530   2.708   2.673   2.478  0.0277 -0.4091  0.1344
  165MOL     C349531   2.722   2.744   2.366 -0.1394  0.6952 -0.2965
  165MOL     O449532   2.829   2.759   2.306 -0.6289 -0.4742  0.1627
  165MOL     C549533   2.589   2.784   2.307  0.4116 -0.7503 -0.4492
  165MOL     C649534   2.509   2.857   2.418 -0.8624 -0.6181  0.1320
  165MOL     C749535   2.861   2.481   2.504  0.7211  0.6028  0.3458
  165MOL     H849536   2.797   2.628   2.643 -1.3799  1.8129 -0.3025
  165MOL     H949537   2.600   2.854   2.224 -0.1045 -0.1442 -0.0117
  165MOL    H1049538   2.537   2.695   2.272 -0.6753  0.1251 -1.1344
  165MOL    H1149539   2.562   2.939   2.467 -0.0455 -0.2376 -1.3779
  165MOL    H1249540   2.419   2.901   2.375 -0.1303 -0.8488 -1.6578
  165MOL    H1349541   2.485   2.794   2.503 -1.8200 -0.2982  0.1124
  165MOL    H1449542   2.774   2.418   2.520  0.2776  1.1282  0.0530
  165MOL    H1549543   2.883   2.486   2.398 -2.1828 -2.0416 -0.4396
  165MOL    H1649544   2.910   2.692   2.534 -1.1209  1.3109 -1.5289
  165MOL    C1749545   2.983   2.439   2.591 -0.1659 -0.4084 -0.5534
  165MOL    O1849546   2.959   2.438   2.729  0.4746  0.2258  0.2308
  165MOL    C1949547   2.853   2.370   2.791 -0.2574 -0.5119 -0.2781
  165MOL    O2049548   2.766   2.311   2.740  0.2925  0.4817  0.2130
  165MOL    C2149549   2.869   2.355   2.945 -0.1874 -0.2097 -0.4258
  165MOL    C2249550   2.923   2.481   3.016 -0.1004  0.1745  0.8781
  165MOL    C2349551   3.066   2.320   2.545 -0.3579 -0.0987 -1.0922
  165MOL    H2449552   3.051   2.521   2.567  0.3405 -0.6774 -0.0356
  165MOL    H2549553   2.770   2.340   2.987 -0.1578  0.9561  0.0903
  165MOL    H2649554   2.924   2.268   2.983 -1.7263 -0.4608  1.3015
  165MOL    H2749555   2.858   2.568   3.009 -0.0601  0.0897 -0.7286
  165MOL    H2849556   2.954   2.460   3.118  1.1462  1.4820  0.7798
  165MOL    H2949557   3.020   2.516   2.983  0.1217 -1.1928  0.0616
  165MOL    H3049558   3.008   2.229   2.566 -1.1864  1.0084  1.6272
  165MOL    H3149559   3.077   2.323   2.437 -0.5459 -2.2316 -1.2055
  165MOL    C3249560   3.197   2.281   2.613 -0.5603 -0.6758 -0.4443
  165MOL    O3349561   3.189   2.233   2.750 -0.0303 -0.3584  0.0124
  165MOL    C3449562   3.277   2.264   2.843  0.5222  0.2821  0.4339
  165MOL    O3549563   3.377   2.338   2.820 -0.2510  0.1819  0.3368
  165MOL    C3649564   3.250   2.213   2.983 -0.3802 -0.5000  0.1540
  165MOL    C3749565   3.367   2.126   3.025  0.4285 -1.0164 -0.2132
  165MOL    C3849566   3.277   2.177   2.528 -0.2296  0.6994 -0.3234
  165MOL    H3949567   3.263   2.368   2.619  0.0018 -1.2138  1.8780
  165MOL    H4049568   3.234   2.290   3.059 -1.0665  0.4308 -0.9129
  165MOL    H4149569   3.157   2.156   2.984 -0.8102  0.1750 -0.7960
  165MOL    H4249570   3.374   2.120   3.133 -0.7901 -1.5816 -0.1551
  165MOL    H4349571   3.366   2.023   2.988  1.9781 -1.3951  0.7423
  165MOL    H4449572   3.462   2.170   2.995 -0.4750  1.7503  0.9082
  165MOL    H4549573   3.347   2.139   2.602 -0.0538  0.9852 -0.3415
  165MOL    H4649574   3.218   2.089   2.505 -0.6756  0.1728  2.6819
  165MOL    C4749575   3.343   2.229   2.400  0.3120 -0.8041 -0.0409
  165MOL    O4849576   3.438   2.333   2.419  0.1943 -0.1733  0.2368
  165MOL    C4949577   3.414   2.455   2.376  0.6410 -0.7709 -0.2585
  165MOL    O5049578   3.304   2.505   2.358 -0.1830  0.7158  0.6753
  165MOL    C5149579   3.544   2.531   2.347 -0.6955  0.9946  0.4480
  165MOL    C5249580   3.640   2.533   2.469 -0.4253 -0.3521 -0.3506
  165MOL    C5349581   3.426   2.112   2.337  0.3365  0.1796 -0.4927
  165MOL    H5449582   3.265   2.270   2.335  2.3586  0.5725 -1.6886
  165MOL    H5549583   3.592   2.493   2.256 -3.7046  2.5738 -1.9286
  165MOL    H5649584   3.525   2.628   2.301 -0.1722  0.7350 -0.3304
  165MOL    H5749585   3.743   2.505   2.447 -0.8359 -0.9405 -1.5718
  165MOL    H5849586   3.643   2.636   2.506  1.7370 -0.5692  0.1278
  165MOL    H5949587   3.613   2.469   2.552  1.3995  0.4027  0.8583
  165MOL    H6049588   3.526   2.101   2.377 -0.2683  1.3013  1.3613
  165MOL    H6149589   3.379   2.018   2.364  1.9631 -0.4891  0.0909
  165MOL    C6249590   3.453   2.119   2.187  0.5621  0.6825 -0.2568
  165MOL    O6349591   3.584   2.177   2.157 -0.0846 -0.2896 -0.1117
  165MOL    C6449592   3.595   2.259   2.050 -0.0675 -0.0311  0.3206
  165MOL    O6549593   3.502   2.293   1.975 -0.4382 -0.4774 -0.3557
  165MOL    C6649594   3.738   2.320   2.035  0.3801 -0.9530 -0.0857
  165MOL    C6749595   3.792   2.354   1.891 -0.1005  0.2686 -1.1097
  165MOL    C6849596   3.453   1.981   2.121  0.1157 -0.0527 -0.5141
  165MOL    H6949597   3.375   2.176   2.136 -1.9795 -1.4905  1.0882
  165MOL    H7049598   3.739   2.409   2.098  0.0760 -0.8742 -0.1920
  165MOL    H7149599   3.815   2.261   2.084  1.0383 -0.0245  0.0176
  165MOL    H7249600   3.898   2.381   1.889  0.0568 -0.3505 -1.2880
  165MOL    H7349601   3.790   2.264   1.829 -1.4461 -0.9849  0.6961
  165MOL    H7449602   3.742   2.442   1.851  2.5565  1.1650 -2.5849
  165MOL    H7549603   3.506   1.984   2.026  1.5274 -2.7227  0.1421
  165MOL    H7649604   3.516   1.910   2.174 -0.4986  0.5056  0.9970
  165MOL    C7749605   3.307   1.933   2.088 -0.0625  0.4670  0.3944
  165MOL    O7849606   3.269   1.979   1.959  0.6180  0.5989  0.0571
  165MOL    C7949607   3.131   1.995   1.927  0.4911  0.0315  0.0470
  165MOL    O8049608   3.032   1.958   1.989 -0.2103 -0.1208 -0.0826
  165MOL    C8149609   3.109   2.083   1.808  0.0576 -0.4143 -0.0706
  165MOL    C8249610   2.967   2.125   1.790 -0.0924  0.4453 -0.4349
  165MOL    C8349611   3.295   1.778   2.097  0.1778  0.4775  0.5218
  165MOL    H8449612   3.236   1.976   2.158  2.3050  2.1836  1.8268
  165MOL    H8549613   3.182   2.163   1.820 -0.8182  0.5118 -0.8764
  165MOL    H8649614   3.130   2.027   1.716 -0.1178  0.4332 -0.6312
  165MOL    H8749615   2.935   2.194   1.867  0.5884  0.8404 -0.5019
  165MOL    H8849616   2.944   2.177   1.697 -1.4498 -2.0755 -1.5507
  165MOL    H8949617   2.899   2.040   1.785  1.6054 -0.9456 -0.6594
  165MOL    H9049618   3.195   1.747   2.067 -0.4341  0.2465  2.6891
  165MOL    H9149619   3.365   1.743   2.021 -1.3175  2.1645 -1.7082
  165MOL    C9249620   3.339   1.722   2.242  0.4087 -0.4772  0.3694
  165MOL    O9349621   3.227   1.757   2.332 -0.4098  0.0446  0.3037
  165MOL    C9449622   3.241   1.755   2.467  0.5678 -0.7024 -0.5834
  165MOL    O9549623   3.333   1.715   2.533 -1.2203  0.2991  0.2112
  165MOL    C9649624   3.112   1.802   2.535  0.3729  0.3841 -0.9266
  165MOL    C9749625   3.131   1.842   2.684 -0.0487 -0.5186  0.1023
  165MOL    C9849626   3.331   1.567   2.249  0.1441  0.0792  0.0607
  165MOL    H9949627   3.438   1.756   2.273  0.1739 -0.0098  0.6169
  165MOL   H10049628   3.073   1.893   2.490  0.8224  0.8848 -0.3127
  165MOL   H10149629   3.031   1.730   2.546  1.3358 -0.7699 -1.3571
  165MOL   H10249630   3.172   1.943   2.690 -0.9776  0.0156 -1.9768
  165MOL   H10349631   3.032   1.838   2.730 -0.6104 -2.1923 -1.2152
  165MOL   H10449632   3.200   1.774   2.733  1.2737  0.3290 -0.5766
  165MOL   H10549633   3.369   1.533   2.345  0.8867  1.9293  0.4516
  165MOL   H10649634   3.226   1.537   2.241  0.0857  1.0528 -3.6404
  165MOL   C10749635   3.410   1.483   2.146  0.3554  0.0914  0.4213
  165MOL   O10849636   3.550   1.472   2.187  0.0486  0.3746  0.0039
  165MOL   C10949637   3.643   1.552   2.131 -0.1384 -0.7143 -0.0952
  165MOL   O11049638   3.613   1.648   2.056  0.4728 -0.1075 -0.4855
  165MOL   C11149639   3.787   1.524   2.183  0.1024 -0.3483  0.3050
  165MOL   C11249640   3.884   1.540   2.063 -0.2557 -0.8832 -0.3028
  165MOL   C11349641   3.361   1.338   2.159  0.5149  0.0610 -0.2336
  165MOL   H11449642   3.398   1.505   2.040  0.8337 -1.0085  0.1296
  165MOL   H11549643   3.809   1.601   2.257 -1.1193  1.4641 -1.2029
  165MOL   H11649644   3.801   1.422   2.221 -0.6427 -1.0309 -1.2180
  165MOL   H11749645   3.985   1.531   2.103  0.7460  4.4550 -1.1485
  165MOL   H11849646   3.867   1.477   1.977 -1.7538  2.3616 -2.4897
  165MOL   H11949647   3.879   1.640   2.019 -1.8803  0.3705  2.5693
  165MOL   H12049648   3.422   1.288   2.083  0.6314  0.8998 -0.6989
  165MOL   H12149649   3.384   1.294   2.256  0.9989  1.3069  0.2235
  165MOL   C12249650   3.216   1.313   2.120 -0.0050  0.4406  0.0464
  165MOL   O12349651   3.193   1.367   1.983 -0.4096  0.8314  0.2230
  165MOL   C12449652   3.089   1.445   1.952 -0.0348 -0.5287  0.6084
  165MOL   O12549653   2.998   1.473   2.028  0.0391  0.5011  0.2077
  165MOL   C12649654   3.084   1.490   1.807  0.8981 -0.1249 -0.2092
  165MOL   C12749655   3.167   1.618   1.783 -0.1737 -0.5762  0.3873
  165MOL   C12849656   3.183   1.163   2.090 -0.2660 -0.2467  0.3743
  165MOL   H12949657   3.155   1.369   2.191 -0.5648  0.9539 -0.8275
  165MOL   H13049658   3.127   1.415   1.740  0.2759 -2.6489  2.1395
  165MOL   H13149659   2.981   1.498   1.774  0.7310  1.4134  0.6825
  165MOL   H13249660   3.168   1.655   1.680 -0.0978 -3.2262 -0.6093
  165MOL   H13349661   3.139   1.693   1.857 -2.8195 -1.3316  0.2283
  165MOL   H13449662   3.271   1.596   1.804  0.1412 -0.7425 -1.2558
  165MOL   H13549663   3.076   1.152   2.070 -0.2260 -0.7914  0.4606
  165MOL   H13649664   3.235   1.130   2.000  1.2692  0.2715  1.0584
  165MOL   C13749665   3.224   1.072   2.208  0.2123 -0.0152  0.8111
  165MOL   O13849666   3.170   1.126   2.333  0.5069  0.3181  0.5678
  165MOL   C13949667   3.222   1.088   2.454 -0.4241 -0.1091  0.7841
  165MOL   O14049668   3.307   1.001   2.464  0.4114  0.1239  0.1562
  165MOL   C14149669   3.161   1.161   2.572 -0.0025 -0.0274 -0.6462
  165MOL   C14249670   3.170   1.313   2.559  0.2345  0.4058  0.1643
  165MOL   C14349671   3.147   0.932   2.195  0.0531  0.5058 -0.6751
  165MOL   H14449672   3.333   1.066   2.217  0.4648  2.3973 -0.3441
  165MOL   H14549673   3.058   1.127   2.585  0.6976 -1.2183  2.3301
  165MOL   H14649674   3.217   1.118   2.655 -1.6977 -1.0532 -0.0025
  165MOL   H14749675   3.275   1.340   2.552  1.0925 -2.4820  1.2451
  165MOL   H14849676   3.109   1.351   2.477  0.6376  0.8634  0.0748
  165MOL   H14949677   3.125   1.356   2.648 -1.5957 -2.5087  0.6969
  165MOL   H15049678   3.154   0.871   2.285  2.3025  0.3777 -0.9043
  165MOL   H15149679   3.042   0.955   2.179 -0.6685 -1.8278  0.4126
  165MOL   C15249680   3.207   0.846   2.071  0.0023  0.0460 -0.0450
  165MOL   O15349681   3.311   0.752   2.118  0.0303  0.3373  0.5788
  165MOL   C15449682   3.435   0.776   2.090 -0.4129 -0.1215  0.5795
  165MOL   O15549683   3.478   0.879   2.039 -0.0456  0.9400  0.1778
  165MOL   C15649684   3.522   0.669   2.143  0.0762  0.0056  1.2597
  165MOL   C15749685   3.540   0.671   2.293  0.2025  0.5003 -0.0867
  165MOL   C15849686   3.099   0.747   2.022  0.4751 -0.2740 -0.3946
  165MOL   H15949687   3.242   0.911   1.991 -1.3254  1.1544  0.2699
  165MOL   H16049688   3.487   0.572   2.106 -1.4994  0.9362  0.2555
  165MOL   H16149689   3.620   0.676   2.097 -0.7684 -2.2980 -1.0617
  165MOL   H16249690   3.626   0.617   2.333  1.2026  1.6611 -0.6496
  165MOL   H16349691   3.545   0.765   2.347  0.8541  0.8263 -0.6986
  165MOL   H16449692   3.455   0.615   2.331 -0.3499  1.0902 -0.4591
  165MOL   H16549693   3.139   0.673   1.953  0.1289  0.3721 -1.3065
  165MOL   H16649694   3.063   0.684   2.103  0.9625 -0.6330 -0.4500
  165MOL   C16749695   2.980   0.807   1.948 -0.0457 -0.4395  0.4830
  165MOL   O16849696   3.005   0.835   1.812 -0.2073  0.4491  0.1137
  165MOL   C16949697   2.996   0.962   1.764  0.3964  1.0633  0.4090
  165MOL   O17049698   2.971   1.064   1.832 -0.2146  0.5216  0.0111
  165MOL   C17149699   3.020   0.972   1.610 -0.6706 -0.1227  0.2743
  165MOL   C17249700   2.903   0.896   1.539 -0.6233  0.6932  0.4742
  165MOL   C17349701   2.859   0.715   1.941  0.0212  0.0807 -0.3521
  165MOL   H17449702   2.948   0.894   2.006  2.0032  1.0857 -0.6150
  165MOL   H17549703   3.042   1.075   1.584 -0.7352  0.0931  1.0846
  165MOL   H17649704   3.112   0.914   1.595  0.7909  2.1420  0.3014
  165MOL   H17749705   2.826   0.869   1.611 -0.4909 -3.9126 -0.9563
  165MOL   H17849706   2.862   0.955   1.457  1.1270 -0.4775 -1.3171
  165MOL   H17949707   2.948   0.800   1.513 -0.4737  0.4598  1.5909
  165MOL   H18049708   2.785   0.761   1.877  0.0293 -0.4035 -0.7144
  165MOL   H18149709   2.885   0.625   1.885  0.8164  0.3112 -0.3601
  165MOL   C18249710   2.786   0.704   2.083 -0.6461 -1.2568 -0.3401
  165MOL   O18349711   2.763   0.832   2.144  0.3459  0.2299  0.5986
  165MOL   C18449712   2.771   0.851   2.282 -0.1973  0.4304  0.4594
  165MOL   O18549713   2.818   0.778   2.362 -0.1741  0.4690 -0.1553
  165MOL   C18649714   2.716   0.979   2.321 -0.8058  0.1725  0.4894
  165MOL   C18749715   2.805   1.091   2.270  0.1166 -0.4958 -0.0643
  165MOL   C18849716   2.649   0.654   2.051  0.3064  0.4858 -0.2279
  165MOL   H18949717   2.846   0.632   2.137  0.2697 -0.2842 -0.0387
  165MOL   H19049718   2.616   0.962   2.281 -0.3965  0.2317 -0.5729
  165MOL   H19149719   2.699   0.992   2.428 -1.4542 -2.8659  0.7926
  165MOL   H19249720   2.839   1.074   2.167 -1.4309 -0.3046 -0.6298
  165MOL   H19349721   2.758   1.189   2.274  0.8137 -0.1832  0.3545
  165MOL   H19449722   2.890   1.109   2.335 -0.1801  0.3769  0.0894
  165MOL   H19549723   2.592   0.712   1.979  0.9300  0.9125 -0.3870
  165MOL   H19649724   2.668   0.556   2.006 -0.6134 -0.9356  2.3660
  165MOL   C19749725   2.553   0.620   2.166  0.6701 -0.1900 -0.0530
  165MOL   O19849726   2.428   0.600   2.109 -0.0365 -0.5967  0.2179
  165MOL   C19949727   2.334   0.702   2.124  0.4338  0.5749  0.3005
  165MOL   O20049728   2.352   0.813   2.171 -0.2227  0.7162 -0.2990
  165MOL   C20149729   2.201   0.662   2.061  0.7916 -0.7842  0.2157
  165MOL   C20249730   2.213   0.556   1.944 -0.3026  1.3493 -0.5407
  165MOL   C20349731   2.599   0.492   2.244  0.7842 -0.0760 -0.1310
  165MOL   H20449732   2.554   0.708   2.231 -2.8577 -0.8791  1.0143
  165MOL   H20549733   2.141   0.633   2.147  0.4461  0.3662  0.3700
  165MOL   H20649734   2.165   0.754   2.015  1.2522  0.1445  1.6673
  165MOL   H20749735   2.294   0.564   1.872 -0.3647 -1.0536 -0.9073
  165MOL   H20849736   2.213   0.454   1.982 -1.6333  1.5171 -0.0544
  165MOL   H20949737   2.122   0.563   1.884 -0.5590  1.1290 -0.1751
  165MOL   H21049738   2.572   0.403   2.187  1.1718 -2.1148  2.7631
  165MOL   H21149739   2.707   0.477   2.246  0.7364 -0.5490 -0.7943
  165MOL   C21249740   2.538   0.496   2.386 -0.9717 -0.5582  0.2506
  165MOL   O21349741   2.402   0.456   2.379  0.7589 -0.4224  0.0456
  165MOL   C21449742   2.304   0.517   2.443  0.2305  0.1153 -0.7122
  165MOL   O21549743   2.318   0.622   2.509 -0.2098  0.4630  0.1776
  165MOL   C21649744   2.170   0.448   2.427  0.1524  0.1524  0.1280
  165MOL   C21749745   2.080   0.459   2.547  0.3848  0.2787  0.4972
  165MOL   C21849746   2.605   0.396   2.484  0.0282  0.0616  0.8929
  165MOL   H21949747   2.548   0.591   2.439  2.2915 -1.0697  0.6123
  165MOL   H22049748   2.120   0.508   2.351 -1.4554  1.1686  1.9450
  165MOL   H22149749   2.175   0.346   2.391 -0.7271  0.0412  0.3174
  165MOL   H22249750   2.036   0.557   2.568 -2.0196 -0.8226  0.7578
  165MOL   H22349751   2.006   0.380   2.537  1.1277 -0.5044  1.1270
  165MOL   H22449752   2.136   0.440   2.638 -1.5450 -0.7502  1.4978
  165MOL   H22549753   2.532   0.355   2.553  0.3684 -2.6119 -0.2572
  165MOL   H22649754   2.638   0.315   2.419 -0.7064  1.5880 -1.4281
  165MOL   C22749755   2.732   0.450   2.564  0.3739  0.3414 -0.5731
  165MOL   O22849756   2.827   0.474   2.457  0.0838 -0.2131 -0.4992
  165MOL   C22949757   2.958   0.453   2.480  0.3486  0.6201  0.0084
  165MOL   O23049758   3.004   0.429   2.589 -0.0354  0.1372  1.0178
  165MOL   C23149759   3.044   0.463   2.352 -0.2778  0.7416  0.0220
  165MOL   C23249760   3.193   0.494   2.369 -0.3890  1.1969 -0.7645
  165MOL   C23349761   2.708   0.580   2.657  0.0544  0.2911 -0.0862
  165MOL   H23449762   2.768   0.371   2.630  0.9412  0.0341 -1.2485
  165MOL   H23549763   3.037   0.377   2.286  0.7250  0.7354 -0.0836
  165MOL   H23649764   2.993   0.546   2.302 -1.7516  1.8162  3.1606
  165MOL   H23749765   3.236   0.533   2.277 -1.7931  1.9485 -1.1158
  165MOL   H23849766   3.217   0.563   2.450  0.1154  0.2636 -0.1085
  165MOL   H23949767   3.246   0.403   2.398 -1.0706  1.3399  1.0401
  165MOL   H24049768   2.793   0.609   2.718  0.3785  0.0532 -0.4203
  165MOL   H24149769   2.688   0.674   2.604 -0.3868 -0.2792 -0.9484
  165MOL   C24249770   2.590   0.546   2.758 -0.4166  0.0414 -0.3172
  165MOL   O24349771   2.623   0.434   2.840 -0.0468  0.0247 -0.8982
  165MOL   C24449772   2.542   0.341   2.885  0.3981  0.7074 -0.2376
  165MOL   O24549773   2.431   0.319   2.844  0.1961  0.2271 -0.2653
  165MOL   C24649774   2.608   0.250   2.987 -0.5989  0.3713 -0.4666
  165MOL   C24749775   2.506   0.188   3.083  0.1383 -0.0165 -0.0282
  165MOL   C24849776   2.551   0.674   2.841 -0.3040 -0.6290  0.2730
  165MOL   H24949777   2.502   0.517   2.701 -0.5459  0.7607 -0.4862
  165MOL   H25049778   2.674   0.171   2.952  1.2069  0.2009  3.0681
  165MOL   H25149779   2.669   0.323   3.041  0.5868 -1.4145  0.6826
  165MOL   H25249780   2.450   0.120   3.019 -0.4410 -2.8196  3.2549
  165MOL   H25349781   2.557   0.146   3.170  0.1340  2.2785  1.1123
  165MOL   H25449782   2.440   0.268   3.116  2.4389  2.3162 -0.9642
  165MOL   H25549783   2.645   0.689   2.895  0.1238  0.6941 -0.8296
  165MOL   H25649784   2.540   0.756   2.771 -2.1741 -2.0396 -1.1284
  165MOL   C25749785   2.440   0.658   2.944 -0.5804  0.4811 -0.0025
  165MOL   O25849786   2.444   0.776   3.029 -0.1862 -0.3329  0.0616
  165MOL   C25949787   2.390   0.785   3.153  0.3387 -0.3463 -0.4330
  165MOL   O26049788   2.339   0.694   3.218 -0.3972 -0.4093 -0.0171
  165MOL   C26149789   2.417   0.916   3.221  0.1129 -0.2758  0.3364
  165MOL   C26249790   2.323   1.014   3.155  0.5190 -0.4386 -0.3192
  165MOL   C26349791   2.303   0.637   2.875 -0.2103  0.6574  0.4017
  165MOL   H26449792   2.466   0.585   3.021 -0.3070  2.7479  2.1289
  165MOL   H26549793   2.410   0.913   3.330 -1.8996 -1.7084  0.1993
  165MOL   H26649794   2.520   0.944   3.198 -0.0144 -0.5096 -0.5442
  165MOL   H26749795   2.324   1.110   3.206 -1.4449  0.0405 -1.1260
  165MOL   H26849796   2.335   1.042   3.050 -0.4836 -1.1817 -0.6383
  165MOL   H26949797   2.220   0.977   3.163 -0.1259  1.6298  1.5139
  165MOL   H27049798   2.270   0.723   2.817  2.5531  0.4791 -1.5533
  165MOL   H27149799   2.313   0.558   2.801 -0.5911 -1.6520  2.7333
  165MOL   C27249800   2.178   0.594   2.952 -0.6883 -0.1226  0.6020
  165MOL   O27349801   2.068   0.606   2.867  0.0770 -0.0137  0.2589
  165MOL   C27449802   1.952   0.638   2.913 -0.0363 -0.1501  0.0416
  165MOL   O27549803   1.922   0.636   3.035  0.2263 -0.7007  0.4263
  165MOL   C27649804   1.864   0.704   2.807  0.3725  0.4536  0.6166
  165MOL   C27749805   1.836   0.846   2.853  0.7673  0.3324 -1.0992
  165MOL   C27849806   2.196   0.442   2.998 -0.1979 -0.4512  0.2230
  165MOL   H27949807   2.171   0.651   3.045  0.1816  0.9127  0.0529
  165MOL   H28049808   1.903   0.696   2.705  1.7757  1.2963  1.0724
  165MOL   H28149809   1.769   0.651   2.804 -0.2195  1.4049  1.9303
  165MOL   H28249810   1.928   0.904   2.861  0.0736  1.2876  0.1121
  165MOL   H28349811   1.772   0.893   2.779  2.0529 -0.9062 -3.0564
  165MOL   H28449812   1.790   0.842   2.951  0.9158 -1.8597 -1.0909
  165MOL   H28549813   2.183   0.389   2.903  1.0007 -0.5785  0.1232
  165MOL   H28649814   2.300   0.431   3.029 -0.0596  0.2435  0.0087
  165MOL   C28749815   2.091   0.387   3.098  0.0468  0.4281 -0.0192
  165MOL   O28849816   2.117   0.249   3.100  0.0997 -0.3518 -0.5389
  165MOL   C28949817   2.046   0.168   3.023 -0.5549 -0.4504 -0.2754
  165MOL   O29049818   1.967   0.204   2.931  0.4384  0.2982 -0.0681
  165MOL   C29149819   2.065   0.017   3.048  0.0901  0.0161 -0.5277
  165MOL   C29249820   2.212   7.917   3.039 -0.7881 -0.3173  0.2806
  165MOL   C29349821   2.106   0.459   3.235 -0.5231  0.1578  0.9308
  165MOL   H29449822   1.994   0.415   3.057 -1.4552 -3.0699  0.9959
  165MOL   H29549823   2.019   7.940   3.144 -1.8720  1.9948 -0.9756
  165MOL   H29649824   2.007   7.901   2.978 -0.7328 -1.3428  1.3170
  165MOL   H29749825   2.230   7.811   3.058 -1.8630 -0.4309  0.6906
  165MOL   H29849826   2.251   7.942   2.940  0.7469  0.5378  1.0815
  165MOL   H29949827   2.281   0.008   3.114 -0.5606  0.4527 -0.2894
  165MOL   H30049828   2.047   0.411   3.314  0.5096 -0.4895  1.3299
  165MOL   H30149829   2.210   0.455   3.270  0.8023  1.0398 -2.7223
  165MOL   H30249830   2.079   0.564   3.232 -1.8633 -0.0691  3.3703
   7.94482   7.94482   7.94482
