;
; Gromacs include topology (itp) file.
; For Molecular Group XYZ
; Force field scheme: opls2005
; Produced from DL_FIELD v4.11
;


[ moleculetype ]
; name    nrexcl
XYZ    3

[ atoms ]
; nr   type   resnr   residu    atom    cgnr    charge    mass
    1        CT    1  MOL      C1     1   0.1900000   12.0115
    2       OES    1  MOL      O2     2  -0.3300000   15.9994
    3       CO4    1  MOL      C3     3   0.5100000   12.0115
    4         O    1  MOL      O4     4  -0.4300000   15.9994
    5        CT    1  MOL      C5     5  -0.1200000   12.0115
    6        CT    1  MOL      C6     6  -0.1800000   12.0115
    7        CT    1  MOL      C7     7  -0.1200000   12.0115
    8       HAE    1  MOL      H8     8   0.0300000    1.0080
    9       HAE    1  MOL      H9     9   0.0600000    1.0080
   10       HAE    1  MOL     H10    10   0.0600000    1.0080
   11        HC    1  MOL     H11    11   0.0600000    1.0080
   12        HC    1  MOL     H12    12   0.0600000    1.0080
   13        HC    1  MOL     H13    13   0.0600000    1.0080
   14        HC    1  MOL     H14    14   0.0600000    1.0080
   15        HC    1  MOL     H15    15   0.0600000    1.0080
   16       HAE    1  MOL     H16    16   0.0300000    1.0080
   17        CT    1  MOL     C17    17   0.2200000   12.0115
   18       OES    1  MOL     O18    18  -0.3300000   15.9994
   19       CO4    1  MOL     C19    19   0.5100000   12.0115
   20         O    1  MOL     O20    20  -0.4300000   15.9994
   21        CT    1  MOL     C21    21  -0.1200000   12.0115
   22        CT    1  MOL     C22    22  -0.1800000   12.0115
   23        CT    1  MOL     C23    23  -0.1200000   12.0115
   24       HAE    1  MOL     H24    24   0.0300000    1.0080
   25       HAE    1  MOL     H25    25   0.0600000    1.0080
   26       HAE    1  MOL     H26    26   0.0600000    1.0080
   27        HC    1  MOL     H27    27   0.0600000    1.0080
   28        HC    1  MOL     H28    28   0.0600000    1.0080
   29        HC    1  MOL     H29    29   0.0600000    1.0080
   30        HC    1  MOL     H30    30   0.0600000    1.0080
   31        HC    1  MOL     H31    31   0.0600000    1.0080
   32        CT    1  MOL     C32    32   0.2200000   12.0115
   33       OES    1  MOL     O33    33  -0.3300000   15.9994
   34       CO4    1  MOL     C34    34   0.5100000   12.0115
   35         O    1  MOL     O35    35  -0.4300000   15.9994
   36        CT    1  MOL     C36    36  -0.1200000   12.0115
   37        CT    1  MOL     C37    37  -0.1800000   12.0115
   38        CT    1  MOL     C38    38  -0.1200000   12.0115
   39       HAE    1  MOL     H39    39   0.0300000    1.0080
   40       HAE    1  MOL     H40    40   0.0600000    1.0080
   41       HAE    1  MOL     H41    41   0.0600000    1.0080
   42        HC    1  MOL     H42    42   0.0600000    1.0080
   43        HC    1  MOL     H43    43   0.0600000    1.0080
   44        HC    1  MOL     H44    44   0.0600000    1.0080
   45        HC    1  MOL     H45    45   0.0600000    1.0080
   46        HC    1  MOL     H46    46   0.0600000    1.0080
   47        CT    1  MOL     C47    47   0.2200000   12.0115
   48       OES    1  MOL     O48    48  -0.3300000   15.9994
   49       CO4    1  MOL     C49    49   0.5100000   12.0115
   50         O    1  MOL     O50    50  -0.4300000   15.9994
   51        CT    1  MOL     C51    51  -0.1200000   12.0115
   52        CT    1  MOL     C52    52  -0.1800000   12.0115
   53        CT    1  MOL     C53    53  -0.1200000   12.0115
   54       HAE    1  MOL     H54    54   0.0300000    1.0080
   55       HAE    1  MOL     H55    55   0.0600000    1.0080
   56       HAE    1  MOL     H56    56   0.0600000    1.0080
   57        HC    1  MOL     H57    57   0.0600000    1.0080
   58        HC    1  MOL     H58    58   0.0600000    1.0080
   59        HC    1  MOL     H59    59   0.0600000    1.0080
   60        HC    1  MOL     H60    60   0.0600000    1.0080
   61        HC    1  MOL     H61    61   0.0600000    1.0080
   62        CT    1  MOL     C62    62   0.2200000   12.0115
   63       OES    1  MOL     O63    63  -0.3300000   15.9994
   64       CO4    1  MOL     C64    64   0.5100000   12.0115
   65         O    1  MOL     O65    65  -0.4300000   15.9994
   66        CT    1  MOL     C66    66  -0.1200000   12.0115
   67        CT    1  MOL     C67    67  -0.1800000   12.0115
   68        CT    1  MOL     C68    68  -0.1200000   12.0115
   69       HAE    1  MOL     H69    69   0.0300000    1.0080
   70       HAE    1  MOL     H70    70   0.0600000    1.0080
   71       HAE    1  MOL     H71    71   0.0600000    1.0080
   72        HC    1  MOL     H72    72   0.0600000    1.0080
   73        HC    1  MOL     H73    73   0.0600000    1.0080
   74        HC    1  MOL     H74    74   0.0600000    1.0080
   75        HC    1  MOL     H75    75   0.0600000    1.0080
   76        HC    1  MOL     H76    76   0.0600000    1.0080
   77        CT    1  MOL     C77    77   0.2200000   12.0115
   78       OES    1  MOL     O78    78  -0.3300000   15.9994
   79       CO4    1  MOL     C79    79   0.5100000   12.0115
   80         O    1  MOL     O80    80  -0.4300000   15.9994
   81        CT    1  MOL     C81    81  -0.1200000   12.0115
   82        CT    1  MOL     C82    82  -0.1800000   12.0115
   83        CT    1  MOL     C83    83  -0.1200000   12.0115
   84       HAE    1  MOL     H84    84   0.0300000    1.0080
   85       HAE    1  MOL     H85    85   0.0600000    1.0080
   86       HAE    1  MOL     H86    86   0.0600000    1.0080
   87        HC    1  MOL     H87    87   0.0600000    1.0080
   88        HC    1  MOL     H88    88   0.0600000    1.0080
   89        HC    1  MOL     H89    89   0.0600000    1.0080
   90        HC    1  MOL     H90    90   0.0600000    1.0080
   91        HC    1  MOL     H91    91   0.0600000    1.0080
   92        CT    1  MOL     C92    92   0.2200000   12.0115
   93       OES    1  MOL     O93    93  -0.3300000   15.9994
   94       CO4    1  MOL     C94    94   0.5100000   12.0115
   95         O    1  MOL     O95    95  -0.4300000   15.9994
   96        CT    1  MOL     C96    96  -0.1200000   12.0115
   97        CT    1  MOL     C97    97  -0.1800000   12.0115
   98        CT    1  MOL     C98    98  -0.1200000   12.0115
   99       HAE    1  MOL     H99    99   0.0300000    1.0080
  100       HAE    1  MOL    H100   100   0.0600000    1.0080
  101       HAE    1  MOL    H101   101   0.0600000    1.0080
  102        HC    1  MOL    H102   102   0.0600000    1.0080
  103        HC    1  MOL    H103   103   0.0600000    1.0080
  104        HC    1  MOL    H104   104   0.0600000    1.0080
  105        HC    1  MOL    H105   105   0.0600000    1.0080
  106        HC    1  MOL    H106   106   0.0600000    1.0080
  107        CT    1  MOL    C107   107   0.2200000   12.0115
  108       OES    1  MOL    O108   108  -0.3300000   15.9994
  109       CO4    1  MOL    C109   109   0.5100000   12.0115
  110         O    1  MOL    O110   110  -0.4300000   15.9994
  111        CT    1  MOL    C111   111  -0.1200000   12.0115
  112        CT    1  MOL    C112   112  -0.1800000   12.0115
  113        CT    1  MOL    C113   113  -0.1200000   12.0115
  114       HAE    1  MOL    H114   114   0.0300000    1.0080
  115       HAE    1  MOL    H115   115   0.0600000    1.0080
  116       HAE    1  MOL    H116   116   0.0600000    1.0080
  117        HC    1  MOL    H117   117   0.0600000    1.0080
  118        HC    1  MOL    H118   118   0.0600000    1.0080
  119        HC    1  MOL    H119   119   0.0600000    1.0080
  120        HC    1  MOL    H120   120   0.0600000    1.0080
  121        HC    1  MOL    H121   121   0.0600000    1.0080
  122        CT    1  MOL    C122   122   0.2200000   12.0115
  123       OES    1  MOL    O123   123  -0.3300000   15.9994
  124       CO4    1  MOL    C124   124   0.5100000   12.0115
  125         O    1  MOL    O125   125  -0.4300000   15.9994
  126        CT    1  MOL    C126   126  -0.1200000   12.0115
  127        CT    1  MOL    C127   127  -0.1800000   12.0115
  128        CT    1  MOL    C128   128  -0.1200000   12.0115
  129       HAE    1  MOL    H129   129   0.0300000    1.0080
  130       HAE    1  MOL    H130   130   0.0600000    1.0080
  131       HAE    1  MOL    H131   131   0.0600000    1.0080
  132        HC    1  MOL    H132   132   0.0600000    1.0080
  133        HC    1  MOL    H133   133   0.0600000    1.0080
  134        HC    1  MOL    H134   134   0.0600000    1.0080
  135        HC    1  MOL    H135   135   0.0600000    1.0080
  136        HC    1  MOL    H136   136   0.0600000    1.0080
  137        CT    1  MOL    C137   137   0.2200000   12.0115
  138       OES    1  MOL    O138   138  -0.3300000   15.9994
  139       CO4    1  MOL    C139   139   0.5100000   12.0115
  140         O    1  MOL    O140   140  -0.4300000   15.9994
  141        CT    1  MOL    C141   141  -0.1200000   12.0115
  142        CT    1  MOL    C142   142  -0.1800000   12.0115
  143        CT    1  MOL    C143   143  -0.1200000   12.0115
  144       HAE    1  MOL    H144   144   0.0300000    1.0080
  145       HAE    1  MOL    H145   145   0.0600000    1.0080
  146       HAE    1  MOL    H146   146   0.0600000    1.0080
  147        HC    1  MOL    H147   147   0.0600000    1.0080
  148        HC    1  MOL    H148   148   0.0600000    1.0080
  149        HC    1  MOL    H149   149   0.0600000    1.0080
  150        HC    1  MOL    H150   150   0.0600000    1.0080
  151        HC    1  MOL    H151   151   0.0600000    1.0080
  152        CT    1  MOL    C152   152   0.2200000   12.0115
  153       OES    1  MOL    O153   153  -0.3300000   15.9994
  154       CO4    1  MOL    C154   154   0.5100000   12.0115
  155         O    1  MOL    O155   155  -0.4300000   15.9994
  156        CT    1  MOL    C156   156  -0.1200000   12.0115
  157        CT    1  MOL    C157   157  -0.1800000   12.0115
  158        CT    1  MOL    C158   158  -0.1200000   12.0115
  159       HAE    1  MOL    H159   159   0.0300000    1.0080
  160       HAE    1  MOL    H160   160   0.0600000    1.0080
  161       HAE    1  MOL    H161   161   0.0600000    1.0080
  162        HC    1  MOL    H162   162   0.0600000    1.0080
  163        HC    1  MOL    H163   163   0.0600000    1.0080
  164        HC    1  MOL    H164   164   0.0600000    1.0080
  165        HC    1  MOL    H165   165   0.0600000    1.0080
  166        HC    1  MOL    H166   166   0.0600000    1.0080
  167        CT    1  MOL    C167   167   0.2200000   12.0115
  168       OES    1  MOL    O168   168  -0.3300000   15.9994
  169       CO4    1  MOL    C169   169   0.5100000   12.0115
  170         O    1  MOL    O170   170  -0.4300000   15.9994
  171        CT    1  MOL    C171   171  -0.1200000   12.0115
  172        CT    1  MOL    C172   172  -0.1800000   12.0115
  173        CT    1  MOL    C173   173  -0.1200000   12.0115
  174       HAE    1  MOL    H174   174   0.0300000    1.0080
  175       HAE    1  MOL    H175   175   0.0600000    1.0080
  176       HAE    1  MOL    H176   176   0.0600000    1.0080
  177        HC    1  MOL    H177   177   0.0600000    1.0080
  178        HC    1  MOL    H178   178   0.0600000    1.0080
  179        HC    1  MOL    H179   179   0.0600000    1.0080
  180        HC    1  MOL    H180   180   0.0600000    1.0080
  181        HC    1  MOL    H181   181   0.0600000    1.0080
  182        CT    1  MOL    C182   182   0.2200000   12.0115
  183       OES    1  MOL    O183   183  -0.3300000   15.9994
  184       CO4    1  MOL    C184   184   0.5100000   12.0115
  185         O    1  MOL    O185   185  -0.4300000   15.9994
  186        CT    1  MOL    C186   186  -0.1200000   12.0115
  187        CT    1  MOL    C187   187  -0.1800000   12.0115
  188        CT    1  MOL    C188   188  -0.1200000   12.0115
  189       HAE    1  MOL    H189   189   0.0300000    1.0080
  190       HAE    1  MOL    H190   190   0.0600000    1.0080
  191       HAE    1  MOL    H191   191   0.0600000    1.0080
  192        HC    1  MOL    H192   192   0.0600000    1.0080
  193        HC    1  MOL    H193   193   0.0600000    1.0080
  194        HC    1  MOL    H194   194   0.0600000    1.0080
  195        HC    1  MOL    H195   195   0.0600000    1.0080
  196        HC    1  MOL    H196   196   0.0600000    1.0080
  197        CT    1  MOL    C197   197   0.2200000   12.0115
  198       OES    1  MOL    O198   198  -0.3300000   15.9994
  199       CO4    1  MOL    C199   199   0.5100000   12.0115
  200         O    1  MOL    O200   200  -0.4300000   15.9994
  201        CT    1  MOL    C201   201  -0.1200000   12.0115
  202        CT    1  MOL    C202   202  -0.1800000   12.0115
  203        CT    1  MOL    C203   203  -0.1200000   12.0115
  204       HAE    1  MOL    H204   204   0.0300000    1.0080
  205       HAE    1  MOL    H205   205   0.0600000    1.0080
  206       HAE    1  MOL    H206   206   0.0600000    1.0080
  207        HC    1  MOL    H207   207   0.0600000    1.0080
  208        HC    1  MOL    H208   208   0.0600000    1.0080
  209        HC    1  MOL    H209   209   0.0600000    1.0080
  210        HC    1  MOL    H210   210   0.0600000    1.0080
  211        HC    1  MOL    H211   211   0.0600000    1.0080
  212        CT    1  MOL    C212   212   0.2200000   12.0115
  213       OES    1  MOL    O213   213  -0.3300000   15.9994
  214       CO4    1  MOL    C214   214   0.5100000   12.0115
  215         O    1  MOL    O215   215  -0.4300000   15.9994
  216        CT    1  MOL    C216   216  -0.1200000   12.0115
  217        CT    1  MOL    C217   217  -0.1800000   12.0115
  218        CT    1  MOL    C218   218  -0.1200000   12.0115
  219       HAE    1  MOL    H219   219   0.0300000    1.0080
  220       HAE    1  MOL    H220   220   0.0600000    1.0080
  221       HAE    1  MOL    H221   221   0.0600000    1.0080
  222        HC    1  MOL    H222   222   0.0600000    1.0080
  223        HC    1  MOL    H223   223   0.0600000    1.0080
  224        HC    1  MOL    H224   224   0.0600000    1.0080
  225        HC    1  MOL    H225   225   0.0600000    1.0080
  226        HC    1  MOL    H226   226   0.0600000    1.0080
  227        CT    1  MOL    C227   227   0.2200000   12.0115
  228       OES    1  MOL    O228   228  -0.3300000   15.9994
  229       CO4    1  MOL    C229   229   0.5100000   12.0115
  230         O    1  MOL    O230   230  -0.4300000   15.9994
  231        CT    1  MOL    C231   231  -0.1200000   12.0115
  232        CT    1  MOL    C232   232  -0.1800000   12.0115
  233        CT    1  MOL    C233   233  -0.1200000   12.0115
  234       HAE    1  MOL    H234   234   0.0300000    1.0080
  235       HAE    1  MOL    H235   235   0.0600000    1.0080
  236       HAE    1  MOL    H236   236   0.0600000    1.0080
  237        HC    1  MOL    H237   237   0.0600000    1.0080
  238        HC    1  MOL    H238   238   0.0600000    1.0080
  239        HC    1  MOL    H239   239   0.0600000    1.0080
  240        HC    1  MOL    H240   240   0.0600000    1.0080
  241        HC    1  MOL    H241   241   0.0600000    1.0080
  242        CT    1  MOL    C242   242   0.2200000   12.0115
  243       OES    1  MOL    O243   243  -0.3300000   15.9994
  244       CO4    1  MOL    C244   244   0.5100000   12.0115
  245         O    1  MOL    O245   245  -0.4300000   15.9994
  246        CT    1  MOL    C246   246  -0.1200000   12.0115
  247        CT    1  MOL    C247   247  -0.1800000   12.0115
  248        CT    1  MOL    C248   248  -0.1200000   12.0115
  249       HAE    1  MOL    H249   249   0.0300000    1.0080
  250       HAE    1  MOL    H250   250   0.0600000    1.0080
  251       HAE    1  MOL    H251   251   0.0600000    1.0080
  252        HC    1  MOL    H252   252   0.0600000    1.0080
  253        HC    1  MOL    H253   253   0.0600000    1.0080
  254        HC    1  MOL    H254   254   0.0600000    1.0080
  255        HC    1  MOL    H255   255   0.0600000    1.0080
  256        HC    1  MOL    H256   256   0.0600000    1.0080
  257        CT    1  MOL    C257   257   0.2200000   12.0115
  258       OES    1  MOL    O258   258  -0.3300000   15.9994
  259       CO4    1  MOL    C259   259   0.5100000   12.0115
  260         O    1  MOL    O260   260  -0.4300000   15.9994
  261        CT    1  MOL    C261   261  -0.1200000   12.0115
  262        CT    1  MOL    C262   262  -0.1800000   12.0115
  263        CT    1  MOL    C263   263  -0.1200000   12.0115
  264       HAE    1  MOL    H264   264   0.0300000    1.0080
  265       HAE    1  MOL    H265   265   0.0600000    1.0080
  266       HAE    1  MOL    H266   266   0.0600000    1.0080
  267        HC    1  MOL    H267   267   0.0600000    1.0080
  268        HC    1  MOL    H268   268   0.0600000    1.0080
  269        HC    1  MOL    H269   269   0.0600000    1.0080
  270        HC    1  MOL    H270   270   0.0600000    1.0080
  271        HC    1  MOL    H271   271   0.0600000    1.0080
  272        CT    1  MOL    C272   272   0.2200000   12.0115
  273       OES    1  MOL    O273   273  -0.3300000   15.9994
  274       CO4    1  MOL    C274   274   0.5100000   12.0115
  275         O    1  MOL    O275   275  -0.4300000   15.9994
  276        CT    1  MOL    C276   276  -0.1200000   12.0115
  277        CT    1  MOL    C277   277  -0.1800000   12.0115
  278        CT    1  MOL    C278   278  -0.1200000   12.0115
  279       HAE    1  MOL    H279   279   0.0300000    1.0080
  280       HAE    1  MOL    H280   280   0.0600000    1.0080
  281       HAE    1  MOL    H281   281   0.0600000    1.0080
  282        HC    1  MOL    H282   282   0.0600000    1.0080
  283        HC    1  MOL    H283   283   0.0600000    1.0080
  284        HC    1  MOL    H284   284   0.0600000    1.0080
  285        HC    1  MOL    H285   285   0.0600000    1.0080
  286        HC    1  MOL    H286   286   0.0600000    1.0080
  287        CT    1  MOL    C287   287   0.2200000   12.0115
  288       OES    1  MOL    O288   288  -0.3300000   15.9994
  289       CO4    1  MOL    C289   289   0.5100000   12.0115
  290         O    1  MOL    O290   290  -0.4300000   15.9994
  291        CT    1  MOL    C291   291  -0.1200000   12.0115
  292        CT    1  MOL    C292   292  -0.1800000   12.0115
  293        CT    1  MOL    C293   293  -0.1800000   12.0115
  294       HAE    1  MOL    H294   294   0.0300000    1.0080
  295       HAE    1  MOL    H295   295   0.0600000    1.0080
  296       HAE    1  MOL    H296   296   0.0600000    1.0080
  297        HC    1  MOL    H297   297   0.0600000    1.0080
  298        HC    1  MOL    H298   298   0.0600000    1.0080
  299        HC    1  MOL    H299   299   0.0600000    1.0080
  300        HC    1  MOL    H300   300   0.0600000    1.0080
  301        HC    1  MOL    H301   301   0.0600000    1.0080
  302        HC    1  MOL    H302   302   0.0600000    1.0080

[ bonds ]
      1      2   1      0.1410 267776.0000
      1      7   1      0.1529 224262.4000
      1      8   1      0.1090 284512.0000
      1     16   1      0.1090 284512.0000
      2      3   1      0.1327 179075.2000
      3      4   1      0.1229 476976.0000
      3      5   1      0.1522 265265.6000
      5      6   1      0.1529 224262.4000
      5      9   1      0.1090 284512.0000
      5     10   1      0.1090 284512.0000
      6     11   1      0.1090 284512.0000
      6     12   1      0.1090 284512.0000
      6     13   1      0.1090 284512.0000
      7     14   1      0.1090 284512.0000
      7     15   1      0.1090 284512.0000
      7     17   1      0.1529 224262.4000
     17     18   1      0.1410 267776.0000
     17     23   1      0.1529 224262.4000
     17     24   1      0.1090 284512.0000
     18     19   1      0.1327 179075.2000
     19     20   1      0.1229 476976.0000
     19     21   1      0.1522 265265.6000
     21     22   1      0.1529 224262.4000
     21     25   1      0.1090 284512.0000
     21     26   1      0.1090 284512.0000
     22     27   1      0.1090 284512.0000
     22     28   1      0.1090 284512.0000
     22     29   1      0.1090 284512.0000
     23     30   1      0.1090 284512.0000
     23     31   1      0.1090 284512.0000
     23     32   1      0.1529 224262.4000
     32     33   1      0.1410 267776.0000
     32     38   1      0.1529 224262.4000
     32     39   1      0.1090 284512.0000
     33     34   1      0.1327 179075.2000
     34     35   1      0.1229 476976.0000
     34     36   1      0.1522 265265.6000
     36     37   1      0.1529 224262.4000
     36     40   1      0.1090 284512.0000
     36     41   1      0.1090 284512.0000
     37     42   1      0.1090 284512.0000
     37     43   1      0.1090 284512.0000
     37     44   1      0.1090 284512.0000
     38     45   1      0.1090 284512.0000
     38     46   1      0.1090 284512.0000
     38     47   1      0.1529 224262.4000
     47     48   1      0.1410 267776.0000
     47     53   1      0.1529 224262.4000
     47     54   1      0.1090 284512.0000
     48     49   1      0.1327 179075.2000
     49     50   1      0.1229 476976.0000
     49     51   1      0.1522 265265.6000
     51     52   1      0.1529 224262.4000
     51     55   1      0.1090 284512.0000
     51     56   1      0.1090 284512.0000
     52     57   1      0.1090 284512.0000
     52     58   1      0.1090 284512.0000
     52     59   1      0.1090 284512.0000
     53     60   1      0.1090 284512.0000
     53     61   1      0.1090 284512.0000
     53     62   1      0.1529 224262.4000
     62     63   1      0.1410 267776.0000
     62     68   1      0.1529 224262.4000
     62     69   1      0.1090 284512.0000
     63     64   1      0.1327 179075.2000
     64     65   1      0.1229 476976.0000
     64     66   1      0.1522 265265.6000
     66     67   1      0.1529 224262.4000
     66     70   1      0.1090 284512.0000
     66     71   1      0.1090 284512.0000
     67     72   1      0.1090 284512.0000
     67     73   1      0.1090 284512.0000
     67     74   1      0.1090 284512.0000
     68     75   1      0.1090 284512.0000
     68     76   1      0.1090 284512.0000
     68     77   1      0.1529 224262.4000
     77     78   1      0.1410 267776.0000
     77     83   1      0.1529 224262.4000
     77     84   1      0.1090 284512.0000
     78     79   1      0.1327 179075.2000
     79     80   1      0.1229 476976.0000
     79     81   1      0.1522 265265.6000
     81     82   1      0.1529 224262.4000
     81     85   1      0.1090 284512.0000
     81     86   1      0.1090 284512.0000
     82     87   1      0.1090 284512.0000
     82     88   1      0.1090 284512.0000
     82     89   1      0.1090 284512.0000
     83     90   1      0.1090 284512.0000
     83     91   1      0.1090 284512.0000
     83     92   1      0.1529 224262.4000
     92     93   1      0.1410 267776.0000
     92     98   1      0.1529 224262.4000
     92     99   1      0.1090 284512.0000
     93     94   1      0.1327 179075.2000
     94     95   1      0.1229 476976.0000
     94     96   1      0.1522 265265.6000
     96     97   1      0.1529 224262.4000
     96    100   1      0.1090 284512.0000
     96    101   1      0.1090 284512.0000
     97    102   1      0.1090 284512.0000
     97    103   1      0.1090 284512.0000
     97    104   1      0.1090 284512.0000
     98    105   1      0.1090 284512.0000
     98    106   1      0.1090 284512.0000
     98    107   1      0.1529 224262.4000
    107    108   1      0.1410 267776.0000
    107    113   1      0.1529 224262.4000
    107    114   1      0.1090 284512.0000
    108    109   1      0.1327 179075.2000
    109    110   1      0.1229 476976.0000
    109    111   1      0.1522 265265.6000
    111    112   1      0.1529 224262.4000
    111    115   1      0.1090 284512.0000
    111    116   1      0.1090 284512.0000
    112    117   1      0.1090 284512.0000
    112    118   1      0.1090 284512.0000
    112    119   1      0.1090 284512.0000
    113    120   1      0.1090 284512.0000
    113    121   1      0.1090 284512.0000
    113    122   1      0.1529 224262.4000
    122    123   1      0.1410 267776.0000
    122    128   1      0.1529 224262.4000
    122    129   1      0.1090 284512.0000
    123    124   1      0.1327 179075.2000
    124    125   1      0.1229 476976.0000
    124    126   1      0.1522 265265.6000
    126    127   1      0.1529 224262.4000
    126    130   1      0.1090 284512.0000
    126    131   1      0.1090 284512.0000
    127    132   1      0.1090 284512.0000
    127    133   1      0.1090 284512.0000
    127    134   1      0.1090 284512.0000
    128    135   1      0.1090 284512.0000
    128    136   1      0.1090 284512.0000
    128    137   1      0.1529 224262.4000
    137    138   1      0.1410 267776.0000
    137    143   1      0.1529 224262.4000
    137    144   1      0.1090 284512.0000
    138    139   1      0.1327 179075.2000
    139    140   1      0.1229 476976.0000
    139    141   1      0.1522 265265.6000
    141    142   1      0.1529 224262.4000
    141    145   1      0.1090 284512.0000
    141    146   1      0.1090 284512.0000
    142    147   1      0.1090 284512.0000
    142    148   1      0.1090 284512.0000
    142    149   1      0.1090 284512.0000
    143    150   1      0.1090 284512.0000
    143    151   1      0.1090 284512.0000
    143    152   1      0.1529 224262.4000
    152    153   1      0.1410 267776.0000
    152    158   1      0.1529 224262.4000
    152    159   1      0.1090 284512.0000
    153    154   1      0.1327 179075.2000
    154    155   1      0.1229 476976.0000
    154    156   1      0.1522 265265.6000
    156    157   1      0.1529 224262.4000
    156    160   1      0.1090 284512.0000
    156    161   1      0.1090 284512.0000
    157    162   1      0.1090 284512.0000
    157    163   1      0.1090 284512.0000
    157    164   1      0.1090 284512.0000
    158    165   1      0.1090 284512.0000
    158    166   1      0.1090 284512.0000
    158    167   1      0.1529 224262.4000
    167    168   1      0.1410 267776.0000
    167    173   1      0.1529 224262.4000
    167    174   1      0.1090 284512.0000
    168    169   1      0.1327 179075.2000
    169    170   1      0.1229 476976.0000
    169    171   1      0.1522 265265.6000
    171    172   1      0.1529 224262.4000
    171    175   1      0.1090 284512.0000
    171    176   1      0.1090 284512.0000
    172    177   1      0.1090 284512.0000
    172    178   1      0.1090 284512.0000
    172    179   1      0.1090 284512.0000
    173    180   1      0.1090 284512.0000
    173    181   1      0.1090 284512.0000
    173    182   1      0.1529 224262.4000
    182    183   1      0.1410 267776.0000
    182    188   1      0.1529 224262.4000
    182    189   1      0.1090 284512.0000
    183    184   1      0.1327 179075.2000
    184    185   1      0.1229 476976.0000
    184    186   1      0.1522 265265.6000
    186    187   1      0.1529 224262.4000
    186    190   1      0.1090 284512.0000
    186    191   1      0.1090 284512.0000
    187    192   1      0.1090 284512.0000
    187    193   1      0.1090 284512.0000
    187    194   1      0.1090 284512.0000
    188    195   1      0.1090 284512.0000
    188    196   1      0.1090 284512.0000
    188    197   1      0.1529 224262.4000
    197    198   1      0.1410 267776.0000
    197    203   1      0.1529 224262.4000
    197    204   1      0.1090 284512.0000
    198    199   1      0.1327 179075.2000
    199    200   1      0.1229 476976.0000
    199    201   1      0.1522 265265.6000
    201    202   1      0.1529 224262.4000
    201    205   1      0.1090 284512.0000
    201    206   1      0.1090 284512.0000
    202    207   1      0.1090 284512.0000
    202    208   1      0.1090 284512.0000
    202    209   1      0.1090 284512.0000
    203    210   1      0.1090 284512.0000
    203    211   1      0.1090 284512.0000
    203    212   1      0.1529 224262.4000
    212    213   1      0.1410 267776.0000
    212    218   1      0.1529 224262.4000
    212    219   1      0.1090 284512.0000
    213    214   1      0.1327 179075.2000
    214    215   1      0.1229 476976.0000
    214    216   1      0.1522 265265.6000
    216    217   1      0.1529 224262.4000
    216    220   1      0.1090 284512.0000
    216    221   1      0.1090 284512.0000
    217    222   1      0.1090 284512.0000
    217    223   1      0.1090 284512.0000
    217    224   1      0.1090 284512.0000
    218    225   1      0.1090 284512.0000
    218    226   1      0.1090 284512.0000
    218    227   1      0.1529 224262.4000
    227    228   1      0.1410 267776.0000
    227    233   1      0.1529 224262.4000
    227    234   1      0.1090 284512.0000
    228    229   1      0.1327 179075.2000
    229    230   1      0.1229 476976.0000
    229    231   1      0.1522 265265.6000
    231    232   1      0.1529 224262.4000
    231    235   1      0.1090 284512.0000
    231    236   1      0.1090 284512.0000
    232    237   1      0.1090 284512.0000
    232    238   1      0.1090 284512.0000
    232    239   1      0.1090 284512.0000
    233    240   1      0.1090 284512.0000
    233    241   1      0.1090 284512.0000
    233    242   1      0.1529 224262.4000
    242    243   1      0.1410 267776.0000
    242    248   1      0.1529 224262.4000
    242    249   1      0.1090 284512.0000
    243    244   1      0.1327 179075.2000
    244    245   1      0.1229 476976.0000
    244    246   1      0.1522 265265.6000
    246    247   1      0.1529 224262.4000
    246    250   1      0.1090 284512.0000
    246    251   1      0.1090 284512.0000
    247    252   1      0.1090 284512.0000
    247    253   1      0.1090 284512.0000
    247    254   1      0.1090 284512.0000
    248    255   1      0.1090 284512.0000
    248    256   1      0.1090 284512.0000
    248    257   1      0.1529 224262.4000
    257    258   1      0.1410 267776.0000
    257    263   1      0.1529 224262.4000
    257    264   1      0.1090 284512.0000
    258    259   1      0.1327 179075.2000
    259    260   1      0.1229 476976.0000
    259    261   1      0.1522 265265.6000
    261    262   1      0.1529 224262.4000
    261    265   1      0.1090 284512.0000
    261    266   1      0.1090 284512.0000
    262    267   1      0.1090 284512.0000
    262    268   1      0.1090 284512.0000
    262    269   1      0.1090 284512.0000
    263    270   1      0.1090 284512.0000
    263    271   1      0.1090 284512.0000
    263    272   1      0.1529 224262.4000
    272    273   1      0.1410 267776.0000
    272    278   1      0.1529 224262.4000
    272    279   1      0.1090 284512.0000
    273    274   1      0.1327 179075.2000
    274    275   1      0.1229 476976.0000
    274    276   1      0.1522 265265.6000
    276    277   1      0.1529 224262.4000
    276    280   1      0.1090 284512.0000
    276    281   1      0.1090 284512.0000
    277    282   1      0.1090 284512.0000
    277    283   1      0.1090 284512.0000
    277    284   1      0.1090 284512.0000
    278    285   1      0.1090 284512.0000
    278    286   1      0.1090 284512.0000
    278    287   1      0.1529 224262.4000
    287    288   1      0.1410 267776.0000
    287    293   1      0.1529 224262.4000
    287    294   1      0.1090 284512.0000
    288    289   1      0.1327 179075.2000
    289    290   1      0.1229 476976.0000
    289    291   1      0.1522 265265.6000
    291    292   1      0.1529 224262.4000
    291    295   1      0.1090 284512.0000
    291    296   1      0.1090 284512.0000
    292    297   1      0.1090 284512.0000
    292    298   1      0.1090 284512.0000
    292    299   1      0.1090 284512.0000
    293    300   1      0.1090 284512.0000
    293    301   1      0.1090 284512.0000
    293    302   1      0.1090 284512.0000

[ pairs ]
; ai   aj   funct   fudge_QQ  charge_i   charge_j   c6    c12
      7      3   2   0.50000    -0.1200000    0.5100000   1.575021e-03  3.561100e-06
      8      3   2   0.50000     0.0300000    0.5100000   2.482000e-04  1.854991e-07
     16      3   2   0.50000     0.0300000    0.5100000   2.482000e-04  1.854991e-07
      2     14   2   0.50000    -0.3300000    0.0600000   2.521103e-04  1.063590e-07
      2     15   2   0.50000    -0.3300000    0.0600000   2.521103e-04  1.063590e-07
      2     17   2   0.50000    -0.3300000    0.2200000   1.026091e-03  1.187829e-06
      8     14   2   0.50000     0.0300000    0.0600000   3.930919e-05  8.704828e-09
      8     15   2   0.50000     0.0300000    0.0600000   3.930919e-05  8.704828e-09
      8     17   2   0.50000     0.0300000    0.2200000   1.599888e-04  9.721644e-08
     16     14   2   0.50000     0.0300000    0.0600000   3.930919e-05  8.704828e-09
     16     15   2   0.50000     0.0300000    0.0600000   3.930919e-05  8.704828e-09
     16     17   2   0.50000     0.0300000    0.2200000   1.599888e-04  9.721644e-08
      1      4   2   0.50000     0.1900000   -0.4300000   1.095425e-03  1.218041e-06
      1      5   2   0.50000     0.1900000   -0.1200000   1.015252e-03  1.866303e-06
      2      6   2   0.50000    -0.3300000   -0.1800000   1.026091e-03  1.187829e-06
      2      9   2   0.50000    -0.3300000    0.0600000   1.616969e-04  6.187447e-08
      2     10   2   0.50000    -0.3300000    0.0600000   1.616969e-04  6.187447e-08
      4      6   2   0.50000    -0.4300000   -0.1800000   1.095425e-03  1.218041e-06
      4      9   2   0.50000    -0.4300000    0.0600000   1.726228e-04  6.344822e-08
      4     10   2   0.50000    -0.4300000    0.0600000   1.726228e-04  6.344822e-08
      3     11   2   0.50000     0.5100000    0.0600000   3.869820e-04  3.188634e-07
      3     12   2   0.50000     0.5100000    0.0600000   3.869820e-04  3.188634e-07
      3     13   2   0.50000     0.5100000    0.0600000   3.869820e-04  3.188634e-07
      9     11   2   0.50000     0.0600000    0.0600000   3.930919e-05  8.704828e-09
      9     12   2   0.50000     0.0600000    0.0600000   3.930919e-05  8.704828e-09
      9     13   2   0.50000     0.0600000    0.0600000   3.930919e-05  8.704828e-09
     10     11   2   0.50000     0.0600000    0.0600000   3.930919e-05  8.704828e-09
     10     12   2   0.50000     0.0600000    0.0600000   3.930919e-05  8.704828e-09
     10     13   2   0.50000     0.0600000    0.0600000   3.930919e-05  8.704828e-09
      1     18   2   0.50000     0.1900000   -0.3300000   1.026091e-03  1.187829e-06
      1     23   2   0.50000     0.1900000   -0.1200000   1.015252e-03  1.866303e-06
      1     24   2   0.50000     0.1900000    0.0300000   1.599888e-04  9.721644e-08
     14     18   2   0.50000     0.0600000   -0.3300000   2.521103e-04  1.063590e-07
     14     23   2   0.50000     0.0600000   -0.1200000   2.494471e-04  1.671101e-07
     14     24   2   0.50000     0.0600000    0.0300000   3.930919e-05  8.704828e-09
     15     18   2   0.50000     0.0600000   -0.3300000   2.521103e-04  1.063590e-07
     15     23   2   0.50000     0.0600000   -0.1200000   2.494471e-04  1.671101e-07
     15     24   2   0.50000     0.0600000    0.0300000   3.930919e-05  8.704828e-09
      7     19   2   0.50000    -0.1200000    0.5100000   1.575021e-03  3.561100e-06
     23     19   2   0.50000    -0.1200000    0.5100000   1.575021e-03  3.561100e-06
     24     19   2   0.50000     0.0300000    0.5100000   2.482000e-04  1.854991e-07
      7     30   2   0.50000    -0.1200000    0.0600000   2.494471e-04  1.671101e-07
      7     31   2   0.50000    -0.1200000    0.0600000   2.494471e-04  1.671101e-07
      7     32   2   0.50000    -0.1200000    0.2200000   1.015252e-03  1.866303e-06
     18     30   2   0.50000    -0.3300000    0.0600000   2.521103e-04  1.063590e-07
     18     31   2   0.50000    -0.3300000    0.0600000   2.521103e-04  1.063590e-07
     18     32   2   0.50000    -0.3300000    0.2200000   1.026091e-03  1.187829e-06
     24     30   2   0.50000     0.0300000    0.0600000   3.930919e-05  8.704828e-09
     24     31   2   0.50000     0.0300000    0.0600000   3.930919e-05  8.704828e-09
     24     32   2   0.50000     0.0300000    0.2200000   1.599888e-04  9.721644e-08
     17     20   2   0.50000     0.2200000   -0.4300000   1.095425e-03  1.218041e-06
     17     21   2   0.50000     0.2200000   -0.1200000   1.015252e-03  1.866303e-06
     18     22   2   0.50000    -0.3300000   -0.1800000   1.026091e-03  1.187829e-06
     18     25   2   0.50000    -0.3300000    0.0600000   1.616969e-04  6.187447e-08
     18     26   2   0.50000    -0.3300000    0.0600000   1.616969e-04  6.187447e-08
     20     22   2   0.50000    -0.4300000   -0.1800000   1.095425e-03  1.218041e-06
     20     25   2   0.50000    -0.4300000    0.0600000   1.726228e-04  6.344822e-08
     20     26   2   0.50000    -0.4300000    0.0600000   1.726228e-04  6.344822e-08
     19     27   2   0.50000     0.5100000    0.0600000   3.869820e-04  3.188634e-07
     19     28   2   0.50000     0.5100000    0.0600000   3.869820e-04  3.188634e-07
     19     29   2   0.50000     0.5100000    0.0600000   3.869820e-04  3.188634e-07
     25     27   2   0.50000     0.0600000    0.0600000   3.930919e-05  8.704828e-09
     25     28   2   0.50000     0.0600000    0.0600000   3.930919e-05  8.704828e-09
     25     29   2   0.50000     0.0600000    0.0600000   3.930919e-05  8.704828e-09
     26     27   2   0.50000     0.0600000    0.0600000   3.930919e-05  8.704828e-09
     26     28   2   0.50000     0.0600000    0.0600000   3.930919e-05  8.704828e-09
     26     29   2   0.50000     0.0600000    0.0600000   3.930919e-05  8.704828e-09
     17     33   2   0.50000     0.2200000   -0.3300000   1.026091e-03  1.187829e-06
     17     38   2   0.50000     0.2200000   -0.1200000   1.015252e-03  1.866303e-06
     17     39   2   0.50000     0.2200000    0.0300000   1.599888e-04  9.721644e-08
     30     33   2   0.50000     0.0600000   -0.3300000   2.521103e-04  1.063590e-07
     30     38   2   0.50000     0.0600000   -0.1200000   2.494471e-04  1.671101e-07
     30     39   2   0.50000     0.0600000    0.0300000   3.930919e-05  8.704828e-09
     31     33   2   0.50000     0.0600000   -0.3300000   2.521103e-04  1.063590e-07
     31     38   2   0.50000     0.0600000   -0.1200000   2.494471e-04  1.671101e-07
     31     39   2   0.50000     0.0600000    0.0300000   3.930919e-05  8.704828e-09
     23     34   2   0.50000    -0.1200000    0.5100000   1.575021e-03  3.561100e-06
     38     34   2   0.50000    -0.1200000    0.5100000   1.575021e-03  3.561100e-06
     39     34   2   0.50000     0.0300000    0.5100000   2.482000e-04  1.854991e-07
     23     45   2   0.50000    -0.1200000    0.0600000   2.494471e-04  1.671101e-07
     23     46   2   0.50000    -0.1200000    0.0600000   2.494471e-04  1.671101e-07
     23     47   2   0.50000    -0.1200000    0.2200000   1.015252e-03  1.866303e-06
     33     45   2   0.50000    -0.3300000    0.0600000   2.521103e-04  1.063590e-07
     33     46   2   0.50000    -0.3300000    0.0600000   2.521103e-04  1.063590e-07
     33     47   2   0.50000    -0.3300000    0.2200000   1.026091e-03  1.187829e-06
     39     45   2   0.50000     0.0300000    0.0600000   3.930919e-05  8.704828e-09
     39     46   2   0.50000     0.0300000    0.0600000   3.930919e-05  8.704828e-09
     39     47   2   0.50000     0.0300000    0.2200000   1.599888e-04  9.721644e-08
     32     35   2   0.50000     0.2200000   -0.4300000   1.095425e-03  1.218041e-06
     32     36   2   0.50000     0.2200000   -0.1200000   1.015252e-03  1.866303e-06
     33     37   2   0.50000    -0.3300000   -0.1800000   1.026091e-03  1.187829e-06
     33     40   2   0.50000    -0.3300000    0.0600000   1.616969e-04  6.187447e-08
     33     41   2   0.50000    -0.3300000    0.0600000   1.616969e-04  6.187447e-08
     35     37   2   0.50000    -0.4300000   -0.1800000   1.095425e-03  1.218041e-06
     35     40   2   0.50000    -0.4300000    0.0600000   1.726228e-04  6.344822e-08
     35     41   2   0.50000    -0.4300000    0.0600000   1.726228e-04  6.344822e-08
     34     42   2   0.50000     0.5100000    0.0600000   3.869820e-04  3.188634e-07
     34     43   2   0.50000     0.5100000    0.0600000   3.869820e-04  3.188634e-07
     34     44   2   0.50000     0.5100000    0.0600000   3.869820e-04  3.188634e-07
     40     42   2   0.50000     0.0600000    0.0600000   3.930919e-05  8.704828e-09
     40     43   2   0.50000     0.0600000    0.0600000   3.930919e-05  8.704828e-09
     40     44   2   0.50000     0.0600000    0.0600000   3.930919e-05  8.704828e-09
     41     42   2   0.50000     0.0600000    0.0600000   3.930919e-05  8.704828e-09
     41     43   2   0.50000     0.0600000    0.0600000   3.930919e-05  8.704828e-09
     41     44   2   0.50000     0.0600000    0.0600000   3.930919e-05  8.704828e-09
     32     48   2   0.50000     0.2200000   -0.3300000   1.026091e-03  1.187829e-06
     32     53   2   0.50000     0.2200000   -0.1200000   1.015252e-03  1.866303e-06
     32     54   2   0.50000     0.2200000    0.0300000   1.599888e-04  9.721644e-08
     45     48   2   0.50000     0.0600000   -0.3300000   2.521103e-04  1.063590e-07
     45     53   2   0.50000     0.0600000   -0.1200000   2.494471e-04  1.671101e-07
     45     54   2   0.50000     0.0600000    0.0300000   3.930919e-05  8.704828e-09
     46     48   2   0.50000     0.0600000   -0.3300000   2.521103e-04  1.063590e-07
     46     53   2   0.50000     0.0600000   -0.1200000   2.494471e-04  1.671101e-07
     46     54   2   0.50000     0.0600000    0.0300000   3.930919e-05  8.704828e-09
     38     49   2   0.50000    -0.1200000    0.5100000   1.575021e-03  3.561100e-06
     53     49   2   0.50000    -0.1200000    0.5100000   1.575021e-03  3.561100e-06
     54     49   2   0.50000     0.0300000    0.5100000   2.482000e-04  1.854991e-07
     38     60   2   0.50000    -0.1200000    0.0600000   2.494471e-04  1.671101e-07
     38     61   2   0.50000    -0.1200000    0.0600000   2.494471e-04  1.671101e-07
     38     62   2   0.50000    -0.1200000    0.2200000   1.015252e-03  1.866303e-06
     48     60   2   0.50000    -0.3300000    0.0600000   2.521103e-04  1.063590e-07
     48     61   2   0.50000    -0.3300000    0.0600000   2.521103e-04  1.063590e-07
     48     62   2   0.50000    -0.3300000    0.2200000   1.026091e-03  1.187829e-06
     54     60   2   0.50000     0.0300000    0.0600000   3.930919e-05  8.704828e-09
     54     61   2   0.50000     0.0300000    0.0600000   3.930919e-05  8.704828e-09
     54     62   2   0.50000     0.0300000    0.2200000   1.599888e-04  9.721644e-08
     47     50   2   0.50000     0.2200000   -0.4300000   1.095425e-03  1.218041e-06
     47     51   2   0.50000     0.2200000   -0.1200000   1.015252e-03  1.866303e-06
     48     52   2   0.50000    -0.3300000   -0.1800000   1.026091e-03  1.187829e-06
     48     55   2   0.50000    -0.3300000    0.0600000   1.616969e-04  6.187447e-08
     48     56   2   0.50000    -0.3300000    0.0600000   1.616969e-04  6.187447e-08
     50     52   2   0.50000    -0.4300000   -0.1800000   1.095425e-03  1.218041e-06
     50     55   2   0.50000    -0.4300000    0.0600000   1.726228e-04  6.344822e-08
     50     56   2   0.50000    -0.4300000    0.0600000   1.726228e-04  6.344822e-08
     49     57   2   0.50000     0.5100000    0.0600000   3.869820e-04  3.188634e-07
     49     58   2   0.50000     0.5100000    0.0600000   3.869820e-04  3.188634e-07
     49     59   2   0.50000     0.5100000    0.0600000   3.869820e-04  3.188634e-07
     55     57   2   0.50000     0.0600000    0.0600000   3.930919e-05  8.704828e-09
     55     58   2   0.50000     0.0600000    0.0600000   3.930919e-05  8.704828e-09
     55     59   2   0.50000     0.0600000    0.0600000   3.930919e-05  8.704828e-09
     56     57   2   0.50000     0.0600000    0.0600000   3.930919e-05  8.704828e-09
     56     58   2   0.50000     0.0600000    0.0600000   3.930919e-05  8.704828e-09
     56     59   2   0.50000     0.0600000    0.0600000   3.930919e-05  8.704828e-09
     47     63   2   0.50000     0.2200000   -0.3300000   1.026091e-03  1.187829e-06
     47     68   2   0.50000     0.2200000   -0.1200000   1.015252e-03  1.866303e-06
     47     69   2   0.50000     0.2200000    0.0300000   1.599888e-04  9.721644e-08
     60     63   2   0.50000     0.0600000   -0.3300000   2.521103e-04  1.063590e-07
     60     68   2   0.50000     0.0600000   -0.1200000   2.494471e-04  1.671101e-07
     60     69   2   0.50000     0.0600000    0.0300000   3.930919e-05  8.704828e-09
     61     63   2   0.50000     0.0600000   -0.3300000   2.521103e-04  1.063590e-07
     61     68   2   0.50000     0.0600000   -0.1200000   2.494471e-04  1.671101e-07
     61     69   2   0.50000     0.0600000    0.0300000   3.930919e-05  8.704828e-09
     53     64   2   0.50000    -0.1200000    0.5100000   1.575021e-03  3.561100e-06
     68     64   2   0.50000    -0.1200000    0.5100000   1.575021e-03  3.561100e-06
     69     64   2   0.50000     0.0300000    0.5100000   2.482000e-04  1.854991e-07
     53     75   2   0.50000    -0.1200000    0.0600000   2.494471e-04  1.671101e-07
     53     76   2   0.50000    -0.1200000    0.0600000   2.494471e-04  1.671101e-07
     53     77   2   0.50000    -0.1200000    0.2200000   1.015252e-03  1.866303e-06
     63     75   2   0.50000    -0.3300000    0.0600000   2.521103e-04  1.063590e-07
     63     76   2   0.50000    -0.3300000    0.0600000   2.521103e-04  1.063590e-07
     63     77   2   0.50000    -0.3300000    0.2200000   1.026091e-03  1.187829e-06
     69     75   2   0.50000     0.0300000    0.0600000   3.930919e-05  8.704828e-09
     69     76   2   0.50000     0.0300000    0.0600000   3.930919e-05  8.704828e-09
     69     77   2   0.50000     0.0300000    0.2200000   1.599888e-04  9.721644e-08
     62     65   2   0.50000     0.2200000   -0.4300000   1.095425e-03  1.218041e-06
     62     66   2   0.50000     0.2200000   -0.1200000   1.015252e-03  1.866303e-06
     63     67   2   0.50000    -0.3300000   -0.1800000   1.026091e-03  1.187829e-06
     63     70   2   0.50000    -0.3300000    0.0600000   1.616969e-04  6.187447e-08
     63     71   2   0.50000    -0.3300000    0.0600000   1.616969e-04  6.187447e-08
     65     67   2   0.50000    -0.4300000   -0.1800000   1.095425e-03  1.218041e-06
     65     70   2   0.50000    -0.4300000    0.0600000   1.726228e-04  6.344822e-08
     65     71   2   0.50000    -0.4300000    0.0600000   1.726228e-04  6.344822e-08
     64     72   2   0.50000     0.5100000    0.0600000   3.869820e-04  3.188634e-07
     64     73   2   0.50000     0.5100000    0.0600000   3.869820e-04  3.188634e-07
     64     74   2   0.50000     0.5100000    0.0600000   3.869820e-04  3.188634e-07
     70     72   2   0.50000     0.0600000    0.0600000   3.930919e-05  8.704828e-09
     70     73   2   0.50000     0.0600000    0.0600000   3.930919e-05  8.704828e-09
     70     74   2   0.50000     0.0600000    0.0600000   3.930919e-05  8.704828e-09
     71     72   2   0.50000     0.0600000    0.0600000   3.930919e-05  8.704828e-09
     71     73   2   0.50000     0.0600000    0.0600000   3.930919e-05  8.704828e-09
     71     74   2   0.50000     0.0600000    0.0600000   3.930919e-05  8.704828e-09
     62     78   2   0.50000     0.2200000   -0.3300000   1.026091e-03  1.187829e-06
     62     83   2   0.50000     0.2200000   -0.1200000   1.015252e-03  1.866303e-06
     62     84   2   0.50000     0.2200000    0.0300000   1.599888e-04  9.721644e-08
     75     78   2   0.50000     0.0600000   -0.3300000   2.521103e-04  1.063590e-07
     75     83   2   0.50000     0.0600000   -0.1200000   2.494471e-04  1.671101e-07
     75     84   2   0.50000     0.0600000    0.0300000   3.930919e-05  8.704828e-09
     76     78   2   0.50000     0.0600000   -0.3300000   2.521103e-04  1.063590e-07
     76     83   2   0.50000     0.0600000   -0.1200000   2.494471e-04  1.671101e-07
     76     84   2   0.50000     0.0600000    0.0300000   3.930919e-05  8.704828e-09
     68     79   2   0.50000    -0.1200000    0.5100000   1.575021e-03  3.561100e-06
     83     79   2   0.50000    -0.1200000    0.5100000   1.575021e-03  3.561100e-06
     84     79   2   0.50000     0.0300000    0.5100000   2.482000e-04  1.854991e-07
     68     90   2   0.50000    -0.1200000    0.0600000   2.494471e-04  1.671101e-07
     68     91   2   0.50000    -0.1200000    0.0600000   2.494471e-04  1.671101e-07
     68     92   2   0.50000    -0.1200000    0.2200000   1.015252e-03  1.866303e-06
     78     90   2   0.50000    -0.3300000    0.0600000   2.521103e-04  1.063590e-07
     78     91   2   0.50000    -0.3300000    0.0600000   2.521103e-04  1.063590e-07
     78     92   2   0.50000    -0.3300000    0.2200000   1.026091e-03  1.187829e-06
     84     90   2   0.50000     0.0300000    0.0600000   3.930919e-05  8.704828e-09
     84     91   2   0.50000     0.0300000    0.0600000   3.930919e-05  8.704828e-09
     84     92   2   0.50000     0.0300000    0.2200000   1.599888e-04  9.721644e-08
     77     80   2   0.50000     0.2200000   -0.4300000   1.095425e-03  1.218041e-06
     77     81   2   0.50000     0.2200000   -0.1200000   1.015252e-03  1.866303e-06
     78     82   2   0.50000    -0.3300000   -0.1800000   1.026091e-03  1.187829e-06
     78     85   2   0.50000    -0.3300000    0.0600000   1.616969e-04  6.187447e-08
     78     86   2   0.50000    -0.3300000    0.0600000   1.616969e-04  6.187447e-08
     80     82   2   0.50000    -0.4300000   -0.1800000   1.095425e-03  1.218041e-06
     80     85   2   0.50000    -0.4300000    0.0600000   1.726228e-04  6.344822e-08
     80     86   2   0.50000    -0.4300000    0.0600000   1.726228e-04  6.344822e-08
     79     87   2   0.50000     0.5100000    0.0600000   3.869820e-04  3.188634e-07
     79     88   2   0.50000     0.5100000    0.0600000   3.869820e-04  3.188634e-07
     79     89   2   0.50000     0.5100000    0.0600000   3.869820e-04  3.188634e-07
     85     87   2   0.50000     0.0600000    0.0600000   3.930919e-05  8.704828e-09
     85     88   2   0.50000     0.0600000    0.0600000   3.930919e-05  8.704828e-09
     85     89   2   0.50000     0.0600000    0.0600000   3.930919e-05  8.704828e-09
     86     87   2   0.50000     0.0600000    0.0600000   3.930919e-05  8.704828e-09
     86     88   2   0.50000     0.0600000    0.0600000   3.930919e-05  8.704828e-09
     86     89   2   0.50000     0.0600000    0.0600000   3.930919e-05  8.704828e-09
     77     93   2   0.50000     0.2200000   -0.3300000   1.026091e-03  1.187829e-06
     77     98   2   0.50000     0.2200000   -0.1200000   1.015252e-03  1.866303e-06
     77     99   2   0.50000     0.2200000    0.0300000   1.599888e-04  9.721644e-08
     90     93   2   0.50000     0.0600000   -0.3300000   2.521103e-04  1.063590e-07
     90     98   2   0.50000     0.0600000   -0.1200000   2.494471e-04  1.671101e-07
     90     99   2   0.50000     0.0600000    0.0300000   3.930919e-05  8.704828e-09
     91     93   2   0.50000     0.0600000   -0.3300000   2.521103e-04  1.063590e-07
     91     98   2   0.50000     0.0600000   -0.1200000   2.494471e-04  1.671101e-07
     91     99   2   0.50000     0.0600000    0.0300000   3.930919e-05  8.704828e-09
     83     94   2   0.50000    -0.1200000    0.5100000   1.575021e-03  3.561100e-06
     98     94   2   0.50000    -0.1200000    0.5100000   1.575021e-03  3.561100e-06
     99     94   2   0.50000     0.0300000    0.5100000   2.482000e-04  1.854991e-07
     83    105   2   0.50000    -0.1200000    0.0600000   2.494471e-04  1.671101e-07
     83    106   2   0.50000    -0.1200000    0.0600000   2.494471e-04  1.671101e-07
     83    107   2   0.50000    -0.1200000    0.2200000   1.015252e-03  1.866303e-06
     93    105   2   0.50000    -0.3300000    0.0600000   2.521103e-04  1.063590e-07
     93    106   2   0.50000    -0.3300000    0.0600000   2.521103e-04  1.063590e-07
     93    107   2   0.50000    -0.3300000    0.2200000   1.026091e-03  1.187829e-06
     99    105   2   0.50000     0.0300000    0.0600000   3.930919e-05  8.704828e-09
     99    106   2   0.50000     0.0300000    0.0600000   3.930919e-05  8.704828e-09
     99    107   2   0.50000     0.0300000    0.2200000   1.599888e-04  9.721644e-08
     92     95   2   0.50000     0.2200000   -0.4300000   1.095425e-03  1.218041e-06
     92     96   2   0.50000     0.2200000   -0.1200000   1.015252e-03  1.866303e-06
     93     97   2   0.50000    -0.3300000   -0.1800000   1.026091e-03  1.187829e-06
     93    100   2   0.50000    -0.3300000    0.0600000   1.616969e-04  6.187447e-08
     93    101   2   0.50000    -0.3300000    0.0600000   1.616969e-04  6.187447e-08
     95     97   2   0.50000    -0.4300000   -0.1800000   1.095425e-03  1.218041e-06
     95    100   2   0.50000    -0.4300000    0.0600000   1.726228e-04  6.344822e-08
     95    101   2   0.50000    -0.4300000    0.0600000   1.726228e-04  6.344822e-08
     94    102   2   0.50000     0.5100000    0.0600000   3.869820e-04  3.188634e-07
     94    103   2   0.50000     0.5100000    0.0600000   3.869820e-04  3.188634e-07
     94    104   2   0.50000     0.5100000    0.0600000   3.869820e-04  3.188634e-07
    100    102   2   0.50000     0.0600000    0.0600000   3.930919e-05  8.704828e-09
    100    103   2   0.50000     0.0600000    0.0600000   3.930919e-05  8.704828e-09
    100    104   2   0.50000     0.0600000    0.0600000   3.930919e-05  8.704828e-09
    101    102   2   0.50000     0.0600000    0.0600000   3.930919e-05  8.704828e-09
    101    103   2   0.50000     0.0600000    0.0600000   3.930919e-05  8.704828e-09
    101    104   2   0.50000     0.0600000    0.0600000   3.930919e-05  8.704828e-09
     92    108   2   0.50000     0.2200000   -0.3300000   1.026091e-03  1.187829e-06
     92    113   2   0.50000     0.2200000   -0.1200000   1.015252e-03  1.866303e-06
     92    114   2   0.50000     0.2200000    0.0300000   1.599888e-04  9.721644e-08
    105    108   2   0.50000     0.0600000   -0.3300000   2.521103e-04  1.063590e-07
    105    113   2   0.50000     0.0600000   -0.1200000   2.494471e-04  1.671101e-07
    105    114   2   0.50000     0.0600000    0.0300000   3.930919e-05  8.704828e-09
    106    108   2   0.50000     0.0600000   -0.3300000   2.521103e-04  1.063590e-07
    106    113   2   0.50000     0.0600000   -0.1200000   2.494471e-04  1.671101e-07
    106    114   2   0.50000     0.0600000    0.0300000   3.930919e-05  8.704828e-09
     98    109   2   0.50000    -0.1200000    0.5100000   1.575021e-03  3.561100e-06
    113    109   2   0.50000    -0.1200000    0.5100000   1.575021e-03  3.561100e-06
    114    109   2   0.50000     0.0300000    0.5100000   2.482000e-04  1.854991e-07
     98    120   2   0.50000    -0.1200000    0.0600000   2.494471e-04  1.671101e-07
     98    121   2   0.50000    -0.1200000    0.0600000   2.494471e-04  1.671101e-07
     98    122   2   0.50000    -0.1200000    0.2200000   1.015252e-03  1.866303e-06
    108    120   2   0.50000    -0.3300000    0.0600000   2.521103e-04  1.063590e-07
    108    121   2   0.50000    -0.3300000    0.0600000   2.521103e-04  1.063590e-07
    108    122   2   0.50000    -0.3300000    0.2200000   1.026091e-03  1.187829e-06
    114    120   2   0.50000     0.0300000    0.0600000   3.930919e-05  8.704828e-09
    114    121   2   0.50000     0.0300000    0.0600000   3.930919e-05  8.704828e-09
    114    122   2   0.50000     0.0300000    0.2200000   1.599888e-04  9.721644e-08
    107    110   2   0.50000     0.2200000   -0.4300000   1.095425e-03  1.218041e-06
    107    111   2   0.50000     0.2200000   -0.1200000   1.015252e-03  1.866303e-06
    108    112   2   0.50000    -0.3300000   -0.1800000   1.026091e-03  1.187829e-06
    108    115   2   0.50000    -0.3300000    0.0600000   1.616969e-04  6.187447e-08
    108    116   2   0.50000    -0.3300000    0.0600000   1.616969e-04  6.187447e-08
    110    112   2   0.50000    -0.4300000   -0.1800000   1.095425e-03  1.218041e-06
    110    115   2   0.50000    -0.4300000    0.0600000   1.726228e-04  6.344822e-08
    110    116   2   0.50000    -0.4300000    0.0600000   1.726228e-04  6.344822e-08
    109    117   2   0.50000     0.5100000    0.0600000   3.869820e-04  3.188634e-07
    109    118   2   0.50000     0.5100000    0.0600000   3.869820e-04  3.188634e-07
    109    119   2   0.50000     0.5100000    0.0600000   3.869820e-04  3.188634e-07
    115    117   2   0.50000     0.0600000    0.0600000   3.930919e-05  8.704828e-09
    115    118   2   0.50000     0.0600000    0.0600000   3.930919e-05  8.704828e-09
    115    119   2   0.50000     0.0600000    0.0600000   3.930919e-05  8.704828e-09
    116    117   2   0.50000     0.0600000    0.0600000   3.930919e-05  8.704828e-09
    116    118   2   0.50000     0.0600000    0.0600000   3.930919e-05  8.704828e-09
    116    119   2   0.50000     0.0600000    0.0600000   3.930919e-05  8.704828e-09
    107    123   2   0.50000     0.2200000   -0.3300000   1.026091e-03  1.187829e-06
    107    128   2   0.50000     0.2200000   -0.1200000   1.015252e-03  1.866303e-06
    107    129   2   0.50000     0.2200000    0.0300000   1.599888e-04  9.721644e-08
    120    123   2   0.50000     0.0600000   -0.3300000   2.521103e-04  1.063590e-07
    120    128   2   0.50000     0.0600000   -0.1200000   2.494471e-04  1.671101e-07
    120    129   2   0.50000     0.0600000    0.0300000   3.930919e-05  8.704828e-09
    121    123   2   0.50000     0.0600000   -0.3300000   2.521103e-04  1.063590e-07
    121    128   2   0.50000     0.0600000   -0.1200000   2.494471e-04  1.671101e-07
    121    129   2   0.50000     0.0600000    0.0300000   3.930919e-05  8.704828e-09
    113    124   2   0.50000    -0.1200000    0.5100000   1.575021e-03  3.561100e-06
    128    124   2   0.50000    -0.1200000    0.5100000   1.575021e-03  3.561100e-06
    129    124   2   0.50000     0.0300000    0.5100000   2.482000e-04  1.854991e-07
    113    135   2   0.50000    -0.1200000    0.0600000   2.494471e-04  1.671101e-07
    113    136   2   0.50000    -0.1200000    0.0600000   2.494471e-04  1.671101e-07
    113    137   2   0.50000    -0.1200000    0.2200000   1.015252e-03  1.866303e-06
    123    135   2   0.50000    -0.3300000    0.0600000   2.521103e-04  1.063590e-07
    123    136   2   0.50000    -0.3300000    0.0600000   2.521103e-04  1.063590e-07
    123    137   2   0.50000    -0.3300000    0.2200000   1.026091e-03  1.187829e-06
    129    135   2   0.50000     0.0300000    0.0600000   3.930919e-05  8.704828e-09
    129    136   2   0.50000     0.0300000    0.0600000   3.930919e-05  8.704828e-09
    129    137   2   0.50000     0.0300000    0.2200000   1.599888e-04  9.721644e-08
    122    125   2   0.50000     0.2200000   -0.4300000   1.095425e-03  1.218041e-06
    122    126   2   0.50000     0.2200000   -0.1200000   1.015252e-03  1.866303e-06
    123    127   2   0.50000    -0.3300000   -0.1800000   1.026091e-03  1.187829e-06
    123    130   2   0.50000    -0.3300000    0.0600000   1.616969e-04  6.187447e-08
    123    131   2   0.50000    -0.3300000    0.0600000   1.616969e-04  6.187447e-08
    125    127   2   0.50000    -0.4300000   -0.1800000   1.095425e-03  1.218041e-06
    125    130   2   0.50000    -0.4300000    0.0600000   1.726228e-04  6.344822e-08
    125    131   2   0.50000    -0.4300000    0.0600000   1.726228e-04  6.344822e-08
    124    132   2   0.50000     0.5100000    0.0600000   3.869820e-04  3.188634e-07
    124    133   2   0.50000     0.5100000    0.0600000   3.869820e-04  3.188634e-07
    124    134   2   0.50000     0.5100000    0.0600000   3.869820e-04  3.188634e-07
    130    132   2   0.50000     0.0600000    0.0600000   3.930919e-05  8.704828e-09
    130    133   2   0.50000     0.0600000    0.0600000   3.930919e-05  8.704828e-09
    130    134   2   0.50000     0.0600000    0.0600000   3.930919e-05  8.704828e-09
    131    132   2   0.50000     0.0600000    0.0600000   3.930919e-05  8.704828e-09
    131    133   2   0.50000     0.0600000    0.0600000   3.930919e-05  8.704828e-09
    131    134   2   0.50000     0.0600000    0.0600000   3.930919e-05  8.704828e-09
    122    138   2   0.50000     0.2200000   -0.3300000   1.026091e-03  1.187829e-06
    122    143   2   0.50000     0.2200000   -0.1200000   1.015252e-03  1.866303e-06
    122    144   2   0.50000     0.2200000    0.0300000   1.599888e-04  9.721644e-08
    135    138   2   0.50000     0.0600000   -0.3300000   2.521103e-04  1.063590e-07
    135    143   2   0.50000     0.0600000   -0.1200000   2.494471e-04  1.671101e-07
    135    144   2   0.50000     0.0600000    0.0300000   3.930919e-05  8.704828e-09
    136    138   2   0.50000     0.0600000   -0.3300000   2.521103e-04  1.063590e-07
    136    143   2   0.50000     0.0600000   -0.1200000   2.494471e-04  1.671101e-07
    136    144   2   0.50000     0.0600000    0.0300000   3.930919e-05  8.704828e-09
    128    139   2   0.50000    -0.1200000    0.5100000   1.575021e-03  3.561100e-06
    143    139   2   0.50000    -0.1200000    0.5100000   1.575021e-03  3.561100e-06
    144    139   2   0.50000     0.0300000    0.5100000   2.482000e-04  1.854991e-07
    128    150   2   0.50000    -0.1200000    0.0600000   2.494471e-04  1.671101e-07
    128    151   2   0.50000    -0.1200000    0.0600000   2.494471e-04  1.671101e-07
    128    152   2   0.50000    -0.1200000    0.2200000   1.015252e-03  1.866303e-06
    138    150   2   0.50000    -0.3300000    0.0600000   2.521103e-04  1.063590e-07
    138    151   2   0.50000    -0.3300000    0.0600000   2.521103e-04  1.063590e-07
    138    152   2   0.50000    -0.3300000    0.2200000   1.026091e-03  1.187829e-06
    144    150   2   0.50000     0.0300000    0.0600000   3.930919e-05  8.704828e-09
    144    151   2   0.50000     0.0300000    0.0600000   3.930919e-05  8.704828e-09
    144    152   2   0.50000     0.0300000    0.2200000   1.599888e-04  9.721644e-08
    137    140   2   0.50000     0.2200000   -0.4300000   1.095425e-03  1.218041e-06
    137    141   2   0.50000     0.2200000   -0.1200000   1.015252e-03  1.866303e-06
    138    142   2   0.50000    -0.3300000   -0.1800000   1.026091e-03  1.187829e-06
    138    145   2   0.50000    -0.3300000    0.0600000   1.616969e-04  6.187447e-08
    138    146   2   0.50000    -0.3300000    0.0600000   1.616969e-04  6.187447e-08
    140    142   2   0.50000    -0.4300000   -0.1800000   1.095425e-03  1.218041e-06
    140    145   2   0.50000    -0.4300000    0.0600000   1.726228e-04  6.344822e-08
    140    146   2   0.50000    -0.4300000    0.0600000   1.726228e-04  6.344822e-08
    139    147   2   0.50000     0.5100000    0.0600000   3.869820e-04  3.188634e-07
    139    148   2   0.50000     0.5100000    0.0600000   3.869820e-04  3.188634e-07
    139    149   2   0.50000     0.5100000    0.0600000   3.869820e-04  3.188634e-07
    145    147   2   0.50000     0.0600000    0.0600000   3.930919e-05  8.704828e-09
    145    148   2   0.50000     0.0600000    0.0600000   3.930919e-05  8.704828e-09
    145    149   2   0.50000     0.0600000    0.0600000   3.930919e-05  8.704828e-09
    146    147   2   0.50000     0.0600000    0.0600000   3.930919e-05  8.704828e-09
    146    148   2   0.50000     0.0600000    0.0600000   3.930919e-05  8.704828e-09
    146    149   2   0.50000     0.0600000    0.0600000   3.930919e-05  8.704828e-09
    137    153   2   0.50000     0.2200000   -0.3300000   1.026091e-03  1.187829e-06
    137    158   2   0.50000     0.2200000   -0.1200000   1.015252e-03  1.866303e-06
    137    159   2   0.50000     0.2200000    0.0300000   1.599888e-04  9.721644e-08
    150    153   2   0.50000     0.0600000   -0.3300000   2.521103e-04  1.063590e-07
    150    158   2   0.50000     0.0600000   -0.1200000   2.494471e-04  1.671101e-07
    150    159   2   0.50000     0.0600000    0.0300000   3.930919e-05  8.704828e-09
    151    153   2   0.50000     0.0600000   -0.3300000   2.521103e-04  1.063590e-07
    151    158   2   0.50000     0.0600000   -0.1200000   2.494471e-04  1.671101e-07
    151    159   2   0.50000     0.0600000    0.0300000   3.930919e-05  8.704828e-09
    143    154   2   0.50000    -0.1200000    0.5100000   1.575021e-03  3.561100e-06
    158    154   2   0.50000    -0.1200000    0.5100000   1.575021e-03  3.561100e-06
    159    154   2   0.50000     0.0300000    0.5100000   2.482000e-04  1.854991e-07
    143    165   2   0.50000    -0.1200000    0.0600000   2.494471e-04  1.671101e-07
    143    166   2   0.50000    -0.1200000    0.0600000   2.494471e-04  1.671101e-07
    143    167   2   0.50000    -0.1200000    0.2200000   1.015252e-03  1.866303e-06
    153    165   2   0.50000    -0.3300000    0.0600000   2.521103e-04  1.063590e-07
    153    166   2   0.50000    -0.3300000    0.0600000   2.521103e-04  1.063590e-07
    153    167   2   0.50000    -0.3300000    0.2200000   1.026091e-03  1.187829e-06
    159    165   2   0.50000     0.0300000    0.0600000   3.930919e-05  8.704828e-09
    159    166   2   0.50000     0.0300000    0.0600000   3.930919e-05  8.704828e-09
    159    167   2   0.50000     0.0300000    0.2200000   1.599888e-04  9.721644e-08
    152    155   2   0.50000     0.2200000   -0.4300000   1.095425e-03  1.218041e-06
    152    156   2   0.50000     0.2200000   -0.1200000   1.015252e-03  1.866303e-06
    153    157   2   0.50000    -0.3300000   -0.1800000   1.026091e-03  1.187829e-06
    153    160   2   0.50000    -0.3300000    0.0600000   1.616969e-04  6.187447e-08
    153    161   2   0.50000    -0.3300000    0.0600000   1.616969e-04  6.187447e-08
    155    157   2   0.50000    -0.4300000   -0.1800000   1.095425e-03  1.218041e-06
    155    160   2   0.50000    -0.4300000    0.0600000   1.726228e-04  6.344822e-08
    155    161   2   0.50000    -0.4300000    0.0600000   1.726228e-04  6.344822e-08
    154    162   2   0.50000     0.5100000    0.0600000   3.869820e-04  3.188634e-07
    154    163   2   0.50000     0.5100000    0.0600000   3.869820e-04  3.188634e-07
    154    164   2   0.50000     0.5100000    0.0600000   3.869820e-04  3.188634e-07
    160    162   2   0.50000     0.0600000    0.0600000   3.930919e-05  8.704828e-09
    160    163   2   0.50000     0.0600000    0.0600000   3.930919e-05  8.704828e-09
    160    164   2   0.50000     0.0600000    0.0600000   3.930919e-05  8.704828e-09
    161    162   2   0.50000     0.0600000    0.0600000   3.930919e-05  8.704828e-09
    161    163   2   0.50000     0.0600000    0.0600000   3.930919e-05  8.704828e-09
    161    164   2   0.50000     0.0600000    0.0600000   3.930919e-05  8.704828e-09
    152    168   2   0.50000     0.2200000   -0.3300000   1.026091e-03  1.187829e-06
    152    173   2   0.50000     0.2200000   -0.1200000   1.015252e-03  1.866303e-06
    152    174   2   0.50000     0.2200000    0.0300000   1.599888e-04  9.721644e-08
    165    168   2   0.50000     0.0600000   -0.3300000   2.521103e-04  1.063590e-07
    165    173   2   0.50000     0.0600000   -0.1200000   2.494471e-04  1.671101e-07
    165    174   2   0.50000     0.0600000    0.0300000   3.930919e-05  8.704828e-09
    166    168   2   0.50000     0.0600000   -0.3300000   2.521103e-04  1.063590e-07
    166    173   2   0.50000     0.0600000   -0.1200000   2.494471e-04  1.671101e-07
    166    174   2   0.50000     0.0600000    0.0300000   3.930919e-05  8.704828e-09
    158    169   2   0.50000    -0.1200000    0.5100000   1.575021e-03  3.561100e-06
    173    169   2   0.50000    -0.1200000    0.5100000   1.575021e-03  3.561100e-06
    174    169   2   0.50000     0.0300000    0.5100000   2.482000e-04  1.854991e-07
    158    180   2   0.50000    -0.1200000    0.0600000   2.494471e-04  1.671101e-07
    158    181   2   0.50000    -0.1200000    0.0600000   2.494471e-04  1.671101e-07
    158    182   2   0.50000    -0.1200000    0.2200000   1.015252e-03  1.866303e-06
    168    180   2   0.50000    -0.3300000    0.0600000   2.521103e-04  1.063590e-07
    168    181   2   0.50000    -0.3300000    0.0600000   2.521103e-04  1.063590e-07
    168    182   2   0.50000    -0.3300000    0.2200000   1.026091e-03  1.187829e-06
    174    180   2   0.50000     0.0300000    0.0600000   3.930919e-05  8.704828e-09
    174    181   2   0.50000     0.0300000    0.0600000   3.930919e-05  8.704828e-09
    174    182   2   0.50000     0.0300000    0.2200000   1.599888e-04  9.721644e-08
    167    170   2   0.50000     0.2200000   -0.4300000   1.095425e-03  1.218041e-06
    167    171   2   0.50000     0.2200000   -0.1200000   1.015252e-03  1.866303e-06
    168    172   2   0.50000    -0.3300000   -0.1800000   1.026091e-03  1.187829e-06
    168    175   2   0.50000    -0.3300000    0.0600000   1.616969e-04  6.187447e-08
    168    176   2   0.50000    -0.3300000    0.0600000   1.616969e-04  6.187447e-08
    170    172   2   0.50000    -0.4300000   -0.1800000   1.095425e-03  1.218041e-06
    170    175   2   0.50000    -0.4300000    0.0600000   1.726228e-04  6.344822e-08
    170    176   2   0.50000    -0.4300000    0.0600000   1.726228e-04  6.344822e-08
    169    177   2   0.50000     0.5100000    0.0600000   3.869820e-04  3.188634e-07
    169    178   2   0.50000     0.5100000    0.0600000   3.869820e-04  3.188634e-07
    169    179   2   0.50000     0.5100000    0.0600000   3.869820e-04  3.188634e-07
    175    177   2   0.50000     0.0600000    0.0600000   3.930919e-05  8.704828e-09
    175    178   2   0.50000     0.0600000    0.0600000   3.930919e-05  8.704828e-09
    175    179   2   0.50000     0.0600000    0.0600000   3.930919e-05  8.704828e-09
    176    177   2   0.50000     0.0600000    0.0600000   3.930919e-05  8.704828e-09
    176    178   2   0.50000     0.0600000    0.0600000   3.930919e-05  8.704828e-09
    176    179   2   0.50000     0.0600000    0.0600000   3.930919e-05  8.704828e-09
    167    183   2   0.50000     0.2200000   -0.3300000   1.026091e-03  1.187829e-06
    167    188   2   0.50000     0.2200000   -0.1200000   1.015252e-03  1.866303e-06
    167    189   2   0.50000     0.2200000    0.0300000   1.599888e-04  9.721644e-08
    180    183   2   0.50000     0.0600000   -0.3300000   2.521103e-04  1.063590e-07
    180    188   2   0.50000     0.0600000   -0.1200000   2.494471e-04  1.671101e-07
    180    189   2   0.50000     0.0600000    0.0300000   3.930919e-05  8.704828e-09
    181    183   2   0.50000     0.0600000   -0.3300000   2.521103e-04  1.063590e-07
    181    188   2   0.50000     0.0600000   -0.1200000   2.494471e-04  1.671101e-07
    181    189   2   0.50000     0.0600000    0.0300000   3.930919e-05  8.704828e-09
    173    184   2   0.50000    -0.1200000    0.5100000   1.575021e-03  3.561100e-06
    188    184   2   0.50000    -0.1200000    0.5100000   1.575021e-03  3.561100e-06
    189    184   2   0.50000     0.0300000    0.5100000   2.482000e-04  1.854991e-07
    173    195   2   0.50000    -0.1200000    0.0600000   2.494471e-04  1.671101e-07
    173    196   2   0.50000    -0.1200000    0.0600000   2.494471e-04  1.671101e-07
    173    197   2   0.50000    -0.1200000    0.2200000   1.015252e-03  1.866303e-06
    183    195   2   0.50000    -0.3300000    0.0600000   2.521103e-04  1.063590e-07
    183    196   2   0.50000    -0.3300000    0.0600000   2.521103e-04  1.063590e-07
    183    197   2   0.50000    -0.3300000    0.2200000   1.026091e-03  1.187829e-06
    189    195   2   0.50000     0.0300000    0.0600000   3.930919e-05  8.704828e-09
    189    196   2   0.50000     0.0300000    0.0600000   3.930919e-05  8.704828e-09
    189    197   2   0.50000     0.0300000    0.2200000   1.599888e-04  9.721644e-08
    182    185   2   0.50000     0.2200000   -0.4300000   1.095425e-03  1.218041e-06
    182    186   2   0.50000     0.2200000   -0.1200000   1.015252e-03  1.866303e-06
    183    187   2   0.50000    -0.3300000   -0.1800000   1.026091e-03  1.187829e-06
    183    190   2   0.50000    -0.3300000    0.0600000   1.616969e-04  6.187447e-08
    183    191   2   0.50000    -0.3300000    0.0600000   1.616969e-04  6.187447e-08
    185    187   2   0.50000    -0.4300000   -0.1800000   1.095425e-03  1.218041e-06
    185    190   2   0.50000    -0.4300000    0.0600000   1.726228e-04  6.344822e-08
    185    191   2   0.50000    -0.4300000    0.0600000   1.726228e-04  6.344822e-08
    184    192   2   0.50000     0.5100000    0.0600000   3.869820e-04  3.188634e-07
    184    193   2   0.50000     0.5100000    0.0600000   3.869820e-04  3.188634e-07
    184    194   2   0.50000     0.5100000    0.0600000   3.869820e-04  3.188634e-07
    190    192   2   0.50000     0.0600000    0.0600000   3.930919e-05  8.704828e-09
    190    193   2   0.50000     0.0600000    0.0600000   3.930919e-05  8.704828e-09
    190    194   2   0.50000     0.0600000    0.0600000   3.930919e-05  8.704828e-09
    191    192   2   0.50000     0.0600000    0.0600000   3.930919e-05  8.704828e-09
    191    193   2   0.50000     0.0600000    0.0600000   3.930919e-05  8.704828e-09
    191    194   2   0.50000     0.0600000    0.0600000   3.930919e-05  8.704828e-09
    182    198   2   0.50000     0.2200000   -0.3300000   1.026091e-03  1.187829e-06
    182    203   2   0.50000     0.2200000   -0.1200000   1.015252e-03  1.866303e-06
    182    204   2   0.50000     0.2200000    0.0300000   1.599888e-04  9.721644e-08
    195    198   2   0.50000     0.0600000   -0.3300000   2.521103e-04  1.063590e-07
    195    203   2   0.50000     0.0600000   -0.1200000   2.494471e-04  1.671101e-07
    195    204   2   0.50000     0.0600000    0.0300000   3.930919e-05  8.704828e-09
    196    198   2   0.50000     0.0600000   -0.3300000   2.521103e-04  1.063590e-07
    196    203   2   0.50000     0.0600000   -0.1200000   2.494471e-04  1.671101e-07
    196    204   2   0.50000     0.0600000    0.0300000   3.930919e-05  8.704828e-09
    188    199   2   0.50000    -0.1200000    0.5100000   1.575021e-03  3.561100e-06
    203    199   2   0.50000    -0.1200000    0.5100000   1.575021e-03  3.561100e-06
    204    199   2   0.50000     0.0300000    0.5100000   2.482000e-04  1.854991e-07
    188    210   2   0.50000    -0.1200000    0.0600000   2.494471e-04  1.671101e-07
    188    211   2   0.50000    -0.1200000    0.0600000   2.494471e-04  1.671101e-07
    188    212   2   0.50000    -0.1200000    0.2200000   1.015252e-03  1.866303e-06
    198    210   2   0.50000    -0.3300000    0.0600000   2.521103e-04  1.063590e-07
    198    211   2   0.50000    -0.3300000    0.0600000   2.521103e-04  1.063590e-07
    198    212   2   0.50000    -0.3300000    0.2200000   1.026091e-03  1.187829e-06
    204    210   2   0.50000     0.0300000    0.0600000   3.930919e-05  8.704828e-09
    204    211   2   0.50000     0.0300000    0.0600000   3.930919e-05  8.704828e-09
    204    212   2   0.50000     0.0300000    0.2200000   1.599888e-04  9.721644e-08
    197    200   2   0.50000     0.2200000   -0.4300000   1.095425e-03  1.218041e-06
    197    201   2   0.50000     0.2200000   -0.1200000   1.015252e-03  1.866303e-06
    198    202   2   0.50000    -0.3300000   -0.1800000   1.026091e-03  1.187829e-06
    198    205   2   0.50000    -0.3300000    0.0600000   1.616969e-04  6.187447e-08
    198    206   2   0.50000    -0.3300000    0.0600000   1.616969e-04  6.187447e-08
    200    202   2   0.50000    -0.4300000   -0.1800000   1.095425e-03  1.218041e-06
    200    205   2   0.50000    -0.4300000    0.0600000   1.726228e-04  6.344822e-08
    200    206   2   0.50000    -0.4300000    0.0600000   1.726228e-04  6.344822e-08
    199    207   2   0.50000     0.5100000    0.0600000   3.869820e-04  3.188634e-07
    199    208   2   0.50000     0.5100000    0.0600000   3.869820e-04  3.188634e-07
    199    209   2   0.50000     0.5100000    0.0600000   3.869820e-04  3.188634e-07
    205    207   2   0.50000     0.0600000    0.0600000   3.930919e-05  8.704828e-09
    205    208   2   0.50000     0.0600000    0.0600000   3.930919e-05  8.704828e-09
    205    209   2   0.50000     0.0600000    0.0600000   3.930919e-05  8.704828e-09
    206    207   2   0.50000     0.0600000    0.0600000   3.930919e-05  8.704828e-09
    206    208   2   0.50000     0.0600000    0.0600000   3.930919e-05  8.704828e-09
    206    209   2   0.50000     0.0600000    0.0600000   3.930919e-05  8.704828e-09
    197    213   2   0.50000     0.2200000   -0.3300000   1.026091e-03  1.187829e-06
    197    218   2   0.50000     0.2200000   -0.1200000   1.015252e-03  1.866303e-06
    197    219   2   0.50000     0.2200000    0.0300000   1.599888e-04  9.721644e-08
    210    213   2   0.50000     0.0600000   -0.3300000   2.521103e-04  1.063590e-07
    210    218   2   0.50000     0.0600000   -0.1200000   2.494471e-04  1.671101e-07
    210    219   2   0.50000     0.0600000    0.0300000   3.930919e-05  8.704828e-09
    211    213   2   0.50000     0.0600000   -0.3300000   2.521103e-04  1.063590e-07
    211    218   2   0.50000     0.0600000   -0.1200000   2.494471e-04  1.671101e-07
    211    219   2   0.50000     0.0600000    0.0300000   3.930919e-05  8.704828e-09
    203    214   2   0.50000    -0.1200000    0.5100000   1.575021e-03  3.561100e-06
    218    214   2   0.50000    -0.1200000    0.5100000   1.575021e-03  3.561100e-06
    219    214   2   0.50000     0.0300000    0.5100000   2.482000e-04  1.854991e-07
    203    225   2   0.50000    -0.1200000    0.0600000   2.494471e-04  1.671101e-07
    203    226   2   0.50000    -0.1200000    0.0600000   2.494471e-04  1.671101e-07
    203    227   2   0.50000    -0.1200000    0.2200000   1.015252e-03  1.866303e-06
    213    225   2   0.50000    -0.3300000    0.0600000   2.521103e-04  1.063590e-07
    213    226   2   0.50000    -0.3300000    0.0600000   2.521103e-04  1.063590e-07
    213    227   2   0.50000    -0.3300000    0.2200000   1.026091e-03  1.187829e-06
    219    225   2   0.50000     0.0300000    0.0600000   3.930919e-05  8.704828e-09
    219    226   2   0.50000     0.0300000    0.0600000   3.930919e-05  8.704828e-09
    219    227   2   0.50000     0.0300000    0.2200000   1.599888e-04  9.721644e-08
    212    215   2   0.50000     0.2200000   -0.4300000   1.095425e-03  1.218041e-06
    212    216   2   0.50000     0.2200000   -0.1200000   1.015252e-03  1.866303e-06
    213    217   2   0.50000    -0.3300000   -0.1800000   1.026091e-03  1.187829e-06
    213    220   2   0.50000    -0.3300000    0.0600000   1.616969e-04  6.187447e-08
    213    221   2   0.50000    -0.3300000    0.0600000   1.616969e-04  6.187447e-08
    215    217   2   0.50000    -0.4300000   -0.1800000   1.095425e-03  1.218041e-06
    215    220   2   0.50000    -0.4300000    0.0600000   1.726228e-04  6.344822e-08
    215    221   2   0.50000    -0.4300000    0.0600000   1.726228e-04  6.344822e-08
    214    222   2   0.50000     0.5100000    0.0600000   3.869820e-04  3.188634e-07
    214    223   2   0.50000     0.5100000    0.0600000   3.869820e-04  3.188634e-07
    214    224   2   0.50000     0.5100000    0.0600000   3.869820e-04  3.188634e-07
    220    222   2   0.50000     0.0600000    0.0600000   3.930919e-05  8.704828e-09
    220    223   2   0.50000     0.0600000    0.0600000   3.930919e-05  8.704828e-09
    220    224   2   0.50000     0.0600000    0.0600000   3.930919e-05  8.704828e-09
    221    222   2   0.50000     0.0600000    0.0600000   3.930919e-05  8.704828e-09
    221    223   2   0.50000     0.0600000    0.0600000   3.930919e-05  8.704828e-09
    221    224   2   0.50000     0.0600000    0.0600000   3.930919e-05  8.704828e-09
    212    228   2   0.50000     0.2200000   -0.3300000   1.026091e-03  1.187829e-06
    212    233   2   0.50000     0.2200000   -0.1200000   1.015252e-03  1.866303e-06
    212    234   2   0.50000     0.2200000    0.0300000   1.599888e-04  9.721644e-08
    225    228   2   0.50000     0.0600000   -0.3300000   2.521103e-04  1.063590e-07
    225    233   2   0.50000     0.0600000   -0.1200000   2.494471e-04  1.671101e-07
    225    234   2   0.50000     0.0600000    0.0300000   3.930919e-05  8.704828e-09
    226    228   2   0.50000     0.0600000   -0.3300000   2.521103e-04  1.063590e-07
    226    233   2   0.50000     0.0600000   -0.1200000   2.494471e-04  1.671101e-07
    226    234   2   0.50000     0.0600000    0.0300000   3.930919e-05  8.704828e-09
    218    229   2   0.50000    -0.1200000    0.5100000   1.575021e-03  3.561100e-06
    233    229   2   0.50000    -0.1200000    0.5100000   1.575021e-03  3.561100e-06
    234    229   2   0.50000     0.0300000    0.5100000   2.482000e-04  1.854991e-07
    218    240   2   0.50000    -0.1200000    0.0600000   2.494471e-04  1.671101e-07
    218    241   2   0.50000    -0.1200000    0.0600000   2.494471e-04  1.671101e-07
    218    242   2   0.50000    -0.1200000    0.2200000   1.015252e-03  1.866303e-06
    228    240   2   0.50000    -0.3300000    0.0600000   2.521103e-04  1.063590e-07
    228    241   2   0.50000    -0.3300000    0.0600000   2.521103e-04  1.063590e-07
    228    242   2   0.50000    -0.3300000    0.2200000   1.026091e-03  1.187829e-06
    234    240   2   0.50000     0.0300000    0.0600000   3.930919e-05  8.704828e-09
    234    241   2   0.50000     0.0300000    0.0600000   3.930919e-05  8.704828e-09
    234    242   2   0.50000     0.0300000    0.2200000   1.599888e-04  9.721644e-08
    227    230   2   0.50000     0.2200000   -0.4300000   1.095425e-03  1.218041e-06
    227    231   2   0.50000     0.2200000   -0.1200000   1.015252e-03  1.866303e-06
    228    232   2   0.50000    -0.3300000   -0.1800000   1.026091e-03  1.187829e-06
    228    235   2   0.50000    -0.3300000    0.0600000   1.616969e-04  6.187447e-08
    228    236   2   0.50000    -0.3300000    0.0600000   1.616969e-04  6.187447e-08
    230    232   2   0.50000    -0.4300000   -0.1800000   1.095425e-03  1.218041e-06
    230    235   2   0.50000    -0.4300000    0.0600000   1.726228e-04  6.344822e-08
    230    236   2   0.50000    -0.4300000    0.0600000   1.726228e-04  6.344822e-08
    229    237   2   0.50000     0.5100000    0.0600000   3.869820e-04  3.188634e-07
    229    238   2   0.50000     0.5100000    0.0600000   3.869820e-04  3.188634e-07
    229    239   2   0.50000     0.5100000    0.0600000   3.869820e-04  3.188634e-07
    235    237   2   0.50000     0.0600000    0.0600000   3.930919e-05  8.704828e-09
    235    238   2   0.50000     0.0600000    0.0600000   3.930919e-05  8.704828e-09
    235    239   2   0.50000     0.0600000    0.0600000   3.930919e-05  8.704828e-09
    236    237   2   0.50000     0.0600000    0.0600000   3.930919e-05  8.704828e-09
    236    238   2   0.50000     0.0600000    0.0600000   3.930919e-05  8.704828e-09
    236    239   2   0.50000     0.0600000    0.0600000   3.930919e-05  8.704828e-09
    227    243   2   0.50000     0.2200000   -0.3300000   1.026091e-03  1.187829e-06
    227    248   2   0.50000     0.2200000   -0.1200000   1.015252e-03  1.866303e-06
    227    249   2   0.50000     0.2200000    0.0300000   1.599888e-04  9.721644e-08
    240    243   2   0.50000     0.0600000   -0.3300000   2.521103e-04  1.063590e-07
    240    248   2   0.50000     0.0600000   -0.1200000   2.494471e-04  1.671101e-07
    240    249   2   0.50000     0.0600000    0.0300000   3.930919e-05  8.704828e-09
    241    243   2   0.50000     0.0600000   -0.3300000   2.521103e-04  1.063590e-07
    241    248   2   0.50000     0.0600000   -0.1200000   2.494471e-04  1.671101e-07
    241    249   2   0.50000     0.0600000    0.0300000   3.930919e-05  8.704828e-09
    233    244   2   0.50000    -0.1200000    0.5100000   1.575021e-03  3.561100e-06
    248    244   2   0.50000    -0.1200000    0.5100000   1.575021e-03  3.561100e-06
    249    244   2   0.50000     0.0300000    0.5100000   2.482000e-04  1.854991e-07
    233    255   2   0.50000    -0.1200000    0.0600000   2.494471e-04  1.671101e-07
    233    256   2   0.50000    -0.1200000    0.0600000   2.494471e-04  1.671101e-07
    233    257   2   0.50000    -0.1200000    0.2200000   1.015252e-03  1.866303e-06
    243    255   2   0.50000    -0.3300000    0.0600000   2.521103e-04  1.063590e-07
    243    256   2   0.50000    -0.3300000    0.0600000   2.521103e-04  1.063590e-07
    243    257   2   0.50000    -0.3300000    0.2200000   1.026091e-03  1.187829e-06
    249    255   2   0.50000     0.0300000    0.0600000   3.930919e-05  8.704828e-09
    249    256   2   0.50000     0.0300000    0.0600000   3.930919e-05  8.704828e-09
    249    257   2   0.50000     0.0300000    0.2200000   1.599888e-04  9.721644e-08
    242    245   2   0.50000     0.2200000   -0.4300000   1.095425e-03  1.218041e-06
    242    246   2   0.50000     0.2200000   -0.1200000   1.015252e-03  1.866303e-06
    243    247   2   0.50000    -0.3300000   -0.1800000   1.026091e-03  1.187829e-06
    243    250   2   0.50000    -0.3300000    0.0600000   1.616969e-04  6.187447e-08
    243    251   2   0.50000    -0.3300000    0.0600000   1.616969e-04  6.187447e-08
    245    247   2   0.50000    -0.4300000   -0.1800000   1.095425e-03  1.218041e-06
    245    250   2   0.50000    -0.4300000    0.0600000   1.726228e-04  6.344822e-08
    245    251   2   0.50000    -0.4300000    0.0600000   1.726228e-04  6.344822e-08
    244    252   2   0.50000     0.5100000    0.0600000   3.869820e-04  3.188634e-07
    244    253   2   0.50000     0.5100000    0.0600000   3.869820e-04  3.188634e-07
    244    254   2   0.50000     0.5100000    0.0600000   3.869820e-04  3.188634e-07
    250    252   2   0.50000     0.0600000    0.0600000   3.930919e-05  8.704828e-09
    250    253   2   0.50000     0.0600000    0.0600000   3.930919e-05  8.704828e-09
    250    254   2   0.50000     0.0600000    0.0600000   3.930919e-05  8.704828e-09
    251    252   2   0.50000     0.0600000    0.0600000   3.930919e-05  8.704828e-09
    251    253   2   0.50000     0.0600000    0.0600000   3.930919e-05  8.704828e-09
    251    254   2   0.50000     0.0600000    0.0600000   3.930919e-05  8.704828e-09
    242    258   2   0.50000     0.2200000   -0.3300000   1.026091e-03  1.187829e-06
    242    263   2   0.50000     0.2200000   -0.1200000   1.015252e-03  1.866303e-06
    242    264   2   0.50000     0.2200000    0.0300000   1.599888e-04  9.721644e-08
    255    258   2   0.50000     0.0600000   -0.3300000   2.521103e-04  1.063590e-07
    255    263   2   0.50000     0.0600000   -0.1200000   2.494471e-04  1.671101e-07
    255    264   2   0.50000     0.0600000    0.0300000   3.930919e-05  8.704828e-09
    256    258   2   0.50000     0.0600000   -0.3300000   2.521103e-04  1.063590e-07
    256    263   2   0.50000     0.0600000   -0.1200000   2.494471e-04  1.671101e-07
    256    264   2   0.50000     0.0600000    0.0300000   3.930919e-05  8.704828e-09
    248    259   2   0.50000    -0.1200000    0.5100000   1.575021e-03  3.561100e-06
    263    259   2   0.50000    -0.1200000    0.5100000   1.575021e-03  3.561100e-06
    264    259   2   0.50000     0.0300000    0.5100000   2.482000e-04  1.854991e-07
    248    270   2   0.50000    -0.1200000    0.0600000   2.494471e-04  1.671101e-07
    248    271   2   0.50000    -0.1200000    0.0600000   2.494471e-04  1.671101e-07
    248    272   2   0.50000    -0.1200000    0.2200000   1.015252e-03  1.866303e-06
    258    270   2   0.50000    -0.3300000    0.0600000   2.521103e-04  1.063590e-07
    258    271   2   0.50000    -0.3300000    0.0600000   2.521103e-04  1.063590e-07
    258    272   2   0.50000    -0.3300000    0.2200000   1.026091e-03  1.187829e-06
    264    270   2   0.50000     0.0300000    0.0600000   3.930919e-05  8.704828e-09
    264    271   2   0.50000     0.0300000    0.0600000   3.930919e-05  8.704828e-09
    264    272   2   0.50000     0.0300000    0.2200000   1.599888e-04  9.721644e-08
    257    260   2   0.50000     0.2200000   -0.4300000   1.095425e-03  1.218041e-06
    257    261   2   0.50000     0.2200000   -0.1200000   1.015252e-03  1.866303e-06
    258    262   2   0.50000    -0.3300000   -0.1800000   1.026091e-03  1.187829e-06
    258    265   2   0.50000    -0.3300000    0.0600000   1.616969e-04  6.187447e-08
    258    266   2   0.50000    -0.3300000    0.0600000   1.616969e-04  6.187447e-08
    260    262   2   0.50000    -0.4300000   -0.1800000   1.095425e-03  1.218041e-06
    260    265   2   0.50000    -0.4300000    0.0600000   1.726228e-04  6.344822e-08
    260    266   2   0.50000    -0.4300000    0.0600000   1.726228e-04  6.344822e-08
    259    267   2   0.50000     0.5100000    0.0600000   3.869820e-04  3.188634e-07
    259    268   2   0.50000     0.5100000    0.0600000   3.869820e-04  3.188634e-07
    259    269   2   0.50000     0.5100000    0.0600000   3.869820e-04  3.188634e-07
    265    267   2   0.50000     0.0600000    0.0600000   3.930919e-05  8.704828e-09
    265    268   2   0.50000     0.0600000    0.0600000   3.930919e-05  8.704828e-09
    265    269   2   0.50000     0.0600000    0.0600000   3.930919e-05  8.704828e-09
    266    267   2   0.50000     0.0600000    0.0600000   3.930919e-05  8.704828e-09
    266    268   2   0.50000     0.0600000    0.0600000   3.930919e-05  8.704828e-09
    266    269   2   0.50000     0.0600000    0.0600000   3.930919e-05  8.704828e-09
    257    273   2   0.50000     0.2200000   -0.3300000   1.026091e-03  1.187829e-06
    257    278   2   0.50000     0.2200000   -0.1200000   1.015252e-03  1.866303e-06
    257    279   2   0.50000     0.2200000    0.0300000   1.599888e-04  9.721644e-08
    270    273   2   0.50000     0.0600000   -0.3300000   2.521103e-04  1.063590e-07
    270    278   2   0.50000     0.0600000   -0.1200000   2.494471e-04  1.671101e-07
    270    279   2   0.50000     0.0600000    0.0300000   3.930919e-05  8.704828e-09
    271    273   2   0.50000     0.0600000   -0.3300000   2.521103e-04  1.063590e-07
    271    278   2   0.50000     0.0600000   -0.1200000   2.494471e-04  1.671101e-07
    271    279   2   0.50000     0.0600000    0.0300000   3.930919e-05  8.704828e-09
    263    274   2   0.50000    -0.1200000    0.5100000   1.575021e-03  3.561100e-06
    278    274   2   0.50000    -0.1200000    0.5100000   1.575021e-03  3.561100e-06
    279    274   2   0.50000     0.0300000    0.5100000   2.482000e-04  1.854991e-07
    263    285   2   0.50000    -0.1200000    0.0600000   2.494471e-04  1.671101e-07
    263    286   2   0.50000    -0.1200000    0.0600000   2.494471e-04  1.671101e-07
    263    287   2   0.50000    -0.1200000    0.2200000   1.015252e-03  1.866303e-06
    273    285   2   0.50000    -0.3300000    0.0600000   2.521103e-04  1.063590e-07
    273    286   2   0.50000    -0.3300000    0.0600000   2.521103e-04  1.063590e-07
    273    287   2   0.50000    -0.3300000    0.2200000   1.026091e-03  1.187829e-06
    279    285   2   0.50000     0.0300000    0.0600000   3.930919e-05  8.704828e-09
    279    286   2   0.50000     0.0300000    0.0600000   3.930919e-05  8.704828e-09
    279    287   2   0.50000     0.0300000    0.2200000   1.599888e-04  9.721644e-08
    272    275   2   0.50000     0.2200000   -0.4300000   1.095425e-03  1.218041e-06
    272    276   2   0.50000     0.2200000   -0.1200000   1.015252e-03  1.866303e-06
    273    277   2   0.50000    -0.3300000   -0.1800000   1.026091e-03  1.187829e-06
    273    280   2   0.50000    -0.3300000    0.0600000   1.616969e-04  6.187447e-08
    273    281   2   0.50000    -0.3300000    0.0600000   1.616969e-04  6.187447e-08
    275    277   2   0.50000    -0.4300000   -0.1800000   1.095425e-03  1.218041e-06
    275    280   2   0.50000    -0.4300000    0.0600000   1.726228e-04  6.344822e-08
    275    281   2   0.50000    -0.4300000    0.0600000   1.726228e-04  6.344822e-08
    274    282   2   0.50000     0.5100000    0.0600000   3.869820e-04  3.188634e-07
    274    283   2   0.50000     0.5100000    0.0600000   3.869820e-04  3.188634e-07
    274    284   2   0.50000     0.5100000    0.0600000   3.869820e-04  3.188634e-07
    280    282   2   0.50000     0.0600000    0.0600000   3.930919e-05  8.704828e-09
    280    283   2   0.50000     0.0600000    0.0600000   3.930919e-05  8.704828e-09
    280    284   2   0.50000     0.0600000    0.0600000   3.930919e-05  8.704828e-09
    281    282   2   0.50000     0.0600000    0.0600000   3.930919e-05  8.704828e-09
    281    283   2   0.50000     0.0600000    0.0600000   3.930919e-05  8.704828e-09
    281    284   2   0.50000     0.0600000    0.0600000   3.930919e-05  8.704828e-09
    272    288   2   0.50000     0.2200000   -0.3300000   1.026091e-03  1.187829e-06
    272    293   2   0.50000     0.2200000   -0.1800000   1.015252e-03  1.866303e-06
    272    294   2   0.50000     0.2200000    0.0300000   1.599888e-04  9.721644e-08
    285    288   2   0.50000     0.0600000   -0.3300000   2.521103e-04  1.063590e-07
    285    293   2   0.50000     0.0600000   -0.1800000   2.494471e-04  1.671101e-07
    285    294   2   0.50000     0.0600000    0.0300000   3.930919e-05  8.704828e-09
    286    288   2   0.50000     0.0600000   -0.3300000   2.521103e-04  1.063590e-07
    286    293   2   0.50000     0.0600000   -0.1800000   2.494471e-04  1.671101e-07
    286    294   2   0.50000     0.0600000    0.0300000   3.930919e-05  8.704828e-09
    278    289   2   0.50000    -0.1200000    0.5100000   1.575021e-03  3.561100e-06
    293    289   2   0.50000    -0.1800000    0.5100000   1.575021e-03  3.561100e-06
    294    289   2   0.50000     0.0300000    0.5100000   2.482000e-04  1.854991e-07
    278    300   2   0.50000    -0.1200000    0.0600000   2.494471e-04  1.671101e-07
    278    301   2   0.50000    -0.1200000    0.0600000   2.494471e-04  1.671101e-07
    278    302   2   0.50000    -0.1200000    0.0600000   2.494471e-04  1.671101e-07
    288    300   2   0.50000    -0.3300000    0.0600000   2.521103e-04  1.063590e-07
    288    301   2   0.50000    -0.3300000    0.0600000   2.521103e-04  1.063590e-07
    288    302   2   0.50000    -0.3300000    0.0600000   2.521103e-04  1.063590e-07
    294    300   2   0.50000     0.0300000    0.0600000   3.930919e-05  8.704828e-09
    294    301   2   0.50000     0.0300000    0.0600000   3.930919e-05  8.704828e-09
    294    302   2   0.50000     0.0300000    0.0600000   3.930919e-05  8.704828e-09
    287    290   2   0.50000     0.2200000   -0.4300000   1.095425e-03  1.218041e-06
    287    291   2   0.50000     0.2200000   -0.1200000   1.015252e-03  1.866303e-06
    288    292   2   0.50000    -0.3300000   -0.1800000   1.026091e-03  1.187829e-06
    288    295   2   0.50000    -0.3300000    0.0600000   1.616969e-04  6.187447e-08
    288    296   2   0.50000    -0.3300000    0.0600000   1.616969e-04  6.187447e-08
    290    292   2   0.50000    -0.4300000   -0.1800000   1.095425e-03  1.218041e-06
    290    295   2   0.50000    -0.4300000    0.0600000   1.726228e-04  6.344822e-08
    290    296   2   0.50000    -0.4300000    0.0600000   1.726228e-04  6.344822e-08
    289    297   2   0.50000     0.5100000    0.0600000   3.869820e-04  3.188634e-07
    289    298   2   0.50000     0.5100000    0.0600000   3.869820e-04  3.188634e-07
    289    299   2   0.50000     0.5100000    0.0600000   3.869820e-04  3.188634e-07
    295    297   2   0.50000     0.0600000    0.0600000   3.930919e-05  8.704828e-09
    295    298   2   0.50000     0.0600000    0.0600000   3.930919e-05  8.704828e-09
    295    299   2   0.50000     0.0600000    0.0600000   3.930919e-05  8.704828e-09
    296    297   2   0.50000     0.0600000    0.0600000   3.930919e-05  8.704828e-09
    296    298   2   0.50000     0.0600000    0.0600000   3.930919e-05  8.704828e-09
    296    299   2   0.50000     0.0600000    0.0600000   3.930919e-05  8.704828e-09

[ angles ]
; ai  aj  ak
      2      1      7   1    109.5000    418.4000
      2      1      8   1    109.5000    292.8800
      2      1     16   1    109.5000    292.8800
      7      1      8   1    110.7000    313.8000
      7      1     16   1    110.7000    313.8000
      8      1     16   1    107.8000    276.1440
      1      2      3   1    116.9000    694.5440
      2      3      4   1    123.4000    694.5440
      2      3      5   1    111.4000    677.8080
      4      3      5   1    120.4000    669.4400
      3      5      6   1    111.1000    527.1840
      3      5      9   1    109.5000    292.8800
      3      5     10   1    109.5000    292.8800
      6      5      9   1    110.7000    313.8000
      6      5     10   1    110.7000    313.8000
      9      5     10   1    107.8000    276.1440
      5      6     11   1    110.7000    313.8000
      5      6     12   1    110.7000    313.8000
      5      6     13   1    110.7000    313.8000
     11      6     12   1    107.8000    276.1440
     11      6     13   1    107.8000    276.1440
     12      6     13   1    107.8000    276.1440
      1      7     14   1    110.7000    313.8000
      1      7     15   1    110.7000    313.8000
      1      7     17   1    112.7000    488.2728
     14      7     15   1    107.8000    276.1440
     14      7     17   1    110.7000    313.8000
     15      7     17   1    110.7000    313.8000
      7     17     18   1    109.5000    418.4000
      7     17     23   1    112.7000    488.2728
      7     17     24   1    110.7000    313.8000
     18     17     23   1    109.5000    418.4000
     18     17     24   1    109.5000    292.8800
     23     17     24   1    110.7000    313.8000
     17     18     19   1    116.9000    694.5440
     18     19     20   1    123.4000    694.5440
     18     19     21   1    111.4000    677.8080
     20     19     21   1    120.4000    669.4400
     19     21     22   1    111.1000    527.1840
     19     21     25   1    109.5000    292.8800
     19     21     26   1    109.5000    292.8800
     22     21     25   1    110.7000    313.8000
     22     21     26   1    110.7000    313.8000
     25     21     26   1    107.8000    276.1440
     21     22     27   1    110.7000    313.8000
     21     22     28   1    110.7000    313.8000
     21     22     29   1    110.7000    313.8000
     27     22     28   1    107.8000    276.1440
     27     22     29   1    107.8000    276.1440
     28     22     29   1    107.8000    276.1440
     17     23     30   1    110.7000    313.8000
     17     23     31   1    110.7000    313.8000
     17     23     32   1    112.7000    488.2728
     30     23     31   1    107.8000    276.1440
     30     23     32   1    110.7000    313.8000
     31     23     32   1    110.7000    313.8000
     23     32     33   1    109.5000    418.4000
     23     32     38   1    112.7000    488.2728
     23     32     39   1    110.7000    313.8000
     33     32     38   1    109.5000    418.4000
     33     32     39   1    109.5000    292.8800
     38     32     39   1    110.7000    313.8000
     32     33     34   1    116.9000    694.5440
     33     34     35   1    123.4000    694.5440
     33     34     36   1    111.4000    677.8080
     35     34     36   1    120.4000    669.4400
     34     36     37   1    111.1000    527.1840
     34     36     40   1    109.5000    292.8800
     34     36     41   1    109.5000    292.8800
     37     36     40   1    110.7000    313.8000
     37     36     41   1    110.7000    313.8000
     40     36     41   1    107.8000    276.1440
     36     37     42   1    110.7000    313.8000
     36     37     43   1    110.7000    313.8000
     36     37     44   1    110.7000    313.8000
     42     37     43   1    107.8000    276.1440
     42     37     44   1    107.8000    276.1440
     43     37     44   1    107.8000    276.1440
     32     38     45   1    110.7000    313.8000
     32     38     46   1    110.7000    313.8000
     32     38     47   1    112.7000    488.2728
     45     38     46   1    107.8000    276.1440
     45     38     47   1    110.7000    313.8000
     46     38     47   1    110.7000    313.8000
     38     47     48   1    109.5000    418.4000
     38     47     53   1    112.7000    488.2728
     38     47     54   1    110.7000    313.8000
     48     47     53   1    109.5000    418.4000
     48     47     54   1    109.5000    292.8800
     53     47     54   1    110.7000    313.8000
     47     48     49   1    116.9000    694.5440
     48     49     50   1    123.4000    694.5440
     48     49     51   1    111.4000    677.8080
     50     49     51   1    120.4000    669.4400
     49     51     52   1    111.1000    527.1840
     49     51     55   1    109.5000    292.8800
     49     51     56   1    109.5000    292.8800
     52     51     55   1    110.7000    313.8000
     52     51     56   1    110.7000    313.8000
     55     51     56   1    107.8000    276.1440
     51     52     57   1    110.7000    313.8000
     51     52     58   1    110.7000    313.8000
     51     52     59   1    110.7000    313.8000
     57     52     58   1    107.8000    276.1440
     57     52     59   1    107.8000    276.1440
     58     52     59   1    107.8000    276.1440
     47     53     60   1    110.7000    313.8000
     47     53     61   1    110.7000    313.8000
     47     53     62   1    112.7000    488.2728
     60     53     61   1    107.8000    276.1440
     60     53     62   1    110.7000    313.8000
     61     53     62   1    110.7000    313.8000
     53     62     63   1    109.5000    418.4000
     53     62     68   1    112.7000    488.2728
     53     62     69   1    110.7000    313.8000
     63     62     68   1    109.5000    418.4000
     63     62     69   1    109.5000    292.8800
     68     62     69   1    110.7000    313.8000
     62     63     64   1    116.9000    694.5440
     63     64     65   1    123.4000    694.5440
     63     64     66   1    111.4000    677.8080
     65     64     66   1    120.4000    669.4400
     64     66     67   1    111.1000    527.1840
     64     66     70   1    109.5000    292.8800
     64     66     71   1    109.5000    292.8800
     67     66     70   1    110.7000    313.8000
     67     66     71   1    110.7000    313.8000
     70     66     71   1    107.8000    276.1440
     66     67     72   1    110.7000    313.8000
     66     67     73   1    110.7000    313.8000
     66     67     74   1    110.7000    313.8000
     72     67     73   1    107.8000    276.1440
     72     67     74   1    107.8000    276.1440
     73     67     74   1    107.8000    276.1440
     62     68     75   1    110.7000    313.8000
     62     68     76   1    110.7000    313.8000
     62     68     77   1    112.7000    488.2728
     75     68     76   1    107.8000    276.1440
     75     68     77   1    110.7000    313.8000
     76     68     77   1    110.7000    313.8000
     68     77     78   1    109.5000    418.4000
     68     77     83   1    112.7000    488.2728
     68     77     84   1    110.7000    313.8000
     78     77     83   1    109.5000    418.4000
     78     77     84   1    109.5000    292.8800
     83     77     84   1    110.7000    313.8000
     77     78     79   1    116.9000    694.5440
     78     79     80   1    123.4000    694.5440
     78     79     81   1    111.4000    677.8080
     80     79     81   1    120.4000    669.4400
     79     81     82   1    111.1000    527.1840
     79     81     85   1    109.5000    292.8800
     79     81     86   1    109.5000    292.8800
     82     81     85   1    110.7000    313.8000
     82     81     86   1    110.7000    313.8000
     85     81     86   1    107.8000    276.1440
     81     82     87   1    110.7000    313.8000
     81     82     88   1    110.7000    313.8000
     81     82     89   1    110.7000    313.8000
     87     82     88   1    107.8000    276.1440
     87     82     89   1    107.8000    276.1440
     88     82     89   1    107.8000    276.1440
     77     83     90   1    110.7000    313.8000
     77     83     91   1    110.7000    313.8000
     77     83     92   1    112.7000    488.2728
     90     83     91   1    107.8000    276.1440
     90     83     92   1    110.7000    313.8000
     91     83     92   1    110.7000    313.8000
     83     92     93   1    109.5000    418.4000
     83     92     98   1    112.7000    488.2728
     83     92     99   1    110.7000    313.8000
     93     92     98   1    109.5000    418.4000
     93     92     99   1    109.5000    292.8800
     98     92     99   1    110.7000    313.8000
     92     93     94   1    116.9000    694.5440
     93     94     95   1    123.4000    694.5440
     93     94     96   1    111.4000    677.8080
     95     94     96   1    120.4000    669.4400
     94     96     97   1    111.1000    527.1840
     94     96    100   1    109.5000    292.8800
     94     96    101   1    109.5000    292.8800
     97     96    100   1    110.7000    313.8000
     97     96    101   1    110.7000    313.8000
    100     96    101   1    107.8000    276.1440
     96     97    102   1    110.7000    313.8000
     96     97    103   1    110.7000    313.8000
     96     97    104   1    110.7000    313.8000
    102     97    103   1    107.8000    276.1440
    102     97    104   1    107.8000    276.1440
    103     97    104   1    107.8000    276.1440
     92     98    105   1    110.7000    313.8000
     92     98    106   1    110.7000    313.8000
     92     98    107   1    112.7000    488.2728
    105     98    106   1    107.8000    276.1440
    105     98    107   1    110.7000    313.8000
    106     98    107   1    110.7000    313.8000
     98    107    108   1    109.5000    418.4000
     98    107    113   1    112.7000    488.2728
     98    107    114   1    110.7000    313.8000
    108    107    113   1    109.5000    418.4000
    108    107    114   1    109.5000    292.8800
    113    107    114   1    110.7000    313.8000
    107    108    109   1    116.9000    694.5440
    108    109    110   1    123.4000    694.5440
    108    109    111   1    111.4000    677.8080
    110    109    111   1    120.4000    669.4400
    109    111    112   1    111.1000    527.1840
    109    111    115   1    109.5000    292.8800
    109    111    116   1    109.5000    292.8800
    112    111    115   1    110.7000    313.8000
    112    111    116   1    110.7000    313.8000
    115    111    116   1    107.8000    276.1440
    111    112    117   1    110.7000    313.8000
    111    112    118   1    110.7000    313.8000
    111    112    119   1    110.7000    313.8000
    117    112    118   1    107.8000    276.1440
    117    112    119   1    107.8000    276.1440
    118    112    119   1    107.8000    276.1440
    107    113    120   1    110.7000    313.8000
    107    113    121   1    110.7000    313.8000
    107    113    122   1    112.7000    488.2728
    120    113    121   1    107.8000    276.1440
    120    113    122   1    110.7000    313.8000
    121    113    122   1    110.7000    313.8000
    113    122    123   1    109.5000    418.4000
    113    122    128   1    112.7000    488.2728
    113    122    129   1    110.7000    313.8000
    123    122    128   1    109.5000    418.4000
    123    122    129   1    109.5000    292.8800
    128    122    129   1    110.7000    313.8000
    122    123    124   1    116.9000    694.5440
    123    124    125   1    123.4000    694.5440
    123    124    126   1    111.4000    677.8080
    125    124    126   1    120.4000    669.4400
    124    126    127   1    111.1000    527.1840
    124    126    130   1    109.5000    292.8800
    124    126    131   1    109.5000    292.8800
    127    126    130   1    110.7000    313.8000
    127    126    131   1    110.7000    313.8000
    130    126    131   1    107.8000    276.1440
    126    127    132   1    110.7000    313.8000
    126    127    133   1    110.7000    313.8000
    126    127    134   1    110.7000    313.8000
    132    127    133   1    107.8000    276.1440
    132    127    134   1    107.8000    276.1440
    133    127    134   1    107.8000    276.1440
    122    128    135   1    110.7000    313.8000
    122    128    136   1    110.7000    313.8000
    122    128    137   1    112.7000    488.2728
    135    128    136   1    107.8000    276.1440
    135    128    137   1    110.7000    313.8000
    136    128    137   1    110.7000    313.8000
    128    137    138   1    109.5000    418.4000
    128    137    143   1    112.7000    488.2728
    128    137    144   1    110.7000    313.8000
    138    137    143   1    109.5000    418.4000
    138    137    144   1    109.5000    292.8800
    143    137    144   1    110.7000    313.8000
    137    138    139   1    116.9000    694.5440
    138    139    140   1    123.4000    694.5440
    138    139    141   1    111.4000    677.8080
    140    139    141   1    120.4000    669.4400
    139    141    142   1    111.1000    527.1840
    139    141    145   1    109.5000    292.8800
    139    141    146   1    109.5000    292.8800
    142    141    145   1    110.7000    313.8000
    142    141    146   1    110.7000    313.8000
    145    141    146   1    107.8000    276.1440
    141    142    147   1    110.7000    313.8000
    141    142    148   1    110.7000    313.8000
    141    142    149   1    110.7000    313.8000
    147    142    148   1    107.8000    276.1440
    147    142    149   1    107.8000    276.1440
    148    142    149   1    107.8000    276.1440
    137    143    150   1    110.7000    313.8000
    137    143    151   1    110.7000    313.8000
    137    143    152   1    112.7000    488.2728
    150    143    151   1    107.8000    276.1440
    150    143    152   1    110.7000    313.8000
    151    143    152   1    110.7000    313.8000
    143    152    153   1    109.5000    418.4000
    143    152    158   1    112.7000    488.2728
    143    152    159   1    110.7000    313.8000
    153    152    158   1    109.5000    418.4000
    153    152    159   1    109.5000    292.8800
    158    152    159   1    110.7000    313.8000
    152    153    154   1    116.9000    694.5440
    153    154    155   1    123.4000    694.5440
    153    154    156   1    111.4000    677.8080
    155    154    156   1    120.4000    669.4400
    154    156    157   1    111.1000    527.1840
    154    156    160   1    109.5000    292.8800
    154    156    161   1    109.5000    292.8800
    157    156    160   1    110.7000    313.8000
    157    156    161   1    110.7000    313.8000
    160    156    161   1    107.8000    276.1440
    156    157    162   1    110.7000    313.8000
    156    157    163   1    110.7000    313.8000
    156    157    164   1    110.7000    313.8000
    162    157    163   1    107.8000    276.1440
    162    157    164   1    107.8000    276.1440
    163    157    164   1    107.8000    276.1440
    152    158    165   1    110.7000    313.8000
    152    158    166   1    110.7000    313.8000
    152    158    167   1    112.7000    488.2728
    165    158    166   1    107.8000    276.1440
    165    158    167   1    110.7000    313.8000
    166    158    167   1    110.7000    313.8000
    158    167    168   1    109.5000    418.4000
    158    167    173   1    112.7000    488.2728
    158    167    174   1    110.7000    313.8000
    168    167    173   1    109.5000    418.4000
    168    167    174   1    109.5000    292.8800
    173    167    174   1    110.7000    313.8000
    167    168    169   1    116.9000    694.5440
    168    169    170   1    123.4000    694.5440
    168    169    171   1    111.4000    677.8080
    170    169    171   1    120.4000    669.4400
    169    171    172   1    111.1000    527.1840
    169    171    175   1    109.5000    292.8800
    169    171    176   1    109.5000    292.8800
    172    171    175   1    110.7000    313.8000
    172    171    176   1    110.7000    313.8000
    175    171    176   1    107.8000    276.1440
    171    172    177   1    110.7000    313.8000
    171    172    178   1    110.7000    313.8000
    171    172    179   1    110.7000    313.8000
    177    172    178   1    107.8000    276.1440
    177    172    179   1    107.8000    276.1440
    178    172    179   1    107.8000    276.1440
    167    173    180   1    110.7000    313.8000
    167    173    181   1    110.7000    313.8000
    167    173    182   1    112.7000    488.2728
    180    173    181   1    107.8000    276.1440
    180    173    182   1    110.7000    313.8000
    181    173    182   1    110.7000    313.8000
    173    182    183   1    109.5000    418.4000
    173    182    188   1    112.7000    488.2728
    173    182    189   1    110.7000    313.8000
    183    182    188   1    109.5000    418.4000
    183    182    189   1    109.5000    292.8800
    188    182    189   1    110.7000    313.8000
    182    183    184   1    116.9000    694.5440
    183    184    185   1    123.4000    694.5440
    183    184    186   1    111.4000    677.8080
    185    184    186   1    120.4000    669.4400
    184    186    187   1    111.1000    527.1840
    184    186    190   1    109.5000    292.8800
    184    186    191   1    109.5000    292.8800
    187    186    190   1    110.7000    313.8000
    187    186    191   1    110.7000    313.8000
    190    186    191   1    107.8000    276.1440
    186    187    192   1    110.7000    313.8000
    186    187    193   1    110.7000    313.8000
    186    187    194   1    110.7000    313.8000
    192    187    193   1    107.8000    276.1440
    192    187    194   1    107.8000    276.1440
    193    187    194   1    107.8000    276.1440
    182    188    195   1    110.7000    313.8000
    182    188    196   1    110.7000    313.8000
    182    188    197   1    112.7000    488.2728
    195    188    196   1    107.8000    276.1440
    195    188    197   1    110.7000    313.8000
    196    188    197   1    110.7000    313.8000
    188    197    198   1    109.5000    418.4000
    188    197    203   1    112.7000    488.2728
    188    197    204   1    110.7000    313.8000
    198    197    203   1    109.5000    418.4000
    198    197    204   1    109.5000    292.8800
    203    197    204   1    110.7000    313.8000
    197    198    199   1    116.9000    694.5440
    198    199    200   1    123.4000    694.5440
    198    199    201   1    111.4000    677.8080
    200    199    201   1    120.4000    669.4400
    199    201    202   1    111.1000    527.1840
    199    201    205   1    109.5000    292.8800
    199    201    206   1    109.5000    292.8800
    202    201    205   1    110.7000    313.8000
    202    201    206   1    110.7000    313.8000
    205    201    206   1    107.8000    276.1440
    201    202    207   1    110.7000    313.8000
    201    202    208   1    110.7000    313.8000
    201    202    209   1    110.7000    313.8000
    207    202    208   1    107.8000    276.1440
    207    202    209   1    107.8000    276.1440
    208    202    209   1    107.8000    276.1440
    197    203    210   1    110.7000    313.8000
    197    203    211   1    110.7000    313.8000
    197    203    212   1    112.7000    488.2728
    210    203    211   1    107.8000    276.1440
    210    203    212   1    110.7000    313.8000
    211    203    212   1    110.7000    313.8000
    203    212    213   1    109.5000    418.4000
    203    212    218   1    112.7000    488.2728
    203    212    219   1    110.7000    313.8000
    213    212    218   1    109.5000    418.4000
    213    212    219   1    109.5000    292.8800
    218    212    219   1    110.7000    313.8000
    212    213    214   1    116.9000    694.5440
    213    214    215   1    123.4000    694.5440
    213    214    216   1    111.4000    677.8080
    215    214    216   1    120.4000    669.4400
    214    216    217   1    111.1000    527.1840
    214    216    220   1    109.5000    292.8800
    214    216    221   1    109.5000    292.8800
    217    216    220   1    110.7000    313.8000
    217    216    221   1    110.7000    313.8000
    220    216    221   1    107.8000    276.1440
    216    217    222   1    110.7000    313.8000
    216    217    223   1    110.7000    313.8000
    216    217    224   1    110.7000    313.8000
    222    217    223   1    107.8000    276.1440
    222    217    224   1    107.8000    276.1440
    223    217    224   1    107.8000    276.1440
    212    218    225   1    110.7000    313.8000
    212    218    226   1    110.7000    313.8000
    212    218    227   1    112.7000    488.2728
    225    218    226   1    107.8000    276.1440
    225    218    227   1    110.7000    313.8000
    226    218    227   1    110.7000    313.8000
    218    227    228   1    109.5000    418.4000
    218    227    233   1    112.7000    488.2728
    218    227    234   1    110.7000    313.8000
    228    227    233   1    109.5000    418.4000
    228    227    234   1    109.5000    292.8800
    233    227    234   1    110.7000    313.8000
    227    228    229   1    116.9000    694.5440
    228    229    230   1    123.4000    694.5440
    228    229    231   1    111.4000    677.8080
    230    229    231   1    120.4000    669.4400
    229    231    232   1    111.1000    527.1840
    229    231    235   1    109.5000    292.8800
    229    231    236   1    109.5000    292.8800
    232    231    235   1    110.7000    313.8000
    232    231    236   1    110.7000    313.8000
    235    231    236   1    107.8000    276.1440
    231    232    237   1    110.7000    313.8000
    231    232    238   1    110.7000    313.8000
    231    232    239   1    110.7000    313.8000
    237    232    238   1    107.8000    276.1440
    237    232    239   1    107.8000    276.1440
    238    232    239   1    107.8000    276.1440
    227    233    240   1    110.7000    313.8000
    227    233    241   1    110.7000    313.8000
    227    233    242   1    112.7000    488.2728
    240    233    241   1    107.8000    276.1440
    240    233    242   1    110.7000    313.8000
    241    233    242   1    110.7000    313.8000
    233    242    243   1    109.5000    418.4000
    233    242    248   1    112.7000    488.2728
    233    242    249   1    110.7000    313.8000
    243    242    248   1    109.5000    418.4000
    243    242    249   1    109.5000    292.8800
    248    242    249   1    110.7000    313.8000
    242    243    244   1    116.9000    694.5440
    243    244    245   1    123.4000    694.5440
    243    244    246   1    111.4000    677.8080
    245    244    246   1    120.4000    669.4400
    244    246    247   1    111.1000    527.1840
    244    246    250   1    109.5000    292.8800
    244    246    251   1    109.5000    292.8800
    247    246    250   1    110.7000    313.8000
    247    246    251   1    110.7000    313.8000
    250    246    251   1    107.8000    276.1440
    246    247    252   1    110.7000    313.8000
    246    247    253   1    110.7000    313.8000
    246    247    254   1    110.7000    313.8000
    252    247    253   1    107.8000    276.1440
    252    247    254   1    107.8000    276.1440
    253    247    254   1    107.8000    276.1440
    242    248    255   1    110.7000    313.8000
    242    248    256   1    110.7000    313.8000
    242    248    257   1    112.7000    488.2728
    255    248    256   1    107.8000    276.1440
    255    248    257   1    110.7000    313.8000
    256    248    257   1    110.7000    313.8000
    248    257    258   1    109.5000    418.4000
    248    257    263   1    112.7000    488.2728
    248    257    264   1    110.7000    313.8000
    258    257    263   1    109.5000    418.4000
    258    257    264   1    109.5000    292.8800
    263    257    264   1    110.7000    313.8000
    257    258    259   1    116.9000    694.5440
    258    259    260   1    123.4000    694.5440
    258    259    261   1    111.4000    677.8080
    260    259    261   1    120.4000    669.4400
    259    261    262   1    111.1000    527.1840
    259    261    265   1    109.5000    292.8800
    259    261    266   1    109.5000    292.8800
    262    261    265   1    110.7000    313.8000
    262    261    266   1    110.7000    313.8000
    265    261    266   1    107.8000    276.1440
    261    262    267   1    110.7000    313.8000
    261    262    268   1    110.7000    313.8000
    261    262    269   1    110.7000    313.8000
    267    262    268   1    107.8000    276.1440
    267    262    269   1    107.8000    276.1440
    268    262    269   1    107.8000    276.1440
    257    263    270   1    110.7000    313.8000
    257    263    271   1    110.7000    313.8000
    257    263    272   1    112.7000    488.2728
    270    263    271   1    107.8000    276.1440
    270    263    272   1    110.7000    313.8000
    271    263    272   1    110.7000    313.8000
    263    272    273   1    109.5000    418.4000
    263    272    278   1    112.7000    488.2728
    263    272    279   1    110.7000    313.8000
    273    272    278   1    109.5000    418.4000
    273    272    279   1    109.5000    292.8800
    278    272    279   1    110.7000    313.8000
    272    273    274   1    116.9000    694.5440
    273    274    275   1    123.4000    694.5440
    273    274    276   1    111.4000    677.8080
    275    274    276   1    120.4000    669.4400
    274    276    277   1    111.1000    527.1840
    274    276    280   1    109.5000    292.8800
    274    276    281   1    109.5000    292.8800
    277    276    280   1    110.7000    313.8000
    277    276    281   1    110.7000    313.8000
    280    276    281   1    107.8000    276.1440
    276    277    282   1    110.7000    313.8000
    276    277    283   1    110.7000    313.8000
    276    277    284   1    110.7000    313.8000
    282    277    283   1    107.8000    276.1440
    282    277    284   1    107.8000    276.1440
    283    277    284   1    107.8000    276.1440
    272    278    285   1    110.7000    313.8000
    272    278    286   1    110.7000    313.8000
    272    278    287   1    112.7000    488.2728
    285    278    286   1    107.8000    276.1440
    285    278    287   1    110.7000    313.8000
    286    278    287   1    110.7000    313.8000
    278    287    288   1    109.5000    418.4000
    278    287    293   1    112.7000    488.2728
    278    287    294   1    110.7000    313.8000
    288    287    293   1    109.5000    418.4000
    288    287    294   1    109.5000    292.8800
    293    287    294   1    110.7000    313.8000
    287    288    289   1    116.9000    694.5440
    288    289    290   1    123.4000    694.5440
    288    289    291   1    111.4000    677.8080
    290    289    291   1    120.4000    669.4400
    289    291    292   1    111.1000    527.1840
    289    291    295   1    109.5000    292.8800
    289    291    296   1    109.5000    292.8800
    292    291    295   1    110.7000    313.8000
    292    291    296   1    110.7000    313.8000
    295    291    296   1    107.8000    276.1440
    291    292    297   1    110.7000    313.8000
    291    292    298   1    110.7000    313.8000
    291    292    299   1    110.7000    313.8000
    297    292    298   1    107.8000    276.1440
    297    292    299   1    107.8000    276.1440
    298    292    299   1    107.8000    276.1440
    287    293    300   1    110.7000    313.8000
    287    293    301   1    110.7000    313.8000
    287    293    302   1    110.7000    313.8000
    300    293    301   1    107.8000    276.1440
    300    293    302   1    107.8000    276.1440
    301    293    302   1    107.8000    276.1440

[ dihedrals ]
; Proper dihedrals
      7      1      2      3   5    -2.16731    -3.93296     0.98324  0.0
      8      1      2      3   5     0.00000     0.00000     0.67362  0.0
     16      1      2      3   5     0.00000     0.00000     0.67362  0.0
      2      1      7     14   5     0.00000     0.00000     1.95811  0.0
      2      1      7     15   5     0.00000     0.00000     1.95811  0.0
      2      1      7     17   5     5.25092    -2.58990     2.28446  0.0
      8      1      7     14   5     0.00000     0.00000     1.25520  0.0
      8      1      7     15   5     0.00000     0.00000     1.25520  0.0
      8      1      7     17   5     0.00000     0.00000     1.25520  0.0
     16      1      7     14   5     0.00000     0.00000     1.25520  0.0
     16      1      7     15   5     0.00000     0.00000     1.25520  0.0
     16      1      7     17   5     0.00000     0.00000     1.25520  0.0
      1      2      3      4   5     0.00000    25.10400     0.00000  0.0
      1      2      3      5   5    13.65239    24.43456     0.00000  0.0
      2      3      5      6   5     0.00000     0.00000     3.07524  0.0
      2      3      5      9   5     0.00000     0.00000     0.00000  0.0
      2      3      5     10   5     0.00000     0.00000     0.00000  0.0
      4      3      5      6   5     0.00000     2.52295     0.00000  0.0
      4      3      5      9   5     0.00000     0.00000     0.00000  0.0
      4      3      5     10   5     0.00000     0.00000     0.00000  0.0
      3      5      6     11   5     0.00000     0.00000    -0.94140  0.0
      3      5      6     12   5     0.00000     0.00000    -0.94140  0.0
      3      5      6     13   5     0.00000     0.00000    -0.94140  0.0
      9      5      6     11   5     0.00000     0.00000     1.25520  0.0
      9      5      6     12   5     0.00000     0.00000     1.25520  0.0
      9      5      6     13   5     0.00000     0.00000     1.25520  0.0
     10      5      6     11   5     0.00000     0.00000     1.25520  0.0
     10      5      6     12   5     0.00000     0.00000     1.25520  0.0
     10      5      6     13   5     0.00000     0.00000     1.25520  0.0
      1      7     17     18   5     5.25092    -2.58990     2.28446  0.0
      1      7     17     23   5     4.74884    -0.63178     1.67360  0.0
      1      7     17     24   5     0.00000     0.00000     1.25520  0.0
     14      7     17     18   5     0.00000     0.00000     1.95811  0.0
     14      7     17     23   5     0.00000     0.00000     1.25520  0.0
     14      7     17     24   5     0.00000     0.00000     1.25520  0.0
     15      7     17     18   5     0.00000     0.00000     1.95811  0.0
     15      7     17     23   5     0.00000     0.00000     1.25520  0.0
     15      7     17     24   5     0.00000     0.00000     1.25520  0.0
      7     17     18     19   5    -2.16731    -3.93296     0.98324  0.0
     23     17     18     19   5    -2.16731    -3.93296     0.98324  0.0
     24     17     18     19   5     0.00000     0.00000     0.67362  0.0
      7     17     23     30   5     0.00000     0.00000     1.25520  0.0
      7     17     23     31   5     0.00000     0.00000     1.25520  0.0
      7     17     23     32   5     4.74884    -0.63178     1.67360  0.0
     18     17     23     30   5     0.00000     0.00000     1.95811  0.0
     18     17     23     31   5     0.00000     0.00000     1.95811  0.0
     18     17     23     32   5     5.25092    -2.58990     2.28446  0.0
     24     17     23     30   5     0.00000     0.00000     1.25520  0.0
     24     17     23     31   5     0.00000     0.00000     1.25520  0.0
     24     17     23     32   5     0.00000     0.00000     1.25520  0.0
     17     18     19     20   5     0.00000    25.10400     0.00000  0.0
     17     18     19     21   5    13.65239    24.43456     0.00000  0.0
     18     19     21     22   5     0.00000     0.00000     3.07524  0.0
     18     19     21     25   5     0.00000     0.00000     0.00000  0.0
     18     19     21     26   5     0.00000     0.00000     0.00000  0.0
     20     19     21     22   5     0.00000     2.52295     0.00000  0.0
     20     19     21     25   5     0.00000     0.00000     0.00000  0.0
     20     19     21     26   5     0.00000     0.00000     0.00000  0.0
     19     21     22     27   5     0.00000     0.00000    -0.94140  0.0
     19     21     22     28   5     0.00000     0.00000    -0.94140  0.0
     19     21     22     29   5     0.00000     0.00000    -0.94140  0.0
     25     21     22     27   5     0.00000     0.00000     1.25520  0.0
     25     21     22     28   5     0.00000     0.00000     1.25520  0.0
     25     21     22     29   5     0.00000     0.00000     1.25520  0.0
     26     21     22     27   5     0.00000     0.00000     1.25520  0.0
     26     21     22     28   5     0.00000     0.00000     1.25520  0.0
     26     21     22     29   5     0.00000     0.00000     1.25520  0.0
     17     23     32     33   5     5.25092    -2.58990     2.28446  0.0
     17     23     32     38   5     4.74884    -0.63178     1.67360  0.0
     17     23     32     39   5     0.00000     0.00000     1.25520  0.0
     30     23     32     33   5     0.00000     0.00000     1.95811  0.0
     30     23     32     38   5     0.00000     0.00000     1.25520  0.0
     30     23     32     39   5     0.00000     0.00000     1.25520  0.0
     31     23     32     33   5     0.00000     0.00000     1.95811  0.0
     31     23     32     38   5     0.00000     0.00000     1.25520  0.0
     31     23     32     39   5     0.00000     0.00000     1.25520  0.0
     23     32     33     34   5    -2.16731    -3.93296     0.98324  0.0
     38     32     33     34   5    -2.16731    -3.93296     0.98324  0.0
     39     32     33     34   5     0.00000     0.00000     0.67362  0.0
     23     32     38     45   5     0.00000     0.00000     1.25520  0.0
     23     32     38     46   5     0.00000     0.00000     1.25520  0.0
     23     32     38     47   5     4.74884    -0.63178     1.67360  0.0
     33     32     38     45   5     0.00000     0.00000     1.95811  0.0
     33     32     38     46   5     0.00000     0.00000     1.95811  0.0
     33     32     38     47   5     5.25092    -2.58990     2.28446  0.0
     39     32     38     45   5     0.00000     0.00000     1.25520  0.0
     39     32     38     46   5     0.00000     0.00000     1.25520  0.0
     39     32     38     47   5     0.00000     0.00000     1.25520  0.0
     32     33     34     35   5     0.00000    25.10400     0.00000  0.0
     32     33     34     36   5    13.65239    24.43456     0.00000  0.0
     33     34     36     37   5     0.00000     0.00000     3.07524  0.0
     33     34     36     40   5     0.00000     0.00000     0.00000  0.0
     33     34     36     41   5     0.00000     0.00000     0.00000  0.0
     35     34     36     37   5     0.00000     2.52295     0.00000  0.0
     35     34     36     40   5     0.00000     0.00000     0.00000  0.0
     35     34     36     41   5     0.00000     0.00000     0.00000  0.0
     34     36     37     42   5     0.00000     0.00000    -0.94140  0.0
     34     36     37     43   5     0.00000     0.00000    -0.94140  0.0
     34     36     37     44   5     0.00000     0.00000    -0.94140  0.0
     40     36     37     42   5     0.00000     0.00000     1.25520  0.0
     40     36     37     43   5     0.00000     0.00000     1.25520  0.0
     40     36     37     44   5     0.00000     0.00000     1.25520  0.0
     41     36     37     42   5     0.00000     0.00000     1.25520  0.0
     41     36     37     43   5     0.00000     0.00000     1.25520  0.0
     41     36     37     44   5     0.00000     0.00000     1.25520  0.0
     32     38     47     48   5     5.25092    -2.58990     2.28446  0.0
     32     38     47     53   5     4.74884    -0.63178     1.67360  0.0
     32     38     47     54   5     0.00000     0.00000     1.25520  0.0
     45     38     47     48   5     0.00000     0.00000     1.95811  0.0
     45     38     47     53   5     0.00000     0.00000     1.25520  0.0
     45     38     47     54   5     0.00000     0.00000     1.25520  0.0
     46     38     47     48   5     0.00000     0.00000     1.95811  0.0
     46     38     47     53   5     0.00000     0.00000     1.25520  0.0
     46     38     47     54   5     0.00000     0.00000     1.25520  0.0
     38     47     48     49   5    -2.16731    -3.93296     0.98324  0.0
     53     47     48     49   5    -2.16731    -3.93296     0.98324  0.0
     54     47     48     49   5     0.00000     0.00000     0.67362  0.0
     38     47     53     60   5     0.00000     0.00000     1.25520  0.0
     38     47     53     61   5     0.00000     0.00000     1.25520  0.0
     38     47     53     62   5     4.74884    -0.63178     1.67360  0.0
     48     47     53     60   5     0.00000     0.00000     1.95811  0.0
     48     47     53     61   5     0.00000     0.00000     1.95811  0.0
     48     47     53     62   5     5.25092    -2.58990     2.28446  0.0
     54     47     53     60   5     0.00000     0.00000     1.25520  0.0
     54     47     53     61   5     0.00000     0.00000     1.25520  0.0
     54     47     53     62   5     0.00000     0.00000     1.25520  0.0
     47     48     49     50   5     0.00000    25.10400     0.00000  0.0
     47     48     49     51   5    13.65239    24.43456     0.00000  0.0
     48     49     51     52   5     0.00000     0.00000     3.07524  0.0
     48     49     51     55   5     0.00000     0.00000     0.00000  0.0
     48     49     51     56   5     0.00000     0.00000     0.00000  0.0
     50     49     51     52   5     0.00000     2.52295     0.00000  0.0
     50     49     51     55   5     0.00000     0.00000     0.00000  0.0
     50     49     51     56   5     0.00000     0.00000     0.00000  0.0
     49     51     52     57   5     0.00000     0.00000    -0.94140  0.0
     49     51     52     58   5     0.00000     0.00000    -0.94140  0.0
     49     51     52     59   5     0.00000     0.00000    -0.94140  0.0
     55     51     52     57   5     0.00000     0.00000     1.25520  0.0
     55     51     52     58   5     0.00000     0.00000     1.25520  0.0
     55     51     52     59   5     0.00000     0.00000     1.25520  0.0
     56     51     52     57   5     0.00000     0.00000     1.25520  0.0
     56     51     52     58   5     0.00000     0.00000     1.25520  0.0
     56     51     52     59   5     0.00000     0.00000     1.25520  0.0
     47     53     62     63   5     5.25092    -2.58990     2.28446  0.0
     47     53     62     68   5     4.74884    -0.63178     1.67360  0.0
     47     53     62     69   5     0.00000     0.00000     1.25520  0.0
     60     53     62     63   5     0.00000     0.00000     1.95811  0.0
     60     53     62     68   5     0.00000     0.00000     1.25520  0.0
     60     53     62     69   5     0.00000     0.00000     1.25520  0.0
     61     53     62     63   5     0.00000     0.00000     1.95811  0.0
     61     53     62     68   5     0.00000     0.00000     1.25520  0.0
     61     53     62     69   5     0.00000     0.00000     1.25520  0.0
     53     62     63     64   5    -2.16731    -3.93296     0.98324  0.0
     68     62     63     64   5    -2.16731    -3.93296     0.98324  0.0
     69     62     63     64   5     0.00000     0.00000     0.67362  0.0
     53     62     68     75   5     0.00000     0.00000     1.25520  0.0
     53     62     68     76   5     0.00000     0.00000     1.25520  0.0
     53     62     68     77   5     4.74884    -0.63178     1.67360  0.0
     63     62     68     75   5     0.00000     0.00000     1.95811  0.0
     63     62     68     76   5     0.00000     0.00000     1.95811  0.0
     63     62     68     77   5     5.25092    -2.58990     2.28446  0.0
     69     62     68     75   5     0.00000     0.00000     1.25520  0.0
     69     62     68     76   5     0.00000     0.00000     1.25520  0.0
     69     62     68     77   5     0.00000     0.00000     1.25520  0.0
     62     63     64     65   5     0.00000    25.10400     0.00000  0.0
     62     63     64     66   5    13.65239    24.43456     0.00000  0.0
     63     64     66     67   5     0.00000     0.00000     3.07524  0.0
     63     64     66     70   5     0.00000     0.00000     0.00000  0.0
     63     64     66     71   5     0.00000     0.00000     0.00000  0.0
     65     64     66     67   5     0.00000     2.52295     0.00000  0.0
     65     64     66     70   5     0.00000     0.00000     0.00000  0.0
     65     64     66     71   5     0.00000     0.00000     0.00000  0.0
     64     66     67     72   5     0.00000     0.00000    -0.94140  0.0
     64     66     67     73   5     0.00000     0.00000    -0.94140  0.0
     64     66     67     74   5     0.00000     0.00000    -0.94140  0.0
     70     66     67     72   5     0.00000     0.00000     1.25520  0.0
     70     66     67     73   5     0.00000     0.00000     1.25520  0.0
     70     66     67     74   5     0.00000     0.00000     1.25520  0.0
     71     66     67     72   5     0.00000     0.00000     1.25520  0.0
     71     66     67     73   5     0.00000     0.00000     1.25520  0.0
     71     66     67     74   5     0.00000     0.00000     1.25520  0.0
     62     68     77     78   5     5.25092    -2.58990     2.28446  0.0
     62     68     77     83   5     4.74884    -0.63178     1.67360  0.0
     62     68     77     84   5     0.00000     0.00000     1.25520  0.0
     75     68     77     78   5     0.00000     0.00000     1.95811  0.0
     75     68     77     83   5     0.00000     0.00000     1.25520  0.0
     75     68     77     84   5     0.00000     0.00000     1.25520  0.0
     76     68     77     78   5     0.00000     0.00000     1.95811  0.0
     76     68     77     83   5     0.00000     0.00000     1.25520  0.0
     76     68     77     84   5     0.00000     0.00000     1.25520  0.0
     68     77     78     79   5    -2.16731    -3.93296     0.98324  0.0
     83     77     78     79   5    -2.16731    -3.93296     0.98324  0.0
     84     77     78     79   5     0.00000     0.00000     0.67362  0.0
     68     77     83     90   5     0.00000     0.00000     1.25520  0.0
     68     77     83     91   5     0.00000     0.00000     1.25520  0.0
     68     77     83     92   5     4.74884    -0.63178     1.67360  0.0
     78     77     83     90   5     0.00000     0.00000     1.95811  0.0
     78     77     83     91   5     0.00000     0.00000     1.95811  0.0
     78     77     83     92   5     5.25092    -2.58990     2.28446  0.0
     84     77     83     90   5     0.00000     0.00000     1.25520  0.0
     84     77     83     91   5     0.00000     0.00000     1.25520  0.0
     84     77     83     92   5     0.00000     0.00000     1.25520  0.0
     77     78     79     80   5     0.00000    25.10400     0.00000  0.0
     77     78     79     81   5    13.65239    24.43456     0.00000  0.0
     78     79     81     82   5     0.00000     0.00000     3.07524  0.0
     78     79     81     85   5     0.00000     0.00000     0.00000  0.0
     78     79     81     86   5     0.00000     0.00000     0.00000  0.0
     80     79     81     82   5     0.00000     2.52295     0.00000  0.0
     80     79     81     85   5     0.00000     0.00000     0.00000  0.0
     80     79     81     86   5     0.00000     0.00000     0.00000  0.0
     79     81     82     87   5     0.00000     0.00000    -0.94140  0.0
     79     81     82     88   5     0.00000     0.00000    -0.94140  0.0
     79     81     82     89   5     0.00000     0.00000    -0.94140  0.0
     85     81     82     87   5     0.00000     0.00000     1.25520  0.0
     85     81     82     88   5     0.00000     0.00000     1.25520  0.0
     85     81     82     89   5     0.00000     0.00000     1.25520  0.0
     86     81     82     87   5     0.00000     0.00000     1.25520  0.0
     86     81     82     88   5     0.00000     0.00000     1.25520  0.0
     86     81     82     89   5     0.00000     0.00000     1.25520  0.0
     77     83     92     93   5     5.25092    -2.58990     2.28446  0.0
     77     83     92     98   5     4.74884    -0.63178     1.67360  0.0
     77     83     92     99   5     0.00000     0.00000     1.25520  0.0
     90     83     92     93   5     0.00000     0.00000     1.95811  0.0
     90     83     92     98   5     0.00000     0.00000     1.25520  0.0
     90     83     92     99   5     0.00000     0.00000     1.25520  0.0
     91     83     92     93   5     0.00000     0.00000     1.95811  0.0
     91     83     92     98   5     0.00000     0.00000     1.25520  0.0
     91     83     92     99   5     0.00000     0.00000     1.25520  0.0
     83     92     93     94   5    -2.16731    -3.93296     0.98324  0.0
     98     92     93     94   5    -2.16731    -3.93296     0.98324  0.0
     99     92     93     94   5     0.00000     0.00000     0.67362  0.0
     83     92     98    105   5     0.00000     0.00000     1.25520  0.0
     83     92     98    106   5     0.00000     0.00000     1.25520  0.0
     83     92     98    107   5     4.74884    -0.63178     1.67360  0.0
     93     92     98    105   5     0.00000     0.00000     1.95811  0.0
     93     92     98    106   5     0.00000     0.00000     1.95811  0.0
     93     92     98    107   5     5.25092    -2.58990     2.28446  0.0
     99     92     98    105   5     0.00000     0.00000     1.25520  0.0
     99     92     98    106   5     0.00000     0.00000     1.25520  0.0
     99     92     98    107   5     0.00000     0.00000     1.25520  0.0
     92     93     94     95   5     0.00000    25.10400     0.00000  0.0
     92     93     94     96   5    13.65239    24.43456     0.00000  0.0
     93     94     96     97   5     0.00000     0.00000     3.07524  0.0
     93     94     96    100   5     0.00000     0.00000     0.00000  0.0
     93     94     96    101   5     0.00000     0.00000     0.00000  0.0
     95     94     96     97   5     0.00000     2.52295     0.00000  0.0
     95     94     96    100   5     0.00000     0.00000     0.00000  0.0
     95     94     96    101   5     0.00000     0.00000     0.00000  0.0
     94     96     97    102   5     0.00000     0.00000    -0.94140  0.0
     94     96     97    103   5     0.00000     0.00000    -0.94140  0.0
     94     96     97    104   5     0.00000     0.00000    -0.94140  0.0
    100     96     97    102   5     0.00000     0.00000     1.25520  0.0
    100     96     97    103   5     0.00000     0.00000     1.25520  0.0
    100     96     97    104   5     0.00000     0.00000     1.25520  0.0
    101     96     97    102   5     0.00000     0.00000     1.25520  0.0
    101     96     97    103   5     0.00000     0.00000     1.25520  0.0
    101     96     97    104   5     0.00000     0.00000     1.25520  0.0
     92     98    107    108   5     5.25092    -2.58990     2.28446  0.0
     92     98    107    113   5     4.74884    -0.63178     1.67360  0.0
     92     98    107    114   5     0.00000     0.00000     1.25520  0.0
    105     98    107    108   5     0.00000     0.00000     1.95811  0.0
    105     98    107    113   5     0.00000     0.00000     1.25520  0.0
    105     98    107    114   5     0.00000     0.00000     1.25520  0.0
    106     98    107    108   5     0.00000     0.00000     1.95811  0.0
    106     98    107    113   5     0.00000     0.00000     1.25520  0.0
    106     98    107    114   5     0.00000     0.00000     1.25520  0.0
     98    107    108    109   5    -2.16731    -3.93296     0.98324  0.0
    113    107    108    109   5    -2.16731    -3.93296     0.98324  0.0
    114    107    108    109   5     0.00000     0.00000     0.67362  0.0
     98    107    113    120   5     0.00000     0.00000     1.25520  0.0
     98    107    113    121   5     0.00000     0.00000     1.25520  0.0
     98    107    113    122   5     4.74884    -0.63178     1.67360  0.0
    108    107    113    120   5     0.00000     0.00000     1.95811  0.0
    108    107    113    121   5     0.00000     0.00000     1.95811  0.0
    108    107    113    122   5     5.25092    -2.58990     2.28446  0.0
    114    107    113    120   5     0.00000     0.00000     1.25520  0.0
    114    107    113    121   5     0.00000     0.00000     1.25520  0.0
    114    107    113    122   5     0.00000     0.00000     1.25520  0.0
    107    108    109    110   5     0.00000    25.10400     0.00000  0.0
    107    108    109    111   5    13.65239    24.43456     0.00000  0.0
    108    109    111    112   5     0.00000     0.00000     3.07524  0.0
    108    109    111    115   5     0.00000     0.00000     0.00000  0.0
    108    109    111    116   5     0.00000     0.00000     0.00000  0.0
    110    109    111    112   5     0.00000     2.52295     0.00000  0.0
    110    109    111    115   5     0.00000     0.00000     0.00000  0.0
    110    109    111    116   5     0.00000     0.00000     0.00000  0.0
    109    111    112    117   5     0.00000     0.00000    -0.94140  0.0
    109    111    112    118   5     0.00000     0.00000    -0.94140  0.0
    109    111    112    119   5     0.00000     0.00000    -0.94140  0.0
    115    111    112    117   5     0.00000     0.00000     1.25520  0.0
    115    111    112    118   5     0.00000     0.00000     1.25520  0.0
    115    111    112    119   5     0.00000     0.00000     1.25520  0.0
    116    111    112    117   5     0.00000     0.00000     1.25520  0.0
    116    111    112    118   5     0.00000     0.00000     1.25520  0.0
    116    111    112    119   5     0.00000     0.00000     1.25520  0.0
    107    113    122    123   5     5.25092    -2.58990     2.28446  0.0
    107    113    122    128   5     4.74884    -0.63178     1.67360  0.0
    107    113    122    129   5     0.00000     0.00000     1.25520  0.0
    120    113    122    123   5     0.00000     0.00000     1.95811  0.0
    120    113    122    128   5     0.00000     0.00000     1.25520  0.0
    120    113    122    129   5     0.00000     0.00000     1.25520  0.0
    121    113    122    123   5     0.00000     0.00000     1.95811  0.0
    121    113    122    128   5     0.00000     0.00000     1.25520  0.0
    121    113    122    129   5     0.00000     0.00000     1.25520  0.0
    113    122    123    124   5    -2.16731    -3.93296     0.98324  0.0
    128    122    123    124   5    -2.16731    -3.93296     0.98324  0.0
    129    122    123    124   5     0.00000     0.00000     0.67362  0.0
    113    122    128    135   5     0.00000     0.00000     1.25520  0.0
    113    122    128    136   5     0.00000     0.00000     1.25520  0.0
    113    122    128    137   5     4.74884    -0.63178     1.67360  0.0
    123    122    128    135   5     0.00000     0.00000     1.95811  0.0
    123    122    128    136   5     0.00000     0.00000     1.95811  0.0
    123    122    128    137   5     5.25092    -2.58990     2.28446  0.0
    129    122    128    135   5     0.00000     0.00000     1.25520  0.0
    129    122    128    136   5     0.00000     0.00000     1.25520  0.0
    129    122    128    137   5     0.00000     0.00000     1.25520  0.0
    122    123    124    125   5     0.00000    25.10400     0.00000  0.0
    122    123    124    126   5    13.65239    24.43456     0.00000  0.0
    123    124    126    127   5     0.00000     0.00000     3.07524  0.0
    123    124    126    130   5     0.00000     0.00000     0.00000  0.0
    123    124    126    131   5     0.00000     0.00000     0.00000  0.0
    125    124    126    127   5     0.00000     2.52295     0.00000  0.0
    125    124    126    130   5     0.00000     0.00000     0.00000  0.0
    125    124    126    131   5     0.00000     0.00000     0.00000  0.0
    124    126    127    132   5     0.00000     0.00000    -0.94140  0.0
    124    126    127    133   5     0.00000     0.00000    -0.94140  0.0
    124    126    127    134   5     0.00000     0.00000    -0.94140  0.0
    130    126    127    132   5     0.00000     0.00000     1.25520  0.0
    130    126    127    133   5     0.00000     0.00000     1.25520  0.0
    130    126    127    134   5     0.00000     0.00000     1.25520  0.0
    131    126    127    132   5     0.00000     0.00000     1.25520  0.0
    131    126    127    133   5     0.00000     0.00000     1.25520  0.0
    131    126    127    134   5     0.00000     0.00000     1.25520  0.0
    122    128    137    138   5     5.25092    -2.58990     2.28446  0.0
    122    128    137    143   5     4.74884    -0.63178     1.67360  0.0
    122    128    137    144   5     0.00000     0.00000     1.25520  0.0
    135    128    137    138   5     0.00000     0.00000     1.95811  0.0
    135    128    137    143   5     0.00000     0.00000     1.25520  0.0
    135    128    137    144   5     0.00000     0.00000     1.25520  0.0
    136    128    137    138   5     0.00000     0.00000     1.95811  0.0
    136    128    137    143   5     0.00000     0.00000     1.25520  0.0
    136    128    137    144   5     0.00000     0.00000     1.25520  0.0
    128    137    138    139   5    -2.16731    -3.93296     0.98324  0.0
    143    137    138    139   5    -2.16731    -3.93296     0.98324  0.0
    144    137    138    139   5     0.00000     0.00000     0.67362  0.0
    128    137    143    150   5     0.00000     0.00000     1.25520  0.0
    128    137    143    151   5     0.00000     0.00000     1.25520  0.0
    128    137    143    152   5     4.74884    -0.63178     1.67360  0.0
    138    137    143    150   5     0.00000     0.00000     1.95811  0.0
    138    137    143    151   5     0.00000     0.00000     1.95811  0.0
    138    137    143    152   5     5.25092    -2.58990     2.28446  0.0
    144    137    143    150   5     0.00000     0.00000     1.25520  0.0
    144    137    143    151   5     0.00000     0.00000     1.25520  0.0
    144    137    143    152   5     0.00000     0.00000     1.25520  0.0
    137    138    139    140   5     0.00000    25.10400     0.00000  0.0
    137    138    139    141   5    13.65239    24.43456     0.00000  0.0
    138    139    141    142   5     0.00000     0.00000     3.07524  0.0
    138    139    141    145   5     0.00000     0.00000     0.00000  0.0
    138    139    141    146   5     0.00000     0.00000     0.00000  0.0
    140    139    141    142   5     0.00000     2.52295     0.00000  0.0
    140    139    141    145   5     0.00000     0.00000     0.00000  0.0
    140    139    141    146   5     0.00000     0.00000     0.00000  0.0
    139    141    142    147   5     0.00000     0.00000    -0.94140  0.0
    139    141    142    148   5     0.00000     0.00000    -0.94140  0.0
    139    141    142    149   5     0.00000     0.00000    -0.94140  0.0
    145    141    142    147   5     0.00000     0.00000     1.25520  0.0
    145    141    142    148   5     0.00000     0.00000     1.25520  0.0
    145    141    142    149   5     0.00000     0.00000     1.25520  0.0
    146    141    142    147   5     0.00000     0.00000     1.25520  0.0
    146    141    142    148   5     0.00000     0.00000     1.25520  0.0
    146    141    142    149   5     0.00000     0.00000     1.25520  0.0
    137    143    152    153   5     5.25092    -2.58990     2.28446  0.0
    137    143    152    158   5     4.74884    -0.63178     1.67360  0.0
    137    143    152    159   5     0.00000     0.00000     1.25520  0.0
    150    143    152    153   5     0.00000     0.00000     1.95811  0.0
    150    143    152    158   5     0.00000     0.00000     1.25520  0.0
    150    143    152    159   5     0.00000     0.00000     1.25520  0.0
    151    143    152    153   5     0.00000     0.00000     1.95811  0.0
    151    143    152    158   5     0.00000     0.00000     1.25520  0.0
    151    143    152    159   5     0.00000     0.00000     1.25520  0.0
    143    152    153    154   5    -2.16731    -3.93296     0.98324  0.0
    158    152    153    154   5    -2.16731    -3.93296     0.98324  0.0
    159    152    153    154   5     0.00000     0.00000     0.67362  0.0
    143    152    158    165   5     0.00000     0.00000     1.25520  0.0
    143    152    158    166   5     0.00000     0.00000     1.25520  0.0
    143    152    158    167   5     4.74884    -0.63178     1.67360  0.0
    153    152    158    165   5     0.00000     0.00000     1.95811  0.0
    153    152    158    166   5     0.00000     0.00000     1.95811  0.0
    153    152    158    167   5     5.25092    -2.58990     2.28446  0.0
    159    152    158    165   5     0.00000     0.00000     1.25520  0.0
    159    152    158    166   5     0.00000     0.00000     1.25520  0.0
    159    152    158    167   5     0.00000     0.00000     1.25520  0.0
    152    153    154    155   5     0.00000    25.10400     0.00000  0.0
    152    153    154    156   5    13.65239    24.43456     0.00000  0.0
    153    154    156    157   5     0.00000     0.00000     3.07524  0.0
    153    154    156    160   5     0.00000     0.00000     0.00000  0.0
    153    154    156    161   5     0.00000     0.00000     0.00000  0.0
    155    154    156    157   5     0.00000     2.52295     0.00000  0.0
    155    154    156    160   5     0.00000     0.00000     0.00000  0.0
    155    154    156    161   5     0.00000     0.00000     0.00000  0.0
    154    156    157    162   5     0.00000     0.00000    -0.94140  0.0
    154    156    157    163   5     0.00000     0.00000    -0.94140  0.0
    154    156    157    164   5     0.00000     0.00000    -0.94140  0.0
    160    156    157    162   5     0.00000     0.00000     1.25520  0.0
    160    156    157    163   5     0.00000     0.00000     1.25520  0.0
    160    156    157    164   5     0.00000     0.00000     1.25520  0.0
    161    156    157    162   5     0.00000     0.00000     1.25520  0.0
    161    156    157    163   5     0.00000     0.00000     1.25520  0.0
    161    156    157    164   5     0.00000     0.00000     1.25520  0.0
    152    158    167    168   5     5.25092    -2.58990     2.28446  0.0
    152    158    167    173   5     4.74884    -0.63178     1.67360  0.0
    152    158    167    174   5     0.00000     0.00000     1.25520  0.0
    165    158    167    168   5     0.00000     0.00000     1.95811  0.0
    165    158    167    173   5     0.00000     0.00000     1.25520  0.0
    165    158    167    174   5     0.00000     0.00000     1.25520  0.0
    166    158    167    168   5     0.00000     0.00000     1.95811  0.0
    166    158    167    173   5     0.00000     0.00000     1.25520  0.0
    166    158    167    174   5     0.00000     0.00000     1.25520  0.0
    158    167    168    169   5    -2.16731    -3.93296     0.98324  0.0
    173    167    168    169   5    -2.16731    -3.93296     0.98324  0.0
    174    167    168    169   5     0.00000     0.00000     0.67362  0.0
    158    167    173    180   5     0.00000     0.00000     1.25520  0.0
    158    167    173    181   5     0.00000     0.00000     1.25520  0.0
    158    167    173    182   5     4.74884    -0.63178     1.67360  0.0
    168    167    173    180   5     0.00000     0.00000     1.95811  0.0
    168    167    173    181   5     0.00000     0.00000     1.95811  0.0
    168    167    173    182   5     5.25092    -2.58990     2.28446  0.0
    174    167    173    180   5     0.00000     0.00000     1.25520  0.0
    174    167    173    181   5     0.00000     0.00000     1.25520  0.0
    174    167    173    182   5     0.00000     0.00000     1.25520  0.0
    167    168    169    170   5     0.00000    25.10400     0.00000  0.0
    167    168    169    171   5    13.65239    24.43456     0.00000  0.0
    168    169    171    172   5     0.00000     0.00000     3.07524  0.0
    168    169    171    175   5     0.00000     0.00000     0.00000  0.0
    168    169    171    176   5     0.00000     0.00000     0.00000  0.0
    170    169    171    172   5     0.00000     2.52295     0.00000  0.0
    170    169    171    175   5     0.00000     0.00000     0.00000  0.0
    170    169    171    176   5     0.00000     0.00000     0.00000  0.0
    169    171    172    177   5     0.00000     0.00000    -0.94140  0.0
    169    171    172    178   5     0.00000     0.00000    -0.94140  0.0
    169    171    172    179   5     0.00000     0.00000    -0.94140  0.0
    175    171    172    177   5     0.00000     0.00000     1.25520  0.0
    175    171    172    178   5     0.00000     0.00000     1.25520  0.0
    175    171    172    179   5     0.00000     0.00000     1.25520  0.0
    176    171    172    177   5     0.00000     0.00000     1.25520  0.0
    176    171    172    178   5     0.00000     0.00000     1.25520  0.0
    176    171    172    179   5     0.00000     0.00000     1.25520  0.0
    167    173    182    183   5     5.25092    -2.58990     2.28446  0.0
    167    173    182    188   5     4.74884    -0.63178     1.67360  0.0
    167    173    182    189   5     0.00000     0.00000     1.25520  0.0
    180    173    182    183   5     0.00000     0.00000     1.95811  0.0
    180    173    182    188   5     0.00000     0.00000     1.25520  0.0
    180    173    182    189   5     0.00000     0.00000     1.25520  0.0
    181    173    182    183   5     0.00000     0.00000     1.95811  0.0
    181    173    182    188   5     0.00000     0.00000     1.25520  0.0
    181    173    182    189   5     0.00000     0.00000     1.25520  0.0
    173    182    183    184   5    -2.16731    -3.93296     0.98324  0.0
    188    182    183    184   5    -2.16731    -3.93296     0.98324  0.0
    189    182    183    184   5     0.00000     0.00000     0.67362  0.0
    173    182    188    195   5     0.00000     0.00000     1.25520  0.0
    173    182    188    196   5     0.00000     0.00000     1.25520  0.0
    173    182    188    197   5     4.74884    -0.63178     1.67360  0.0
    183    182    188    195   5     0.00000     0.00000     1.95811  0.0
    183    182    188    196   5     0.00000     0.00000     1.95811  0.0
    183    182    188    197   5     5.25092    -2.58990     2.28446  0.0
    189    182    188    195   5     0.00000     0.00000     1.25520  0.0
    189    182    188    196   5     0.00000     0.00000     1.25520  0.0
    189    182    188    197   5     0.00000     0.00000     1.25520  0.0
    182    183    184    185   5     0.00000    25.10400     0.00000  0.0
    182    183    184    186   5    13.65239    24.43456     0.00000  0.0
    183    184    186    187   5     0.00000     0.00000     3.07524  0.0
    183    184    186    190   5     0.00000     0.00000     0.00000  0.0
    183    184    186    191   5     0.00000     0.00000     0.00000  0.0
    185    184    186    187   5     0.00000     2.52295     0.00000  0.0
    185    184    186    190   5     0.00000     0.00000     0.00000  0.0
    185    184    186    191   5     0.00000     0.00000     0.00000  0.0
    184    186    187    192   5     0.00000     0.00000    -0.94140  0.0
    184    186    187    193   5     0.00000     0.00000    -0.94140  0.0
    184    186    187    194   5     0.00000     0.00000    -0.94140  0.0
    190    186    187    192   5     0.00000     0.00000     1.25520  0.0
    190    186    187    193   5     0.00000     0.00000     1.25520  0.0
    190    186    187    194   5     0.00000     0.00000     1.25520  0.0
    191    186    187    192   5     0.00000     0.00000     1.25520  0.0
    191    186    187    193   5     0.00000     0.00000     1.25520  0.0
    191    186    187    194   5     0.00000     0.00000     1.25520  0.0
    182    188    197    198   5     5.25092    -2.58990     2.28446  0.0
    182    188    197    203   5     4.74884    -0.63178     1.67360  0.0
    182    188    197    204   5     0.00000     0.00000     1.25520  0.0
    195    188    197    198   5     0.00000     0.00000     1.95811  0.0
    195    188    197    203   5     0.00000     0.00000     1.25520  0.0
    195    188    197    204   5     0.00000     0.00000     1.25520  0.0
    196    188    197    198   5     0.00000     0.00000     1.95811  0.0
    196    188    197    203   5     0.00000     0.00000     1.25520  0.0
    196    188    197    204   5     0.00000     0.00000     1.25520  0.0
    188    197    198    199   5    -2.16731    -3.93296     0.98324  0.0
    203    197    198    199   5    -2.16731    -3.93296     0.98324  0.0
    204    197    198    199   5     0.00000     0.00000     0.67362  0.0
    188    197    203    210   5     0.00000     0.00000     1.25520  0.0
    188    197    203    211   5     0.00000     0.00000     1.25520  0.0
    188    197    203    212   5     4.74884    -0.63178     1.67360  0.0
    198    197    203    210   5     0.00000     0.00000     1.95811  0.0
    198    197    203    211   5     0.00000     0.00000     1.95811  0.0
    198    197    203    212   5     5.25092    -2.58990     2.28446  0.0
    204    197    203    210   5     0.00000     0.00000     1.25520  0.0
    204    197    203    211   5     0.00000     0.00000     1.25520  0.0
    204    197    203    212   5     0.00000     0.00000     1.25520  0.0
    197    198    199    200   5     0.00000    25.10400     0.00000  0.0
    197    198    199    201   5    13.65239    24.43456     0.00000  0.0
    198    199    201    202   5     0.00000     0.00000     3.07524  0.0
    198    199    201    205   5     0.00000     0.00000     0.00000  0.0
    198    199    201    206   5     0.00000     0.00000     0.00000  0.0
    200    199    201    202   5     0.00000     2.52295     0.00000  0.0
    200    199    201    205   5     0.00000     0.00000     0.00000  0.0
    200    199    201    206   5     0.00000     0.00000     0.00000  0.0
    199    201    202    207   5     0.00000     0.00000    -0.94140  0.0
    199    201    202    208   5     0.00000     0.00000    -0.94140  0.0
    199    201    202    209   5     0.00000     0.00000    -0.94140  0.0
    205    201    202    207   5     0.00000     0.00000     1.25520  0.0
    205    201    202    208   5     0.00000     0.00000     1.25520  0.0
    205    201    202    209   5     0.00000     0.00000     1.25520  0.0
    206    201    202    207   5     0.00000     0.00000     1.25520  0.0
    206    201    202    208   5     0.00000     0.00000     1.25520  0.0
    206    201    202    209   5     0.00000     0.00000     1.25520  0.0
    197    203    212    213   5     5.25092    -2.58990     2.28446  0.0
    197    203    212    218   5     4.74884    -0.63178     1.67360  0.0
    197    203    212    219   5     0.00000     0.00000     1.25520  0.0
    210    203    212    213   5     0.00000     0.00000     1.95811  0.0
    210    203    212    218   5     0.00000     0.00000     1.25520  0.0
    210    203    212    219   5     0.00000     0.00000     1.25520  0.0
    211    203    212    213   5     0.00000     0.00000     1.95811  0.0
    211    203    212    218   5     0.00000     0.00000     1.25520  0.0
    211    203    212    219   5     0.00000     0.00000     1.25520  0.0
    203    212    213    214   5    -2.16731    -3.93296     0.98324  0.0
    218    212    213    214   5    -2.16731    -3.93296     0.98324  0.0
    219    212    213    214   5     0.00000     0.00000     0.67362  0.0
    203    212    218    225   5     0.00000     0.00000     1.25520  0.0
    203    212    218    226   5     0.00000     0.00000     1.25520  0.0
    203    212    218    227   5     4.74884    -0.63178     1.67360  0.0
    213    212    218    225   5     0.00000     0.00000     1.95811  0.0
    213    212    218    226   5     0.00000     0.00000     1.95811  0.0
    213    212    218    227   5     5.25092    -2.58990     2.28446  0.0
    219    212    218    225   5     0.00000     0.00000     1.25520  0.0
    219    212    218    226   5     0.00000     0.00000     1.25520  0.0
    219    212    218    227   5     0.00000     0.00000     1.25520  0.0
    212    213    214    215   5     0.00000    25.10400     0.00000  0.0
    212    213    214    216   5    13.65239    24.43456     0.00000  0.0
    213    214    216    217   5     0.00000     0.00000     3.07524  0.0
    213    214    216    220   5     0.00000     0.00000     0.00000  0.0
    213    214    216    221   5     0.00000     0.00000     0.00000  0.0
    215    214    216    217   5     0.00000     2.52295     0.00000  0.0
    215    214    216    220   5     0.00000     0.00000     0.00000  0.0
    215    214    216    221   5     0.00000     0.00000     0.00000  0.0
    214    216    217    222   5     0.00000     0.00000    -0.94140  0.0
    214    216    217    223   5     0.00000     0.00000    -0.94140  0.0
    214    216    217    224   5     0.00000     0.00000    -0.94140  0.0
    220    216    217    222   5     0.00000     0.00000     1.25520  0.0
    220    216    217    223   5     0.00000     0.00000     1.25520  0.0
    220    216    217    224   5     0.00000     0.00000     1.25520  0.0
    221    216    217    222   5     0.00000     0.00000     1.25520  0.0
    221    216    217    223   5     0.00000     0.00000     1.25520  0.0
    221    216    217    224   5     0.00000     0.00000     1.25520  0.0
    212    218    227    228   5     5.25092    -2.58990     2.28446  0.0
    212    218    227    233   5     4.74884    -0.63178     1.67360  0.0
    212    218    227    234   5     0.00000     0.00000     1.25520  0.0
    225    218    227    228   5     0.00000     0.00000     1.95811  0.0
    225    218    227    233   5     0.00000     0.00000     1.25520  0.0
    225    218    227    234   5     0.00000     0.00000     1.25520  0.0
    226    218    227    228   5     0.00000     0.00000     1.95811  0.0
    226    218    227    233   5     0.00000     0.00000     1.25520  0.0
    226    218    227    234   5     0.00000     0.00000     1.25520  0.0
    218    227    228    229   5    -2.16731    -3.93296     0.98324  0.0
    233    227    228    229   5    -2.16731    -3.93296     0.98324  0.0
    234    227    228    229   5     0.00000     0.00000     0.67362  0.0
    218    227    233    240   5     0.00000     0.00000     1.25520  0.0
    218    227    233    241   5     0.00000     0.00000     1.25520  0.0
    218    227    233    242   5     4.74884    -0.63178     1.67360  0.0
    228    227    233    240   5     0.00000     0.00000     1.95811  0.0
    228    227    233    241   5     0.00000     0.00000     1.95811  0.0
    228    227    233    242   5     5.25092    -2.58990     2.28446  0.0
    234    227    233    240   5     0.00000     0.00000     1.25520  0.0
    234    227    233    241   5     0.00000     0.00000     1.25520  0.0
    234    227    233    242   5     0.00000     0.00000     1.25520  0.0
    227    228    229    230   5     0.00000    25.10400     0.00000  0.0
    227    228    229    231   5    13.65239    24.43456     0.00000  0.0
    228    229    231    232   5     0.00000     0.00000     3.07524  0.0
    228    229    231    235   5     0.00000     0.00000     0.00000  0.0
    228    229    231    236   5     0.00000     0.00000     0.00000  0.0
    230    229    231    232   5     0.00000     2.52295     0.00000  0.0
    230    229    231    235   5     0.00000     0.00000     0.00000  0.0
    230    229    231    236   5     0.00000     0.00000     0.00000  0.0
    229    231    232    237   5     0.00000     0.00000    -0.94140  0.0
    229    231    232    238   5     0.00000     0.00000    -0.94140  0.0
    229    231    232    239   5     0.00000     0.00000    -0.94140  0.0
    235    231    232    237   5     0.00000     0.00000     1.25520  0.0
    235    231    232    238   5     0.00000     0.00000     1.25520  0.0
    235    231    232    239   5     0.00000     0.00000     1.25520  0.0
    236    231    232    237   5     0.00000     0.00000     1.25520  0.0
    236    231    232    238   5     0.00000     0.00000     1.25520  0.0
    236    231    232    239   5     0.00000     0.00000     1.25520  0.0
    227    233    242    243   5     5.25092    -2.58990     2.28446  0.0
    227    233    242    248   5     4.74884    -0.63178     1.67360  0.0
    227    233    242    249   5     0.00000     0.00000     1.25520  0.0
    240    233    242    243   5     0.00000     0.00000     1.95811  0.0
    240    233    242    248   5     0.00000     0.00000     1.25520  0.0
    240    233    242    249   5     0.00000     0.00000     1.25520  0.0
    241    233    242    243   5     0.00000     0.00000     1.95811  0.0
    241    233    242    248   5     0.00000     0.00000     1.25520  0.0
    241    233    242    249   5     0.00000     0.00000     1.25520  0.0
    233    242    243    244   5    -2.16731    -3.93296     0.98324  0.0
    248    242    243    244   5    -2.16731    -3.93296     0.98324  0.0
    249    242    243    244   5     0.00000     0.00000     0.67362  0.0
    233    242    248    255   5     0.00000     0.00000     1.25520  0.0
    233    242    248    256   5     0.00000     0.00000     1.25520  0.0
    233    242    248    257   5     4.74884    -0.63178     1.67360  0.0
    243    242    248    255   5     0.00000     0.00000     1.95811  0.0
    243    242    248    256   5     0.00000     0.00000     1.95811  0.0
    243    242    248    257   5     5.25092    -2.58990     2.28446  0.0
    249    242    248    255   5     0.00000     0.00000     1.25520  0.0
    249    242    248    256   5     0.00000     0.00000     1.25520  0.0
    249    242    248    257   5     0.00000     0.00000     1.25520  0.0
    242    243    244    245   5     0.00000    25.10400     0.00000  0.0
    242    243    244    246   5    13.65239    24.43456     0.00000  0.0
    243    244    246    247   5     0.00000     0.00000     3.07524  0.0
    243    244    246    250   5     0.00000     0.00000     0.00000  0.0
    243    244    246    251   5     0.00000     0.00000     0.00000  0.0
    245    244    246    247   5     0.00000     2.52295     0.00000  0.0
    245    244    246    250   5     0.00000     0.00000     0.00000  0.0
    245    244    246    251   5     0.00000     0.00000     0.00000  0.0
    244    246    247    252   5     0.00000     0.00000    -0.94140  0.0
    244    246    247    253   5     0.00000     0.00000    -0.94140  0.0
    244    246    247    254   5     0.00000     0.00000    -0.94140  0.0
    250    246    247    252   5     0.00000     0.00000     1.25520  0.0
    250    246    247    253   5     0.00000     0.00000     1.25520  0.0
    250    246    247    254   5     0.00000     0.00000     1.25520  0.0
    251    246    247    252   5     0.00000     0.00000     1.25520  0.0
    251    246    247    253   5     0.00000     0.00000     1.25520  0.0
    251    246    247    254   5     0.00000     0.00000     1.25520  0.0
    242    248    257    258   5     5.25092    -2.58990     2.28446  0.0
    242    248    257    263   5     4.74884    -0.63178     1.67360  0.0
    242    248    257    264   5     0.00000     0.00000     1.25520  0.0
    255    248    257    258   5     0.00000     0.00000     1.95811  0.0
    255    248    257    263   5     0.00000     0.00000     1.25520  0.0
    255    248    257    264   5     0.00000     0.00000     1.25520  0.0
    256    248    257    258   5     0.00000     0.00000     1.95811  0.0
    256    248    257    263   5     0.00000     0.00000     1.25520  0.0
    256    248    257    264   5     0.00000     0.00000     1.25520  0.0
    248    257    258    259   5    -2.16731    -3.93296     0.98324  0.0
    263    257    258    259   5    -2.16731    -3.93296     0.98324  0.0
    264    257    258    259   5     0.00000     0.00000     0.67362  0.0
    248    257    263    270   5     0.00000     0.00000     1.25520  0.0
    248    257    263    271   5     0.00000     0.00000     1.25520  0.0
    248    257    263    272   5     4.74884    -0.63178     1.67360  0.0
    258    257    263    270   5     0.00000     0.00000     1.95811  0.0
    258    257    263    271   5     0.00000     0.00000     1.95811  0.0
    258    257    263    272   5     5.25092    -2.58990     2.28446  0.0
    264    257    263    270   5     0.00000     0.00000     1.25520  0.0
    264    257    263    271   5     0.00000     0.00000     1.25520  0.0
    264    257    263    272   5     0.00000     0.00000     1.25520  0.0
    257    258    259    260   5     0.00000    25.10400     0.00000  0.0
    257    258    259    261   5    13.65239    24.43456     0.00000  0.0
    258    259    261    262   5     0.00000     0.00000     3.07524  0.0
    258    259    261    265   5     0.00000     0.00000     0.00000  0.0
    258    259    261    266   5     0.00000     0.00000     0.00000  0.0
    260    259    261    262   5     0.00000     2.52295     0.00000  0.0
    260    259    261    265   5     0.00000     0.00000     0.00000  0.0
    260    259    261    266   5     0.00000     0.00000     0.00000  0.0
    259    261    262    267   5     0.00000     0.00000    -0.94140  0.0
    259    261    262    268   5     0.00000     0.00000    -0.94140  0.0
    259    261    262    269   5     0.00000     0.00000    -0.94140  0.0
    265    261    262    267   5     0.00000     0.00000     1.25520  0.0
    265    261    262    268   5     0.00000     0.00000     1.25520  0.0
    265    261    262    269   5     0.00000     0.00000     1.25520  0.0
    266    261    262    267   5     0.00000     0.00000     1.25520  0.0
    266    261    262    268   5     0.00000     0.00000     1.25520  0.0
    266    261    262    269   5     0.00000     0.00000     1.25520  0.0
    257    263    272    273   5     5.25092    -2.58990     2.28446  0.0
    257    263    272    278   5     4.74884    -0.63178     1.67360  0.0
    257    263    272    279   5     0.00000     0.00000     1.25520  0.0
    270    263    272    273   5     0.00000     0.00000     1.95811  0.0
    270    263    272    278   5     0.00000     0.00000     1.25520  0.0
    270    263    272    279   5     0.00000     0.00000     1.25520  0.0
    271    263    272    273   5     0.00000     0.00000     1.95811  0.0
    271    263    272    278   5     0.00000     0.00000     1.25520  0.0
    271    263    272    279   5     0.00000     0.00000     1.25520  0.0
    263    272    273    274   5    -2.16731    -3.93296     0.98324  0.0
    278    272    273    274   5    -2.16731    -3.93296     0.98324  0.0
    279    272    273    274   5     0.00000     0.00000     0.67362  0.0
    263    272    278    285   5     0.00000     0.00000     1.25520  0.0
    263    272    278    286   5     0.00000     0.00000     1.25520  0.0
    263    272    278    287   5     4.74884    -0.63178     1.67360  0.0
    273    272    278    285   5     0.00000     0.00000     1.95811  0.0
    273    272    278    286   5     0.00000     0.00000     1.95811  0.0
    273    272    278    287   5     5.25092    -2.58990     2.28446  0.0
    279    272    278    285   5     0.00000     0.00000     1.25520  0.0
    279    272    278    286   5     0.00000     0.00000     1.25520  0.0
    279    272    278    287   5     0.00000     0.00000     1.25520  0.0
    272    273    274    275   5     0.00000    25.10400     0.00000  0.0
    272    273    274    276   5    13.65239    24.43456     0.00000  0.0
    273    274    276    277   5     0.00000     0.00000     3.07524  0.0
    273    274    276    280   5     0.00000     0.00000     0.00000  0.0
    273    274    276    281   5     0.00000     0.00000     0.00000  0.0
    275    274    276    277   5     0.00000     2.52295     0.00000  0.0
    275    274    276    280   5     0.00000     0.00000     0.00000  0.0
    275    274    276    281   5     0.00000     0.00000     0.00000  0.0
    274    276    277    282   5     0.00000     0.00000    -0.94140  0.0
    274    276    277    283   5     0.00000     0.00000    -0.94140  0.0
    274    276    277    284   5     0.00000     0.00000    -0.94140  0.0
    280    276    277    282   5     0.00000     0.00000     1.25520  0.0
    280    276    277    283   5     0.00000     0.00000     1.25520  0.0
    280    276    277    284   5     0.00000     0.00000     1.25520  0.0
    281    276    277    282   5     0.00000     0.00000     1.25520  0.0
    281    276    277    283   5     0.00000     0.00000     1.25520  0.0
    281    276    277    284   5     0.00000     0.00000     1.25520  0.0
    272    278    287    288   5     5.25092    -2.58990     2.28446  0.0
    272    278    287    293   5     4.74884    -0.63178     1.67360  0.0
    272    278    287    294   5     0.00000     0.00000     1.25520  0.0
    285    278    287    288   5     0.00000     0.00000     1.95811  0.0
    285    278    287    293   5     0.00000     0.00000     1.25520  0.0
    285    278    287    294   5     0.00000     0.00000     1.25520  0.0
    286    278    287    288   5     0.00000     0.00000     1.95811  0.0
    286    278    287    293   5     0.00000     0.00000     1.25520  0.0
    286    278    287    294   5     0.00000     0.00000     1.25520  0.0
    278    287    288    289   5    -2.16731    -3.93296     0.98324  0.0
    293    287    288    289   5    -2.16731    -3.93296     0.98324  0.0
    294    287    288    289   5     0.00000     0.00000     0.67362  0.0
    278    287    293    300   5     0.00000     0.00000     1.25520  0.0
    278    287    293    301   5     0.00000     0.00000     1.25520  0.0
    278    287    293    302   5     0.00000     0.00000     1.25520  0.0
    288    287    293    300   5     0.00000     0.00000     1.95811  0.0
    288    287    293    301   5     0.00000     0.00000     1.95811  0.0
    288    287    293    302   5     0.00000     0.00000     1.95811  0.0
    294    287    293    300   5     0.00000     0.00000     1.25520  0.0
    294    287    293    301   5     0.00000     0.00000     1.25520  0.0
    294    287    293    302   5     0.00000     0.00000     1.25520  0.0
    287    288    289    290   5     0.00000    25.10400     0.00000  0.0
    287    288    289    291   5    13.65239    24.43456     0.00000  0.0
    288    289    291    292   5     0.00000     0.00000     3.07524  0.0
    288    289    291    295   5     0.00000     0.00000     0.00000  0.0
    288    289    291    296   5     0.00000     0.00000     0.00000  0.0
    290    289    291    292   5     0.00000     2.52295     0.00000  0.0
    290    289    291    295   5     0.00000     0.00000     0.00000  0.0
    290    289    291    296   5     0.00000     0.00000     0.00000  0.0
    289    291    292    297   5     0.00000     0.00000    -0.94140  0.0
    289    291    292    298   5     0.00000     0.00000    -0.94140  0.0
    289    291    292    299   5     0.00000     0.00000    -0.94140  0.0
    295    291    292    297   5     0.00000     0.00000     1.25520  0.0
    295    291    292    298   5     0.00000     0.00000     1.25520  0.0
    295    291    292    299   5     0.00000     0.00000     1.25520  0.0
    296    291    292    297   5     0.00000     0.00000     1.25520  0.0
    296    291    292    298   5     0.00000     0.00000     1.25520  0.0
    296    291    292    299   5     0.00000     0.00000     1.25520  0.0

[ dihedrals ]
; Improper dihedrals
; h   i   j   k   funct
      2      4      3      5   5     0.00000    87.86400     0.00000  0.0
     18     20     19     21   5     0.00000    87.86400     0.00000  0.0
     33     35     34     36   5     0.00000    87.86400     0.00000  0.0
     48     50     49     51   5     0.00000    87.86400     0.00000  0.0
     63     65     64     66   5     0.00000    87.86400     0.00000  0.0
     78     80     79     81   5     0.00000    87.86400     0.00000  0.0
     93     95     94     96   5     0.00000    87.86400     0.00000  0.0
    108    110    109    111   5     0.00000    87.86400     0.00000  0.0
    123    125    124    126   5     0.00000    87.86400     0.00000  0.0
    138    140    139    141   5     0.00000    87.86400     0.00000  0.0
    153    155    154    156   5     0.00000    87.86400     0.00000  0.0
    168    170    169    171   5     0.00000    87.86400     0.00000  0.0
    183    185    184    186   5     0.00000    87.86400     0.00000  0.0
    198    200    199    201   5     0.00000    87.86400     0.00000  0.0
    213    215    214    216   5     0.00000    87.86400     0.00000  0.0
    228    230    229    231   5     0.00000    87.86400     0.00000  0.0
    243    245    244    246   5     0.00000    87.86400     0.00000  0.0
    258    260    259    261   5     0.00000    87.86400     0.00000  0.0
    273    275    274    276   5     0.00000    87.86400     0.00000  0.0
    288    290    289    291   5     0.00000    87.86400     0.00000  0.0
