;
; Gromacs include topology (itp) file.
; For Molecular Group XYZ
; Force field scheme: opls2005
; Produced from DL_FIELD v4.11
;


[ moleculetype ]
; name    nrexcl
XYZ    3

[ atoms ]
; nr   type   resnr   residu    atom    cgnr    charge    mass
    1        CT    1  MOL      C1     1  -0.0050000   12.0115
    2        CA    1  MOL      C2     2  -0.1150000   12.0115
    3        CA    1  MOL      C3     3  -0.1150000   12.0115
    4        CA    1  MOL      C4     4  -0.1150000   12.0115
    5        CA    1  MOL      C5     5   0.1500000   12.0115
    6       OHP    1  MOL      O6     6  -0.5850000   15.9994
    7        CA    1  MOL      C7     7  -0.1150000   12.0115
    8        CA    1  MOL      C8     8  -0.1150000   12.0115
    9        CT    1  MOL      C9     9  -0.1200000   12.0115
   10        HC    1  MOL     H10    10   0.0600000    1.0080
   11        HA    1  MOL     H11    11   0.1150000    1.0080
   12        HA    1  MOL     H12    12   0.1150000    1.0080
   13        HO    1  MOL     H13    13   0.4350000    1.0080
   14        HA    1  MOL     H14    14   0.1150000    1.0080
   15        HA    1  MOL     H15    15   0.1150000    1.0080
   16        HC    1  MOL     H16    16   0.0600000    1.0080
   17        HC    1  MOL     H17    17   0.0600000    1.0080
   18        HC    1  MOL     H18    18   0.0600000    1.0080
   19        CT    1  MOL     C19    19   0.0550000   12.0115
   20        CA    1  MOL     C20    20  -0.1150000   12.0115
   21        CA    1  MOL     C21    21  -0.1150000   12.0115
   22        CA    1  MOL     C22    22  -0.1150000   12.0115
   23        CA    1  MOL     C23    23   0.1500000   12.0115
   24       OHP    1  MOL     O24    24  -0.5850000   15.9994
   25        CA    1  MOL     C25    25  -0.1150000   12.0115
   26        CA    1  MOL     C26    26  -0.1150000   12.0115
   27        CT    1  MOL     C27    27  -0.1200000   12.0115
   28        HC    1  MOL     H28    28   0.0600000    1.0080
   29        HA    1  MOL     H29    29   0.1150000    1.0080
   30        HA    1  MOL     H30    30   0.1150000    1.0080
   31        HO    1  MOL     H31    31   0.4350000    1.0080
   32        HA    1  MOL     H32    32   0.1150000    1.0080
   33        HA    1  MOL     H33    33   0.1150000    1.0080
   34        HC    1  MOL     H34    34   0.0600000    1.0080
   35        HC    1  MOL     H35    35   0.0600000    1.0080
   36        CT    1  MOL     C36    36   0.0550000   12.0115
   37        CA    1  MOL     C37    37  -0.1150000   12.0115
   38        CA    1  MOL     C38    38  -0.1150000   12.0115
   39        CA    1  MOL     C39    39  -0.1150000   12.0115
   40        CA    1  MOL     C40    40   0.1500000   12.0115
   41       OHP    1  MOL     O41    41  -0.5850000   15.9994
   42        CA    1  MOL     C42    42  -0.1150000   12.0115
   43        CA    1  MOL     C43    43  -0.1150000   12.0115
   44        CT    1  MOL     C44    44  -0.1200000   12.0115
   45        HC    1  MOL     H45    45   0.0600000    1.0080
   46        HA    1  MOL     H46    46   0.1150000    1.0080
   47        HA    1  MOL     H47    47   0.1150000    1.0080
   48        HO    1  MOL     H48    48   0.4350000    1.0080
   49        HA    1  MOL     H49    49   0.1150000    1.0080
   50        HA    1  MOL     H50    50   0.1150000    1.0080
   51        HC    1  MOL     H51    51   0.0600000    1.0080
   52        HC    1  MOL     H52    52   0.0600000    1.0080
   53        CT    1  MOL     C53    53   0.0550000   12.0115
   54        CA    1  MOL     C54    54  -0.1150000   12.0115
   55        CA    1  MOL     C55    55  -0.1150000   12.0115
   56        CA    1  MOL     C56    56  -0.1150000   12.0115
   57        CA    1  MOL     C57    57   0.1500000   12.0115
   58       OHP    1  MOL     O58    58  -0.5850000   15.9994
   59        CA    1  MOL     C59    59  -0.1150000   12.0115
   60        CA    1  MOL     C60    60  -0.1150000   12.0115
   61        CT    1  MOL     C61    61  -0.1200000   12.0115
   62        HC    1  MOL     H62    62   0.0600000    1.0080
   63        HA    1  MOL     H63    63   0.1150000    1.0080
   64        HA    1  MOL     H64    64   0.1150000    1.0080
   65        HO    1  MOL     H65    65   0.4350000    1.0080
   66        HA    1  MOL     H66    66   0.1150000    1.0080
   67        HA    1  MOL     H67    67   0.1150000    1.0080
   68        HC    1  MOL     H68    68   0.0600000    1.0080
   69        HC    1  MOL     H69    69   0.0600000    1.0080
   70        CT    1  MOL     C70    70   0.0550000   12.0115
   71        CA    1  MOL     C71    71  -0.1150000   12.0115
   72        CA    1  MOL     C72    72  -0.1150000   12.0115
   73        CA    1  MOL     C73    73  -0.1150000   12.0115
   74        CA    1  MOL     C74    74   0.1500000   12.0115
   75       OHP    1  MOL     O75    75  -0.5850000   15.9994
   76        CA    1  MOL     C76    76  -0.1150000   12.0115
   77        CA    1  MOL     C77    77  -0.1150000   12.0115
   78        CT    1  MOL     C78    78  -0.1200000   12.0115
   79        HC    1  MOL     H79    79   0.0600000    1.0080
   80        HA    1  MOL     H80    80   0.1150000    1.0080
   81        HA    1  MOL     H81    81   0.1150000    1.0080
   82        HO    1  MOL     H82    82   0.4350000    1.0080
   83        HA    1  MOL     H83    83   0.1150000    1.0080
   84        HA    1  MOL     H84    84   0.1150000    1.0080
   85        HC    1  MOL     H85    85   0.0600000    1.0080
   86        HC    1  MOL     H86    86   0.0600000    1.0080
   87        CT    1  MOL     C87    87   0.0550000   12.0115
   88        CA    1  MOL     C88    88  -0.1150000   12.0115
   89        CA    1  MOL     C89    89  -0.1150000   12.0115
   90        CA    1  MOL     C90    90  -0.1150000   12.0115
   91        CA    1  MOL     C91    91   0.1500000   12.0115
   92       OHP    1  MOL     O92    92  -0.5850000   15.9994
   93        CA    1  MOL     C93    93  -0.1150000   12.0115
   94        CA    1  MOL     C94    94  -0.1150000   12.0115
   95        CT    1  MOL     C95    95  -0.1200000   12.0115
   96        HC    1  MOL     H96    96   0.0600000    1.0080
   97        HA    1  MOL     H97    97   0.1150000    1.0080
   98        HA    1  MOL     H98    98   0.1150000    1.0080
   99        HO    1  MOL     H99    99   0.4350000    1.0080
  100        HA    1  MOL    H100   100   0.1150000    1.0080
  101        HA    1  MOL    H101   101   0.1150000    1.0080
  102        HC    1  MOL    H102   102   0.0600000    1.0080
  103        HC    1  MOL    H103   103   0.0600000    1.0080
  104        CT    1  MOL    C104   104   0.0550000   12.0115
  105        CA    1  MOL    C105   105  -0.1150000   12.0115
  106        CA    1  MOL    C106   106  -0.1150000   12.0115
  107        CA    1  MOL    C107   107  -0.1150000   12.0115
  108        CA    1  MOL    C108   108   0.1500000   12.0115
  109       OHP    1  MOL    O109   109  -0.5850000   15.9994
  110        CA    1  MOL    C110   110  -0.1150000   12.0115
  111        CA    1  MOL    C111   111  -0.1150000   12.0115
  112        CT    1  MOL    C112   112  -0.1200000   12.0115
  113        HC    1  MOL    H113   113   0.0600000    1.0080
  114        HA    1  MOL    H114   114   0.1150000    1.0080
  115        HA    1  MOL    H115   115   0.1150000    1.0080
  116        HO    1  MOL    H116   116   0.4350000    1.0080
  117        HA    1  MOL    H117   117   0.1150000    1.0080
  118        HA    1  MOL    H118   118   0.1150000    1.0080
  119        HC    1  MOL    H119   119   0.0600000    1.0080
  120        HC    1  MOL    H120   120   0.0600000    1.0080
  121        CT    1  MOL    C121   121   0.0550000   12.0115
  122        CA    1  MOL    C122   122  -0.1150000   12.0115
  123        CA    1  MOL    C123   123  -0.1150000   12.0115
  124        CA    1  MOL    C124   124  -0.1150000   12.0115
  125        CA    1  MOL    C125   125   0.1500000   12.0115
  126       OHP    1  MOL    O126   126  -0.5850000   15.9994
  127        CA    1  MOL    C127   127  -0.1150000   12.0115
  128        CA    1  MOL    C128   128  -0.1150000   12.0115
  129        CT    1  MOL    C129   129  -0.1200000   12.0115
  130        HC    1  MOL    H130   130   0.0600000    1.0080
  131        HA    1  MOL    H131   131   0.1150000    1.0080
  132        HA    1  MOL    H132   132   0.1150000    1.0080
  133        HO    1  MOL    H133   133   0.4350000    1.0080
  134        HA    1  MOL    H134   134   0.1150000    1.0080
  135        HA    1  MOL    H135   135   0.1150000    1.0080
  136        HC    1  MOL    H136   136   0.0600000    1.0080
  137        HC    1  MOL    H137   137   0.0600000    1.0080
  138        CT    1  MOL    C138   138   0.0550000   12.0115
  139        CA    1  MOL    C139   139  -0.1150000   12.0115
  140        CA    1  MOL    C140   140  -0.1150000   12.0115
  141        CA    1  MOL    C141   141  -0.1150000   12.0115
  142        CA    1  MOL    C142   142   0.1500000   12.0115
  143       OHP    1  MOL    O143   143  -0.5850000   15.9994
  144        CA    1  MOL    C144   144  -0.1150000   12.0115
  145        CA    1  MOL    C145   145  -0.1150000   12.0115
  146        CT    1  MOL    C146   146  -0.1200000   12.0115
  147        HC    1  MOL    H147   147   0.0600000    1.0080
  148        HA    1  MOL    H148   148   0.1150000    1.0080
  149        HA    1  MOL    H149   149   0.1150000    1.0080
  150        HO    1  MOL    H150   150   0.4350000    1.0080
  151        HA    1  MOL    H151   151   0.1150000    1.0080
  152        HA    1  MOL    H152   152   0.1150000    1.0080
  153        HC    1  MOL    H153   153   0.0600000    1.0080
  154        HC    1  MOL    H154   154   0.0600000    1.0080
  155        CT    1  MOL    C155   155   0.0550000   12.0115
  156        CA    1  MOL    C156   156  -0.1150000   12.0115
  157        CA    1  MOL    C157   157  -0.1150000   12.0115
  158        CA    1  MOL    C158   158  -0.1150000   12.0115
  159        CA    1  MOL    C159   159   0.1500000   12.0115
  160       OHP    1  MOL    O160   160  -0.5850000   15.9994
  161        CA    1  MOL    C161   161  -0.1150000   12.0115
  162        CA    1  MOL    C162   162  -0.1150000   12.0115
  163        CT    1  MOL    C163   163  -0.1200000   12.0115
  164        HC    1  MOL    H164   164   0.0600000    1.0080
  165        HA    1  MOL    H165   165   0.1150000    1.0080
  166        HA    1  MOL    H166   166   0.1150000    1.0080
  167        HO    1  MOL    H167   167   0.4350000    1.0080
  168        HA    1  MOL    H168   168   0.1150000    1.0080
  169        HA    1  MOL    H169   169   0.1150000    1.0080
  170        HC    1  MOL    H170   170   0.0600000    1.0080
  171        HC    1  MOL    H171   171   0.0600000    1.0080
  172        CT    1  MOL    C172   172   0.0550000   12.0115
  173        CA    1  MOL    C173   173  -0.1150000   12.0115
  174        CA    1  MOL    C174   174  -0.1150000   12.0115
  175        CA    1  MOL    C175   175  -0.1150000   12.0115
  176        CA    1  MOL    C176   176   0.1500000   12.0115
  177       OHP    1  MOL    O177   177  -0.5850000   15.9994
  178        CA    1  MOL    C178   178  -0.1150000   12.0115
  179        CA    1  MOL    C179   179  -0.1150000   12.0115
  180        CT    1  MOL    C180   180  -0.1200000   12.0115
  181        HC    1  MOL    H181   181   0.0600000    1.0080
  182        HA    1  MOL    H182   182   0.1150000    1.0080
  183        HA    1  MOL    H183   183   0.1150000    1.0080
  184        HO    1  MOL    H184   184   0.4350000    1.0080
  185        HA    1  MOL    H185   185   0.1150000    1.0080
  186        HA    1  MOL    H186   186   0.1150000    1.0080
  187        HC    1  MOL    H187   187   0.0600000    1.0080
  188        HC    1  MOL    H188   188   0.0600000    1.0080
  189        CT    1  MOL    C189   189   0.0550000   12.0115
  190        CA    1  MOL    C190   190  -0.1150000   12.0115
  191        CA    1  MOL    C191   191  -0.1150000   12.0115
  192        CA    1  MOL    C192   192  -0.1150000   12.0115
  193        CA    1  MOL    C193   193   0.1500000   12.0115
  194       OHP    1  MOL    O194   194  -0.5850000   15.9994
  195        CA    1  MOL    C195   195  -0.1150000   12.0115
  196        CA    1  MOL    C196   196  -0.1150000   12.0115
  197        CT    1  MOL    C197   197  -0.1200000   12.0115
  198        HC    1  MOL    H198   198   0.0600000    1.0080
  199        HA    1  MOL    H199   199   0.1150000    1.0080
  200        HA    1  MOL    H200   200   0.1150000    1.0080
  201        HO    1  MOL    H201   201   0.4350000    1.0080
  202        HA    1  MOL    H202   202   0.1150000    1.0080
  203        HA    1  MOL    H203   203   0.1150000    1.0080
  204        HC    1  MOL    H204   204   0.0600000    1.0080
  205        HC    1  MOL    H205   205   0.0600000    1.0080
  206        CT    1  MOL    C206   206   0.0550000   12.0115
  207        CA    1  MOL    C207   207  -0.1150000   12.0115
  208        CA    1  MOL    C208   208  -0.1150000   12.0115
  209        CA    1  MOL    C209   209  -0.1150000   12.0115
  210        CA    1  MOL    C210   210   0.1500000   12.0115
  211       OHP    1  MOL    O211   211  -0.5850000   15.9994
  212        CA    1  MOL    C212   212  -0.1150000   12.0115
  213        CA    1  MOL    C213   213  -0.1150000   12.0115
  214        CT    1  MOL    C214   214  -0.1200000   12.0115
  215        HC    1  MOL    H215   215   0.0600000    1.0080
  216        HA    1  MOL    H216   216   0.1150000    1.0080
  217        HA    1  MOL    H217   217   0.1150000    1.0080
  218        HO    1  MOL    H218   218   0.4350000    1.0080
  219        HA    1  MOL    H219   219   0.1150000    1.0080
  220        HA    1  MOL    H220   220   0.1150000    1.0080
  221        HC    1  MOL    H221   221   0.0600000    1.0080
  222        HC    1  MOL    H222   222   0.0600000    1.0080
  223        CT    1  MOL    C223   223   0.0550000   12.0115
  224        CA    1  MOL    C224   224  -0.1150000   12.0115
  225        CA    1  MOL    C225   225  -0.1150000   12.0115
  226        CA    1  MOL    C226   226  -0.1150000   12.0115
  227        CA    1  MOL    C227   227   0.1500000   12.0115
  228       OHP    1  MOL    O228   228  -0.5850000   15.9994
  229        CA    1  MOL    C229   229  -0.1150000   12.0115
  230        CA    1  MOL    C230   230  -0.1150000   12.0115
  231        CT    1  MOL    C231   231  -0.1200000   12.0115
  232        HC    1  MOL    H232   232   0.0600000    1.0080
  233        HA    1  MOL    H233   233   0.1150000    1.0080
  234        HA    1  MOL    H234   234   0.1150000    1.0080
  235        HO    1  MOL    H235   235   0.4350000    1.0080
  236        HA    1  MOL    H236   236   0.1150000    1.0080
  237        HA    1  MOL    H237   237   0.1150000    1.0080
  238        HC    1  MOL    H238   238   0.0600000    1.0080
  239        HC    1  MOL    H239   239   0.0600000    1.0080
  240        CT    1  MOL    C240   240   0.0550000   12.0115
  241        CA    1  MOL    C241   241  -0.1150000   12.0115
  242        CA    1  MOL    C242   242  -0.1150000   12.0115
  243        CA    1  MOL    C243   243  -0.1150000   12.0115
  244        CA    1  MOL    C244   244   0.1500000   12.0115
  245       OHP    1  MOL    O245   245  -0.5850000   15.9994
  246        CA    1  MOL    C246   246  -0.1150000   12.0115
  247        CA    1  MOL    C247   247  -0.1150000   12.0115
  248        CT    1  MOL    C248   248  -0.1200000   12.0115
  249        HC    1  MOL    H249   249   0.0600000    1.0080
  250        HA    1  MOL    H250   250   0.1150000    1.0080
  251        HA    1  MOL    H251   251   0.1150000    1.0080
  252        HO    1  MOL    H252   252   0.4350000    1.0080
  253        HA    1  MOL    H253   253   0.1150000    1.0080
  254        HA    1  MOL    H254   254   0.1150000    1.0080
  255        HC    1  MOL    H255   255   0.0600000    1.0080
  256        HC    1  MOL    H256   256   0.0600000    1.0080
  257        CT    1  MOL    C257   257   0.0550000   12.0115
  258        CA    1  MOL    C258   258  -0.1150000   12.0115
  259        CA    1  MOL    C259   259  -0.1150000   12.0115
  260        CA    1  MOL    C260   260  -0.1150000   12.0115
  261        CA    1  MOL    C261   261   0.1500000   12.0115
  262       OHP    1  MOL    O262   262  -0.5850000   15.9994
  263        CA    1  MOL    C263   263  -0.1150000   12.0115
  264        CA    1  MOL    C264   264  -0.1150000   12.0115
  265        CT    1  MOL    C265   265  -0.1200000   12.0115
  266        HC    1  MOL    H266   266   0.0600000    1.0080
  267        HA    1  MOL    H267   267   0.1150000    1.0080
  268        HA    1  MOL    H268   268   0.1150000    1.0080
  269        HO    1  MOL    H269   269   0.4350000    1.0080
  270        HA    1  MOL    H270   270   0.1150000    1.0080
  271        HA    1  MOL    H271   271   0.1150000    1.0080
  272        HC    1  MOL    H272   272   0.0600000    1.0080
  273        HC    1  MOL    H273   273   0.0600000    1.0080
  274        CT    1  MOL    C274   274   0.0550000   12.0115
  275        CA    1  MOL    C275   275  -0.1150000   12.0115
  276        CA    1  MOL    C276   276  -0.1150000   12.0115
  277        CA    1  MOL    C277   277  -0.1150000   12.0115
  278        CA    1  MOL    C278   278   0.1500000   12.0115
  279       OHP    1  MOL    O279   279  -0.5850000   15.9994
  280        CA    1  MOL    C280   280  -0.1150000   12.0115
  281        CA    1  MOL    C281   281  -0.1150000   12.0115
  282        CT    1  MOL    C282   282  -0.1200000   12.0115
  283        HC    1  MOL    H283   283   0.0600000    1.0080
  284        HA    1  MOL    H284   284   0.1150000    1.0080
  285        HA    1  MOL    H285   285   0.1150000    1.0080
  286        HO    1  MOL    H286   286   0.4350000    1.0080
  287        HA    1  MOL    H287   287   0.1150000    1.0080
  288        HA    1  MOL    H288   288   0.1150000    1.0080
  289        HC    1  MOL    H289   289   0.0600000    1.0080
  290        HC    1  MOL    H290   290   0.0600000    1.0080
  291        CT    1  MOL    C291   291   0.0550000   12.0115
  292        CA    1  MOL    C292   292  -0.1150000   12.0115
  293        CA    1  MOL    C293   293  -0.1150000   12.0115
  294        CA    1  MOL    C294   294  -0.1150000   12.0115
  295        CA    1  MOL    C295   295   0.1500000   12.0115
  296       OHP    1  MOL    O296   296  -0.5850000   15.9994
  297        CA    1  MOL    C297   297  -0.1150000   12.0115
  298        CA    1  MOL    C298   298  -0.1150000   12.0115
  299        CT    1  MOL    C299   299  -0.1200000   12.0115
  300        HC    1  MOL    H300   300   0.0600000    1.0080
  301        HA    1  MOL    H301   301   0.1150000    1.0080
  302        HA    1  MOL    H302   302   0.1150000    1.0080
  303        HO    1  MOL    H303   303   0.4350000    1.0080
  304        HA    1  MOL    H304   304   0.1150000    1.0080
  305        HA    1  MOL    H305   305   0.1150000    1.0080
  306        HC    1  MOL    H306   306   0.0600000    1.0080
  307        HC    1  MOL    H307   307   0.0600000    1.0080
  308        CT    1  MOL    C308   308   0.0550000   12.0115
  309        CA    1  MOL    C309   309  -0.1150000   12.0115
  310        CA    1  MOL    C310   310  -0.1150000   12.0115
  311        CA    1  MOL    C311   311  -0.1150000   12.0115
  312        CA    1  MOL    C312   312   0.1500000   12.0115
  313       OHP    1  MOL    O313   313  -0.5850000   15.9994
  314        CA    1  MOL    C314   314  -0.1150000   12.0115
  315        CA    1  MOL    C315   315  -0.1150000   12.0115
  316        CT    1  MOL    C316   316  -0.1200000   12.0115
  317        HC    1  MOL    H317   317   0.0600000    1.0080
  318        HA    1  MOL    H318   318   0.1150000    1.0080
  319        HA    1  MOL    H319   319   0.1150000    1.0080
  320        HO    1  MOL    H320   320   0.4350000    1.0080
  321        HA    1  MOL    H321   321   0.1150000    1.0080
  322        HA    1  MOL    H322   322   0.1150000    1.0080
  323        HC    1  MOL    H323   323   0.0600000    1.0080
  324        HC    1  MOL    H324   324   0.0600000    1.0080
  325        CT    1  MOL    C325   325   0.0550000   12.0115
  326        CA    1  MOL    C326   326  -0.1150000   12.0115
  327        CA    1  MOL    C327   327  -0.1150000   12.0115
  328        CA    1  MOL    C328   328  -0.1150000   12.0115
  329        CA    1  MOL    C329   329   0.1500000   12.0115
  330       OHP    1  MOL    O330   330  -0.5850000   15.9994
  331        CA    1  MOL    C331   331  -0.1150000   12.0115
  332        CA    1  MOL    C332   332  -0.1150000   12.0115
  333        CT    1  MOL    C333   333  -0.1800000   12.0115
  334        HC    1  MOL    H334   334   0.0600000    1.0080
  335        HA    1  MOL    H335   335   0.1150000    1.0080
  336        HA    1  MOL    H336   336   0.1150000    1.0080
  337        HO    1  MOL    H337   337   0.4350000    1.0080
  338        HA    1  MOL    H338   338   0.1150000    1.0080
  339        HA    1  MOL    H339   339   0.1150000    1.0080
  340        HC    1  MOL    H340   340   0.0600000    1.0080
  341        HC    1  MOL    H341   341   0.0600000    1.0080
  342        HC    1  MOL    H342   342   0.0600000    1.0080

[ bonds ]
      1      2   1      0.1510 265265.6000
      1      9   1      0.1529 224262.4000
      1     10   1      0.1090 284512.0000
      1     18   1      0.1090 284512.0000
      2      3   1      0.1400 392459.2000
      2      8   1      0.1400 392459.2000
      3      4   1      0.1400 392459.2000
      3     11   1      0.1080 307105.6000
      4      5   1      0.1400 392459.2000
      4     12   1      0.1080 307105.6000
      5      6   1      0.1364 376560.0000
      5      7   1      0.1400 392459.2000
      6     13   1      0.0945 462750.4000
      7      8   1      0.1400 392459.2000
      7     14   1      0.1080 307105.6000
      8     15   1      0.1080 307105.6000
      9     16   1      0.1090 284512.0000
      9     17   1      0.1090 284512.0000
      9     19   1      0.1529 224262.4000
     19     20   1      0.1510 265265.6000
     19     27   1      0.1529 224262.4000
     19     28   1      0.1090 284512.0000
     20     21   1      0.1400 392459.2000
     20     26   1      0.1400 392459.2000
     21     22   1      0.1400 392459.2000
     21     29   1      0.1080 307105.6000
     22     23   1      0.1400 392459.2000
     22     30   1      0.1080 307105.6000
     23     24   1      0.1364 376560.0000
     23     25   1      0.1400 392459.2000
     24     31   1      0.0945 462750.4000
     25     26   1      0.1400 392459.2000
     25     32   1      0.1080 307105.6000
     26     33   1      0.1080 307105.6000
     27     34   1      0.1090 284512.0000
     27     35   1      0.1090 284512.0000
     27     36   1      0.1529 224262.4000
     36     37   1      0.1510 265265.6000
     36     44   1      0.1529 224262.4000
     36     45   1      0.1090 284512.0000
     37     38   1      0.1400 392459.2000
     37     43   1      0.1400 392459.2000
     38     39   1      0.1400 392459.2000
     38     46   1      0.1080 307105.6000
     39     40   1      0.1400 392459.2000
     39     47   1      0.1080 307105.6000
     40     41   1      0.1364 376560.0000
     40     42   1      0.1400 392459.2000
     41     48   1      0.0945 462750.4000
     42     43   1      0.1400 392459.2000
     42     49   1      0.1080 307105.6000
     43     50   1      0.1080 307105.6000
     44     51   1      0.1090 284512.0000
     44     52   1      0.1090 284512.0000
     44     53   1      0.1529 224262.4000
     53     54   1      0.1510 265265.6000
     53     61   1      0.1529 224262.4000
     53     62   1      0.1090 284512.0000
     54     55   1      0.1400 392459.2000
     54     60   1      0.1400 392459.2000
     55     56   1      0.1400 392459.2000
     55     63   1      0.1080 307105.6000
     56     57   1      0.1400 392459.2000
     56     64   1      0.1080 307105.6000
     57     58   1      0.1364 376560.0000
     57     59   1      0.1400 392459.2000
     58     65   1      0.0945 462750.4000
     59     60   1      0.1400 392459.2000
     59     66   1      0.1080 307105.6000
     60     67   1      0.1080 307105.6000
     61     68   1      0.1090 284512.0000
     61     69   1      0.1090 284512.0000
     61     70   1      0.1529 224262.4000
     70     71   1      0.1510 265265.6000
     70     78   1      0.1529 224262.4000
     70     79   1      0.1090 284512.0000
     71     72   1      0.1400 392459.2000
     71     77   1      0.1400 392459.2000
     72     73   1      0.1400 392459.2000
     72     80   1      0.1080 307105.6000
     73     74   1      0.1400 392459.2000
     73     81   1      0.1080 307105.6000
     74     75   1      0.1364 376560.0000
     74     76   1      0.1400 392459.2000
     75     82   1      0.0945 462750.4000
     76     77   1      0.1400 392459.2000
     76     83   1      0.1080 307105.6000
     77     84   1      0.1080 307105.6000
     78     85   1      0.1090 284512.0000
     78     86   1      0.1090 284512.0000
     78     87   1      0.1529 224262.4000
     87     88   1      0.1510 265265.6000
     87     95   1      0.1529 224262.4000
     87     96   1      0.1090 284512.0000
     88     89   1      0.1400 392459.2000
     88     94   1      0.1400 392459.2000
     89     90   1      0.1400 392459.2000
     89     97   1      0.1080 307105.6000
     90     91   1      0.1400 392459.2000
     90     98   1      0.1080 307105.6000
     91     92   1      0.1364 376560.0000
     91     93   1      0.1400 392459.2000
     92     99   1      0.0945 462750.4000
     93     94   1      0.1400 392459.2000
     93    100   1      0.1080 307105.6000
     94    101   1      0.1080 307105.6000
     95    102   1      0.1090 284512.0000
     95    103   1      0.1090 284512.0000
     95    104   1      0.1529 224262.4000
    104    105   1      0.1510 265265.6000
    104    112   1      0.1529 224262.4000
    104    113   1      0.1090 284512.0000
    105    106   1      0.1400 392459.2000
    105    111   1      0.1400 392459.2000
    106    107   1      0.1400 392459.2000
    106    114   1      0.1080 307105.6000
    107    108   1      0.1400 392459.2000
    107    115   1      0.1080 307105.6000
    108    109   1      0.1364 376560.0000
    108    110   1      0.1400 392459.2000
    109    116   1      0.0945 462750.4000
    110    111   1      0.1400 392459.2000
    110    117   1      0.1080 307105.6000
    111    118   1      0.1080 307105.6000
    112    119   1      0.1090 284512.0000
    112    120   1      0.1090 284512.0000
    112    121   1      0.1529 224262.4000
    121    122   1      0.1510 265265.6000
    121    129   1      0.1529 224262.4000
    121    130   1      0.1090 284512.0000
    122    123   1      0.1400 392459.2000
    122    128   1      0.1400 392459.2000
    123    124   1      0.1400 392459.2000
    123    131   1      0.1080 307105.6000
    124    125   1      0.1400 392459.2000
    124    132   1      0.1080 307105.6000
    125    126   1      0.1364 376560.0000
    125    127   1      0.1400 392459.2000
    126    133   1      0.0945 462750.4000
    127    128   1      0.1400 392459.2000
    127    134   1      0.1080 307105.6000
    128    135   1      0.1080 307105.6000
    129    136   1      0.1090 284512.0000
    129    137   1      0.1090 284512.0000
    129    138   1      0.1529 224262.4000
    138    139   1      0.1510 265265.6000
    138    146   1      0.1529 224262.4000
    138    147   1      0.1090 284512.0000
    139    140   1      0.1400 392459.2000
    139    145   1      0.1400 392459.2000
    140    141   1      0.1400 392459.2000
    140    148   1      0.1080 307105.6000
    141    142   1      0.1400 392459.2000
    141    149   1      0.1080 307105.6000
    142    143   1      0.1364 376560.0000
    142    144   1      0.1400 392459.2000
    143    150   1      0.0945 462750.4000
    144    145   1      0.1400 392459.2000
    144    151   1      0.1080 307105.6000
    145    152   1      0.1080 307105.6000
    146    153   1      0.1090 284512.0000
    146    154   1      0.1090 284512.0000
    146    155   1      0.1529 224262.4000
    155    156   1      0.1510 265265.6000
    155    163   1      0.1529 224262.4000
    155    164   1      0.1090 284512.0000
    156    157   1      0.1400 392459.2000
    156    162   1      0.1400 392459.2000
    157    158   1      0.1400 392459.2000
    157    165   1      0.1080 307105.6000
    158    159   1      0.1400 392459.2000
    158    166   1      0.1080 307105.6000
    159    160   1      0.1364 376560.0000
    159    161   1      0.1400 392459.2000
    160    167   1      0.0945 462750.4000
    161    162   1      0.1400 392459.2000
    161    168   1      0.1080 307105.6000
    162    169   1      0.1080 307105.6000
    163    170   1      0.1090 284512.0000
    163    171   1      0.1090 284512.0000
    163    172   1      0.1529 224262.4000
    172    173   1      0.1510 265265.6000
    172    180   1      0.1529 224262.4000
    172    181   1      0.1090 284512.0000
    173    174   1      0.1400 392459.2000
    173    179   1      0.1400 392459.2000
    174    175   1      0.1400 392459.2000
    174    182   1      0.1080 307105.6000
    175    176   1      0.1400 392459.2000
    175    183   1      0.1080 307105.6000
    176    177   1      0.1364 376560.0000
    176    178   1      0.1400 392459.2000
    177    184   1      0.0945 462750.4000
    178    179   1      0.1400 392459.2000
    178    185   1      0.1080 307105.6000
    179    186   1      0.1080 307105.6000
    180    187   1      0.1090 284512.0000
    180    188   1      0.1090 284512.0000
    180    189   1      0.1529 224262.4000
    189    190   1      0.1510 265265.6000
    189    197   1      0.1529 224262.4000
    189    198   1      0.1090 284512.0000
    190    191   1      0.1400 392459.2000
    190    196   1      0.1400 392459.2000
    191    192   1      0.1400 392459.2000
    191    199   1      0.1080 307105.6000
    192    193   1      0.1400 392459.2000
    192    200   1      0.1080 307105.6000
    193    194   1      0.1364 376560.0000
    193    195   1      0.1400 392459.2000
    194    201   1      0.0945 462750.4000
    195    196   1      0.1400 392459.2000
    195    202   1      0.1080 307105.6000
    196    203   1      0.1080 307105.6000
    197    204   1      0.1090 284512.0000
    197    205   1      0.1090 284512.0000
    197    206   1      0.1529 224262.4000
    206    207   1      0.1510 265265.6000
    206    214   1      0.1529 224262.4000
    206    215   1      0.1090 284512.0000
    207    208   1      0.1400 392459.2000
    207    213   1      0.1400 392459.2000
    208    209   1      0.1400 392459.2000
    208    216   1      0.1080 307105.6000
    209    210   1      0.1400 392459.2000
    209    217   1      0.1080 307105.6000
    210    211   1      0.1364 376560.0000
    210    212   1      0.1400 392459.2000
    211    218   1      0.0945 462750.4000
    212    213   1      0.1400 392459.2000
    212    219   1      0.1080 307105.6000
    213    220   1      0.1080 307105.6000
    214    221   1      0.1090 284512.0000
    214    222   1      0.1090 284512.0000
    214    223   1      0.1529 224262.4000
    223    224   1      0.1510 265265.6000
    223    231   1      0.1529 224262.4000
    223    232   1      0.1090 284512.0000
    224    225   1      0.1400 392459.2000
    224    230   1      0.1400 392459.2000
    225    226   1      0.1400 392459.2000
    225    233   1      0.1080 307105.6000
    226    227   1      0.1400 392459.2000
    226    234   1      0.1080 307105.6000
    227    228   1      0.1364 376560.0000
    227    229   1      0.1400 392459.2000
    228    235   1      0.0945 462750.4000
    229    230   1      0.1400 392459.2000
    229    236   1      0.1080 307105.6000
    230    237   1      0.1080 307105.6000
    231    238   1      0.1090 284512.0000
    231    239   1      0.1090 284512.0000
    231    240   1      0.1529 224262.4000
    240    241   1      0.1510 265265.6000
    240    248   1      0.1529 224262.4000
    240    249   1      0.1090 284512.0000
    241    242   1      0.1400 392459.2000
    241    247   1      0.1400 392459.2000
    242    243   1      0.1400 392459.2000
    242    250   1      0.1080 307105.6000
    243    244   1      0.1400 392459.2000
    243    251   1      0.1080 307105.6000
    244    245   1      0.1364 376560.0000
    244    246   1      0.1400 392459.2000
    245    252   1      0.0945 462750.4000
    246    247   1      0.1400 392459.2000
    246    253   1      0.1080 307105.6000
    247    254   1      0.1080 307105.6000
    248    255   1      0.1090 284512.0000
    248    256   1      0.1090 284512.0000
    248    257   1      0.1529 224262.4000
    257    258   1      0.1510 265265.6000
    257    265   1      0.1529 224262.4000
    257    266   1      0.1090 284512.0000
    258    259   1      0.1400 392459.2000
    258    264   1      0.1400 392459.2000
    259    260   1      0.1400 392459.2000
    259    267   1      0.1080 307105.6000
    260    261   1      0.1400 392459.2000
    260    268   1      0.1080 307105.6000
    261    262   1      0.1364 376560.0000
    261    263   1      0.1400 392459.2000
    262    269   1      0.0945 462750.4000
    263    264   1      0.1400 392459.2000
    263    270   1      0.1080 307105.6000
    264    271   1      0.1080 307105.6000
    265    272   1      0.1090 284512.0000
    265    273   1      0.1090 284512.0000
    265    274   1      0.1529 224262.4000
    274    275   1      0.1510 265265.6000
    274    282   1      0.1529 224262.4000
    274    283   1      0.1090 284512.0000
    275    276   1      0.1400 392459.2000
    275    281   1      0.1400 392459.2000
    276    277   1      0.1400 392459.2000
    276    284   1      0.1080 307105.6000
    277    278   1      0.1400 392459.2000
    277    285   1      0.1080 307105.6000
    278    279   1      0.1364 376560.0000
    278    280   1      0.1400 392459.2000
    279    286   1      0.0945 462750.4000
    280    281   1      0.1400 392459.2000
    280    287   1      0.1080 307105.6000
    281    288   1      0.1080 307105.6000
    282    289   1      0.1090 284512.0000
    282    290   1      0.1090 284512.0000
    282    291   1      0.1529 224262.4000
    291    292   1      0.1510 265265.6000
    291    299   1      0.1529 224262.4000
    291    300   1      0.1090 284512.0000
    292    293   1      0.1400 392459.2000
    292    298   1      0.1400 392459.2000
    293    294   1      0.1400 392459.2000
    293    301   1      0.1080 307105.6000
    294    295   1      0.1400 392459.2000
    294    302   1      0.1080 307105.6000
    295    296   1      0.1364 376560.0000
    295    297   1      0.1400 392459.2000
    296    303   1      0.0945 462750.4000
    297    298   1      0.1400 392459.2000
    297    304   1      0.1080 307105.6000
    298    305   1      0.1080 307105.6000
    299    306   1      0.1090 284512.0000
    299    307   1      0.1090 284512.0000
    299    308   1      0.1529 224262.4000
    308    309   1      0.1510 265265.6000
    308    316   1      0.1529 224262.4000
    308    317   1      0.1090 284512.0000
    309    310   1      0.1400 392459.2000
    309    315   1      0.1400 392459.2000
    310    311   1      0.1400 392459.2000
    310    318   1      0.1080 307105.6000
    311    312   1      0.1400 392459.2000
    311    319   1      0.1080 307105.6000
    312    313   1      0.1364 376560.0000
    312    314   1      0.1400 392459.2000
    313    320   1      0.0945 462750.4000
    314    315   1      0.1400 392459.2000
    314    321   1      0.1080 307105.6000
    315    322   1      0.1080 307105.6000
    316    323   1      0.1090 284512.0000
    316    324   1      0.1090 284512.0000
    316    325   1      0.1529 224262.4000
    325    326   1      0.1510 265265.6000
    325    333   1      0.1529 224262.4000
    325    334   1      0.1090 284512.0000
    326    327   1      0.1400 392459.2000
    326    332   1      0.1400 392459.2000
    327    328   1      0.1400 392459.2000
    327    335   1      0.1080 307105.6000
    328    329   1      0.1400 392459.2000
    328    336   1      0.1080 307105.6000
    329    330   1      0.1364 376560.0000
    329    331   1      0.1400 392459.2000
    330    337   1      0.0945 462750.4000
    331    332   1      0.1400 392459.2000
    331    338   1      0.1080 307105.6000
    332    339   1      0.1080 307105.6000
    333    340   1      0.1090 284512.0000
    333    341   1      0.1090 284512.0000
    333    342   1      0.1090 284512.0000

[ pairs ]
; ai   aj   funct   fudge_QQ  charge_i   charge_j   c6    c12
      9      3   2   0.50000    -0.1200000   -0.1150000   1.091018e-03  2.092768e-06
      9      8   2   0.50000    -0.1200000   -0.1150000   1.091018e-03  2.092768e-06
     10      3   2   0.50000     0.0600000   -0.1150000   2.680627e-04  1.873879e-07
     10      8   2   0.50000     0.0600000   -0.1150000   2.680627e-04  1.873879e-07
     18      3   2   0.50000     0.0600000   -0.1150000   2.680627e-04  1.873879e-07
     18      8   2   0.50000     0.0600000   -0.1150000   2.680627e-04  1.873879e-07
      2     16   2   0.50000    -0.1150000    0.0600000   2.680627e-04  1.873879e-07
      2     17   2   0.50000    -0.1150000    0.0600000   2.680627e-04  1.873879e-07
      2     19   2   0.50000    -0.1150000    0.0550000   1.091018e-03  2.092768e-06
     10     16   2   0.50000     0.0600000    0.0600000   6.128906e-05  1.496315e-08
     10     17   2   0.50000     0.0600000    0.0600000   6.128906e-05  1.496315e-08
     10     19   2   0.50000     0.0600000    0.0550000   2.494471e-04  1.671101e-07
     18     16   2   0.50000     0.0600000    0.0600000   6.128906e-05  1.496315e-08
     18     17   2   0.50000     0.0600000    0.0600000   6.128906e-05  1.496315e-08
     18     19   2   0.50000     0.0600000    0.0550000   2.494471e-04  1.671101e-07
      1      4   2   0.50000    -0.0050000   -0.1150000   1.091018e-03  2.092768e-06
      1     11   2   0.50000    -0.0050000    0.1150000   2.262583e-04  1.374848e-07
      8      4   2   0.50000    -0.1150000   -0.1150000   1.172438e-03  2.346713e-06
      8     11   2   0.50000    -0.1150000    0.1150000   2.431434e-04  1.541678e-07
      1      7   2   0.50000    -0.0050000   -0.1150000   1.091018e-03  2.092768e-06
      1     15   2   0.50000    -0.0050000    0.1150000   2.262583e-04  1.374848e-07
      3      7   2   0.50000    -0.1150000   -0.1150000   1.172438e-03  2.346713e-06
      3     15   2   0.50000    -0.1150000    0.1150000   2.431434e-04  1.541678e-07
      2      5   2   0.50000    -0.1150000    0.1500000   1.172438e-03  2.346713e-06
      2     12   2   0.50000    -0.1150000    0.1150000   2.431434e-04  1.541678e-07
     11      5   2   0.50000     0.1150000    0.1500000   2.431434e-04  1.541678e-07
     11     12   2   0.50000     0.1150000    0.1150000   5.042375e-05  1.012808e-08
      3      6   2   0.50000    -0.1150000   -0.5850000   1.181668e-03  1.529662e-06
     12      6   2   0.50000     0.1150000   -0.5850000   2.450575e-04  1.004915e-07
     12      7   2   0.50000     0.1150000   -0.1150000   2.431434e-04  1.541678e-07
      4     13   2   0.50000    -0.1150000    0.4350000   2.144502e-06  1.199282e-11
      7     13   2   0.50000    -0.1150000    0.4350000   2.144502e-06  1.199282e-11
      4     14   2   0.50000    -0.1150000    0.1150000   2.431434e-04  1.541678e-07
      6      8   2   0.50000    -0.5850000   -0.1150000   1.181668e-03  1.529662e-06
      6     14   2   0.50000    -0.5850000    0.1150000   2.450575e-04  1.004915e-07
      5     15   2   0.50000     0.1500000    0.1150000   2.431434e-04  1.541678e-07
     14      2   2   0.50000     0.1150000   -0.1150000   2.431434e-04  1.541678e-07
     14     15   2   0.50000     0.1150000    0.1150000   5.042375e-05  1.012808e-08
      1     20   2   0.50000    -0.0050000   -0.1150000   1.091018e-03  2.092768e-06
      1     27   2   0.50000    -0.0050000   -0.1200000   1.015252e-03  1.866303e-06
      1     28   2   0.50000    -0.0050000    0.0600000   2.494471e-04  1.671101e-07
     16     20   2   0.50000     0.0600000   -0.1150000   2.680627e-04  1.873879e-07
     16     27   2   0.50000     0.0600000   -0.1200000   2.494471e-04  1.671101e-07
     16     28   2   0.50000     0.0600000    0.0600000   6.128906e-05  1.496315e-08
     17     20   2   0.50000     0.0600000   -0.1150000   2.680627e-04  1.873879e-07
     17     27   2   0.50000     0.0600000   -0.1200000   2.494471e-04  1.671101e-07
     17     28   2   0.50000     0.0600000    0.0600000   6.128906e-05  1.496315e-08
      9     21   2   0.50000    -0.1200000   -0.1150000   1.091018e-03  2.092768e-06
      9     26   2   0.50000    -0.1200000   -0.1150000   1.091018e-03  2.092768e-06
     27     21   2   0.50000    -0.1200000   -0.1150000   1.091018e-03  2.092768e-06
     27     26   2   0.50000    -0.1200000   -0.1150000   1.091018e-03  2.092768e-06
     28     21   2   0.50000     0.0600000   -0.1150000   2.680627e-04  1.873879e-07
     28     26   2   0.50000     0.0600000   -0.1150000   2.680627e-04  1.873879e-07
      9     34   2   0.50000    -0.1200000    0.0600000   2.494471e-04  1.671101e-07
      9     35   2   0.50000    -0.1200000    0.0600000   2.494471e-04  1.671101e-07
      9     36   2   0.50000    -0.1200000    0.0550000   1.015252e-03  1.866303e-06
     20     34   2   0.50000    -0.1150000    0.0600000   2.680627e-04  1.873879e-07
     20     35   2   0.50000    -0.1150000    0.0600000   2.680627e-04  1.873879e-07
     20     36   2   0.50000    -0.1150000    0.0550000   1.091018e-03  2.092768e-06
     28     34   2   0.50000     0.0600000    0.0600000   6.128906e-05  1.496315e-08
     28     35   2   0.50000     0.0600000    0.0600000   6.128906e-05  1.496315e-08
     28     36   2   0.50000     0.0600000    0.0550000   2.494471e-04  1.671101e-07
     19     22   2   0.50000     0.0550000   -0.1150000   1.091018e-03  2.092768e-06
     19     29   2   0.50000     0.0550000    0.1150000   2.262583e-04  1.374848e-07
     26     22   2   0.50000    -0.1150000   -0.1150000   1.172438e-03  2.346713e-06
     26     29   2   0.50000    -0.1150000    0.1150000   2.431434e-04  1.541678e-07
     19     25   2   0.50000     0.0550000   -0.1150000   1.091018e-03  2.092768e-06
     19     33   2   0.50000     0.0550000    0.1150000   2.262583e-04  1.374848e-07
     21     25   2   0.50000    -0.1150000   -0.1150000   1.172438e-03  2.346713e-06
     21     33   2   0.50000    -0.1150000    0.1150000   2.431434e-04  1.541678e-07
     20     23   2   0.50000    -0.1150000    0.1500000   1.172438e-03  2.346713e-06
     20     30   2   0.50000    -0.1150000    0.1150000   2.431434e-04  1.541678e-07
     29     23   2   0.50000     0.1150000    0.1500000   2.431434e-04  1.541678e-07
     29     30   2   0.50000     0.1150000    0.1150000   5.042375e-05  1.012808e-08
     21     24   2   0.50000    -0.1150000   -0.5850000   1.181668e-03  1.529662e-06
     30     24   2   0.50000     0.1150000   -0.5850000   2.450575e-04  1.004915e-07
     30     25   2   0.50000     0.1150000   -0.1150000   2.431434e-04  1.541678e-07
     22     31   2   0.50000    -0.1150000    0.4350000   2.144502e-06  1.199282e-11
     25     31   2   0.50000    -0.1150000    0.4350000   2.144502e-06  1.199282e-11
     22     32   2   0.50000    -0.1150000    0.1150000   2.431434e-04  1.541678e-07
     24     26   2   0.50000    -0.5850000   -0.1150000   1.181668e-03  1.529662e-06
     24     32   2   0.50000    -0.5850000    0.1150000   2.450575e-04  1.004915e-07
     23     33   2   0.50000     0.1500000    0.1150000   2.431434e-04  1.541678e-07
     32     20   2   0.50000     0.1150000   -0.1150000   2.431434e-04  1.541678e-07
     32     33   2   0.50000     0.1150000    0.1150000   5.042375e-05  1.012808e-08
     19     37   2   0.50000     0.0550000   -0.1150000   1.091018e-03  2.092768e-06
     19     44   2   0.50000     0.0550000   -0.1200000   1.015252e-03  1.866303e-06
     19     45   2   0.50000     0.0550000    0.0600000   2.494471e-04  1.671101e-07
     34     37   2   0.50000     0.0600000   -0.1150000   2.680627e-04  1.873879e-07
     34     44   2   0.50000     0.0600000   -0.1200000   2.494471e-04  1.671101e-07
     34     45   2   0.50000     0.0600000    0.0600000   6.128906e-05  1.496315e-08
     35     37   2   0.50000     0.0600000   -0.1150000   2.680627e-04  1.873879e-07
     35     44   2   0.50000     0.0600000   -0.1200000   2.494471e-04  1.671101e-07
     35     45   2   0.50000     0.0600000    0.0600000   6.128906e-05  1.496315e-08
     27     38   2   0.50000    -0.1200000   -0.1150000   1.091018e-03  2.092768e-06
     27     43   2   0.50000    -0.1200000   -0.1150000   1.091018e-03  2.092768e-06
     44     38   2   0.50000    -0.1200000   -0.1150000   1.091018e-03  2.092768e-06
     44     43   2   0.50000    -0.1200000   -0.1150000   1.091018e-03  2.092768e-06
     45     38   2   0.50000     0.0600000   -0.1150000   2.680627e-04  1.873879e-07
     45     43   2   0.50000     0.0600000   -0.1150000   2.680627e-04  1.873879e-07
     27     51   2   0.50000    -0.1200000    0.0600000   2.494471e-04  1.671101e-07
     27     52   2   0.50000    -0.1200000    0.0600000   2.494471e-04  1.671101e-07
     27     53   2   0.50000    -0.1200000    0.0550000   1.015252e-03  1.866303e-06
     37     51   2   0.50000    -0.1150000    0.0600000   2.680627e-04  1.873879e-07
     37     52   2   0.50000    -0.1150000    0.0600000   2.680627e-04  1.873879e-07
     37     53   2   0.50000    -0.1150000    0.0550000   1.091018e-03  2.092768e-06
     45     51   2   0.50000     0.0600000    0.0600000   6.128906e-05  1.496315e-08
     45     52   2   0.50000     0.0600000    0.0600000   6.128906e-05  1.496315e-08
     45     53   2   0.50000     0.0600000    0.0550000   2.494471e-04  1.671101e-07
     36     39   2   0.50000     0.0550000   -0.1150000   1.091018e-03  2.092768e-06
     36     46   2   0.50000     0.0550000    0.1150000   2.262583e-04  1.374848e-07
     43     39   2   0.50000    -0.1150000   -0.1150000   1.172438e-03  2.346713e-06
     43     46   2   0.50000    -0.1150000    0.1150000   2.431434e-04  1.541678e-07
     36     42   2   0.50000     0.0550000   -0.1150000   1.091018e-03  2.092768e-06
     36     50   2   0.50000     0.0550000    0.1150000   2.262583e-04  1.374848e-07
     38     42   2   0.50000    -0.1150000   -0.1150000   1.172438e-03  2.346713e-06
     38     50   2   0.50000    -0.1150000    0.1150000   2.431434e-04  1.541678e-07
     37     40   2   0.50000    -0.1150000    0.1500000   1.172438e-03  2.346713e-06
     37     47   2   0.50000    -0.1150000    0.1150000   2.431434e-04  1.541678e-07
     46     40   2   0.50000     0.1150000    0.1500000   2.431434e-04  1.541678e-07
     46     47   2   0.50000     0.1150000    0.1150000   5.042375e-05  1.012808e-08
     38     41   2   0.50000    -0.1150000   -0.5850000   1.181668e-03  1.529662e-06
     47     41   2   0.50000     0.1150000   -0.5850000   2.450575e-04  1.004915e-07
     47     42   2   0.50000     0.1150000   -0.1150000   2.431434e-04  1.541678e-07
     39     48   2   0.50000    -0.1150000    0.4350000   2.144502e-06  1.199282e-11
     42     48   2   0.50000    -0.1150000    0.4350000   2.144502e-06  1.199282e-11
     39     49   2   0.50000    -0.1150000    0.1150000   2.431434e-04  1.541678e-07
     41     43   2   0.50000    -0.5850000   -0.1150000   1.181668e-03  1.529662e-06
     41     49   2   0.50000    -0.5850000    0.1150000   2.450575e-04  1.004915e-07
     40     50   2   0.50000     0.1500000    0.1150000   2.431434e-04  1.541678e-07
     49     37   2   0.50000     0.1150000   -0.1150000   2.431434e-04  1.541678e-07
     49     50   2   0.50000     0.1150000    0.1150000   5.042375e-05  1.012808e-08
     36     54   2   0.50000     0.0550000   -0.1150000   1.091018e-03  2.092768e-06
     36     61   2   0.50000     0.0550000   -0.1200000   1.015252e-03  1.866303e-06
     36     62   2   0.50000     0.0550000    0.0600000   2.494471e-04  1.671101e-07
     51     54   2   0.50000     0.0600000   -0.1150000   2.680627e-04  1.873879e-07
     51     61   2   0.50000     0.0600000   -0.1200000   2.494471e-04  1.671101e-07
     51     62   2   0.50000     0.0600000    0.0600000   6.128906e-05  1.496315e-08
     52     54   2   0.50000     0.0600000   -0.1150000   2.680627e-04  1.873879e-07
     52     61   2   0.50000     0.0600000   -0.1200000   2.494471e-04  1.671101e-07
     52     62   2   0.50000     0.0600000    0.0600000   6.128906e-05  1.496315e-08
     44     55   2   0.50000    -0.1200000   -0.1150000   1.091018e-03  2.092768e-06
     44     60   2   0.50000    -0.1200000   -0.1150000   1.091018e-03  2.092768e-06
     61     55   2   0.50000    -0.1200000   -0.1150000   1.091018e-03  2.092768e-06
     61     60   2   0.50000    -0.1200000   -0.1150000   1.091018e-03  2.092768e-06
     62     55   2   0.50000     0.0600000   -0.1150000   2.680627e-04  1.873879e-07
     62     60   2   0.50000     0.0600000   -0.1150000   2.680627e-04  1.873879e-07
     44     68   2   0.50000    -0.1200000    0.0600000   2.494471e-04  1.671101e-07
     44     69   2   0.50000    -0.1200000    0.0600000   2.494471e-04  1.671101e-07
     44     70   2   0.50000    -0.1200000    0.0550000   1.015252e-03  1.866303e-06
     54     68   2   0.50000    -0.1150000    0.0600000   2.680627e-04  1.873879e-07
     54     69   2   0.50000    -0.1150000    0.0600000   2.680627e-04  1.873879e-07
     54     70   2   0.50000    -0.1150000    0.0550000   1.091018e-03  2.092768e-06
     62     68   2   0.50000     0.0600000    0.0600000   6.128906e-05  1.496315e-08
     62     69   2   0.50000     0.0600000    0.0600000   6.128906e-05  1.496315e-08
     62     70   2   0.50000     0.0600000    0.0550000   2.494471e-04  1.671101e-07
     53     56   2   0.50000     0.0550000   -0.1150000   1.091018e-03  2.092768e-06
     53     63   2   0.50000     0.0550000    0.1150000   2.262583e-04  1.374848e-07
     60     56   2   0.50000    -0.1150000   -0.1150000   1.172438e-03  2.346713e-06
     60     63   2   0.50000    -0.1150000    0.1150000   2.431434e-04  1.541678e-07
     53     59   2   0.50000     0.0550000   -0.1150000   1.091018e-03  2.092768e-06
     53     67   2   0.50000     0.0550000    0.1150000   2.262583e-04  1.374848e-07
     55     59   2   0.50000    -0.1150000   -0.1150000   1.172438e-03  2.346713e-06
     55     67   2   0.50000    -0.1150000    0.1150000   2.431434e-04  1.541678e-07
     54     57   2   0.50000    -0.1150000    0.1500000   1.172438e-03  2.346713e-06
     54     64   2   0.50000    -0.1150000    0.1150000   2.431434e-04  1.541678e-07
     63     57   2   0.50000     0.1150000    0.1500000   2.431434e-04  1.541678e-07
     63     64   2   0.50000     0.1150000    0.1150000   5.042375e-05  1.012808e-08
     55     58   2   0.50000    -0.1150000   -0.5850000   1.181668e-03  1.529662e-06
     64     58   2   0.50000     0.1150000   -0.5850000   2.450575e-04  1.004915e-07
     64     59   2   0.50000     0.1150000   -0.1150000   2.431434e-04  1.541678e-07
     56     65   2   0.50000    -0.1150000    0.4350000   2.144502e-06  1.199282e-11
     59     65   2   0.50000    -0.1150000    0.4350000   2.144502e-06  1.199282e-11
     56     66   2   0.50000    -0.1150000    0.1150000   2.431434e-04  1.541678e-07
     58     60   2   0.50000    -0.5850000   -0.1150000   1.181668e-03  1.529662e-06
     58     66   2   0.50000    -0.5850000    0.1150000   2.450575e-04  1.004915e-07
     57     67   2   0.50000     0.1500000    0.1150000   2.431434e-04  1.541678e-07
     66     54   2   0.50000     0.1150000   -0.1150000   2.431434e-04  1.541678e-07
     66     67   2   0.50000     0.1150000    0.1150000   5.042375e-05  1.012808e-08
     53     71   2   0.50000     0.0550000   -0.1150000   1.091018e-03  2.092768e-06
     53     78   2   0.50000     0.0550000   -0.1200000   1.015252e-03  1.866303e-06
     53     79   2   0.50000     0.0550000    0.0600000   2.494471e-04  1.671101e-07
     68     71   2   0.50000     0.0600000   -0.1150000   2.680627e-04  1.873879e-07
     68     78   2   0.50000     0.0600000   -0.1200000   2.494471e-04  1.671101e-07
     68     79   2   0.50000     0.0600000    0.0600000   6.128906e-05  1.496315e-08
     69     71   2   0.50000     0.0600000   -0.1150000   2.680627e-04  1.873879e-07
     69     78   2   0.50000     0.0600000   -0.1200000   2.494471e-04  1.671101e-07
     69     79   2   0.50000     0.0600000    0.0600000   6.128906e-05  1.496315e-08
     61     72   2   0.50000    -0.1200000   -0.1150000   1.091018e-03  2.092768e-06
     61     77   2   0.50000    -0.1200000   -0.1150000   1.091018e-03  2.092768e-06
     78     72   2   0.50000    -0.1200000   -0.1150000   1.091018e-03  2.092768e-06
     78     77   2   0.50000    -0.1200000   -0.1150000   1.091018e-03  2.092768e-06
     79     72   2   0.50000     0.0600000   -0.1150000   2.680627e-04  1.873879e-07
     79     77   2   0.50000     0.0600000   -0.1150000   2.680627e-04  1.873879e-07
     61     85   2   0.50000    -0.1200000    0.0600000   2.494471e-04  1.671101e-07
     61     86   2   0.50000    -0.1200000    0.0600000   2.494471e-04  1.671101e-07
     61     87   2   0.50000    -0.1200000    0.0550000   1.015252e-03  1.866303e-06
     71     85   2   0.50000    -0.1150000    0.0600000   2.680627e-04  1.873879e-07
     71     86   2   0.50000    -0.1150000    0.0600000   2.680627e-04  1.873879e-07
     71     87   2   0.50000    -0.1150000    0.0550000   1.091018e-03  2.092768e-06
     79     85   2   0.50000     0.0600000    0.0600000   6.128906e-05  1.496315e-08
     79     86   2   0.50000     0.0600000    0.0600000   6.128906e-05  1.496315e-08
     79     87   2   0.50000     0.0600000    0.0550000   2.494471e-04  1.671101e-07
     70     73   2   0.50000     0.0550000   -0.1150000   1.091018e-03  2.092768e-06
     70     80   2   0.50000     0.0550000    0.1150000   2.262583e-04  1.374848e-07
     77     73   2   0.50000    -0.1150000   -0.1150000   1.172438e-03  2.346713e-06
     77     80   2   0.50000    -0.1150000    0.1150000   2.431434e-04  1.541678e-07
     70     76   2   0.50000     0.0550000   -0.1150000   1.091018e-03  2.092768e-06
     70     84   2   0.50000     0.0550000    0.1150000   2.262583e-04  1.374848e-07
     72     76   2   0.50000    -0.1150000   -0.1150000   1.172438e-03  2.346713e-06
     72     84   2   0.50000    -0.1150000    0.1150000   2.431434e-04  1.541678e-07
     71     74   2   0.50000    -0.1150000    0.1500000   1.172438e-03  2.346713e-06
     71     81   2   0.50000    -0.1150000    0.1150000   2.431434e-04  1.541678e-07
     80     74   2   0.50000     0.1150000    0.1500000   2.431434e-04  1.541678e-07
     80     81   2   0.50000     0.1150000    0.1150000   5.042375e-05  1.012808e-08
     72     75   2   0.50000    -0.1150000   -0.5850000   1.181668e-03  1.529662e-06
     81     75   2   0.50000     0.1150000   -0.5850000   2.450575e-04  1.004915e-07
     81     76   2   0.50000     0.1150000   -0.1150000   2.431434e-04  1.541678e-07
     73     82   2   0.50000    -0.1150000    0.4350000   2.144502e-06  1.199282e-11
     76     82   2   0.50000    -0.1150000    0.4350000   2.144502e-06  1.199282e-11
     73     83   2   0.50000    -0.1150000    0.1150000   2.431434e-04  1.541678e-07
     75     77   2   0.50000    -0.5850000   -0.1150000   1.181668e-03  1.529662e-06
     75     83   2   0.50000    -0.5850000    0.1150000   2.450575e-04  1.004915e-07
     74     84   2   0.50000     0.1500000    0.1150000   2.431434e-04  1.541678e-07
     83     71   2   0.50000     0.1150000   -0.1150000   2.431434e-04  1.541678e-07
     83     84   2   0.50000     0.1150000    0.1150000   5.042375e-05  1.012808e-08
     70     88   2   0.50000     0.0550000   -0.1150000   1.091018e-03  2.092768e-06
     70     95   2   0.50000     0.0550000   -0.1200000   1.015252e-03  1.866303e-06
     70     96   2   0.50000     0.0550000    0.0600000   2.494471e-04  1.671101e-07
     85     88   2   0.50000     0.0600000   -0.1150000   2.680627e-04  1.873879e-07
     85     95   2   0.50000     0.0600000   -0.1200000   2.494471e-04  1.671101e-07
     85     96   2   0.50000     0.0600000    0.0600000   6.128906e-05  1.496315e-08
     86     88   2   0.50000     0.0600000   -0.1150000   2.680627e-04  1.873879e-07
     86     95   2   0.50000     0.0600000   -0.1200000   2.494471e-04  1.671101e-07
     86     96   2   0.50000     0.0600000    0.0600000   6.128906e-05  1.496315e-08
     78     89   2   0.50000    -0.1200000   -0.1150000   1.091018e-03  2.092768e-06
     78     94   2   0.50000    -0.1200000   -0.1150000   1.091018e-03  2.092768e-06
     95     89   2   0.50000    -0.1200000   -0.1150000   1.091018e-03  2.092768e-06
     95     94   2   0.50000    -0.1200000   -0.1150000   1.091018e-03  2.092768e-06
     96     89   2   0.50000     0.0600000   -0.1150000   2.680627e-04  1.873879e-07
     96     94   2   0.50000     0.0600000   -0.1150000   2.680627e-04  1.873879e-07
     78    102   2   0.50000    -0.1200000    0.0600000   2.494471e-04  1.671101e-07
     78    103   2   0.50000    -0.1200000    0.0600000   2.494471e-04  1.671101e-07
     78    104   2   0.50000    -0.1200000    0.0550000   1.015252e-03  1.866303e-06
     88    102   2   0.50000    -0.1150000    0.0600000   2.680627e-04  1.873879e-07
     88    103   2   0.50000    -0.1150000    0.0600000   2.680627e-04  1.873879e-07
     88    104   2   0.50000    -0.1150000    0.0550000   1.091018e-03  2.092768e-06
     96    102   2   0.50000     0.0600000    0.0600000   6.128906e-05  1.496315e-08
     96    103   2   0.50000     0.0600000    0.0600000   6.128906e-05  1.496315e-08
     96    104   2   0.50000     0.0600000    0.0550000   2.494471e-04  1.671101e-07
     87     90   2   0.50000     0.0550000   -0.1150000   1.091018e-03  2.092768e-06
     87     97   2   0.50000     0.0550000    0.1150000   2.262583e-04  1.374848e-07
     94     90   2   0.50000    -0.1150000   -0.1150000   1.172438e-03  2.346713e-06
     94     97   2   0.50000    -0.1150000    0.1150000   2.431434e-04  1.541678e-07
     87     93   2   0.50000     0.0550000   -0.1150000   1.091018e-03  2.092768e-06
     87    101   2   0.50000     0.0550000    0.1150000   2.262583e-04  1.374848e-07
     89     93   2   0.50000    -0.1150000   -0.1150000   1.172438e-03  2.346713e-06
     89    101   2   0.50000    -0.1150000    0.1150000   2.431434e-04  1.541678e-07
     88     91   2   0.50000    -0.1150000    0.1500000   1.172438e-03  2.346713e-06
     88     98   2   0.50000    -0.1150000    0.1150000   2.431434e-04  1.541678e-07
     97     91   2   0.50000     0.1150000    0.1500000   2.431434e-04  1.541678e-07
     97     98   2   0.50000     0.1150000    0.1150000   5.042375e-05  1.012808e-08
     89     92   2   0.50000    -0.1150000   -0.5850000   1.181668e-03  1.529662e-06
     98     92   2   0.50000     0.1150000   -0.5850000   2.450575e-04  1.004915e-07
     98     93   2   0.50000     0.1150000   -0.1150000   2.431434e-04  1.541678e-07
     90     99   2   0.50000    -0.1150000    0.4350000   2.144502e-06  1.199282e-11
     93     99   2   0.50000    -0.1150000    0.4350000   2.144502e-06  1.199282e-11
     90    100   2   0.50000    -0.1150000    0.1150000   2.431434e-04  1.541678e-07
     92     94   2   0.50000    -0.5850000   -0.1150000   1.181668e-03  1.529662e-06
     92    100   2   0.50000    -0.5850000    0.1150000   2.450575e-04  1.004915e-07
     91    101   2   0.50000     0.1500000    0.1150000   2.431434e-04  1.541678e-07
    100     88   2   0.50000     0.1150000   -0.1150000   2.431434e-04  1.541678e-07
    100    101   2   0.50000     0.1150000    0.1150000   5.042375e-05  1.012808e-08
     87    105   2   0.50000     0.0550000   -0.1150000   1.091018e-03  2.092768e-06
     87    112   2   0.50000     0.0550000   -0.1200000   1.015252e-03  1.866303e-06
     87    113   2   0.50000     0.0550000    0.0600000   2.494471e-04  1.671101e-07
    102    105   2   0.50000     0.0600000   -0.1150000   2.680627e-04  1.873879e-07
    102    112   2   0.50000     0.0600000   -0.1200000   2.494471e-04  1.671101e-07
    102    113   2   0.50000     0.0600000    0.0600000   6.128906e-05  1.496315e-08
    103    105   2   0.50000     0.0600000   -0.1150000   2.680627e-04  1.873879e-07
    103    112   2   0.50000     0.0600000   -0.1200000   2.494471e-04  1.671101e-07
    103    113   2   0.50000     0.0600000    0.0600000   6.128906e-05  1.496315e-08
     95    106   2   0.50000    -0.1200000   -0.1150000   1.091018e-03  2.092768e-06
     95    111   2   0.50000    -0.1200000   -0.1150000   1.091018e-03  2.092768e-06
    112    106   2   0.50000    -0.1200000   -0.1150000   1.091018e-03  2.092768e-06
    112    111   2   0.50000    -0.1200000   -0.1150000   1.091018e-03  2.092768e-06
    113    106   2   0.50000     0.0600000   -0.1150000   2.680627e-04  1.873879e-07
    113    111   2   0.50000     0.0600000   -0.1150000   2.680627e-04  1.873879e-07
     95    119   2   0.50000    -0.1200000    0.0600000   2.494471e-04  1.671101e-07
     95    120   2   0.50000    -0.1200000    0.0600000   2.494471e-04  1.671101e-07
     95    121   2   0.50000    -0.1200000    0.0550000   1.015252e-03  1.866303e-06
    105    119   2   0.50000    -0.1150000    0.0600000   2.680627e-04  1.873879e-07
    105    120   2   0.50000    -0.1150000    0.0600000   2.680627e-04  1.873879e-07
    105    121   2   0.50000    -0.1150000    0.0550000   1.091018e-03  2.092768e-06
    113    119   2   0.50000     0.0600000    0.0600000   6.128906e-05  1.496315e-08
    113    120   2   0.50000     0.0600000    0.0600000   6.128906e-05  1.496315e-08
    113    121   2   0.50000     0.0600000    0.0550000   2.494471e-04  1.671101e-07
    104    107   2   0.50000     0.0550000   -0.1150000   1.091018e-03  2.092768e-06
    104    114   2   0.50000     0.0550000    0.1150000   2.262583e-04  1.374848e-07
    111    107   2   0.50000    -0.1150000   -0.1150000   1.172438e-03  2.346713e-06
    111    114   2   0.50000    -0.1150000    0.1150000   2.431434e-04  1.541678e-07
    104    110   2   0.50000     0.0550000   -0.1150000   1.091018e-03  2.092768e-06
    104    118   2   0.50000     0.0550000    0.1150000   2.262583e-04  1.374848e-07
    106    110   2   0.50000    -0.1150000   -0.1150000   1.172438e-03  2.346713e-06
    106    118   2   0.50000    -0.1150000    0.1150000   2.431434e-04  1.541678e-07
    105    108   2   0.50000    -0.1150000    0.1500000   1.172438e-03  2.346713e-06
    105    115   2   0.50000    -0.1150000    0.1150000   2.431434e-04  1.541678e-07
    114    108   2   0.50000     0.1150000    0.1500000   2.431434e-04  1.541678e-07
    114    115   2   0.50000     0.1150000    0.1150000   5.042375e-05  1.012808e-08
    106    109   2   0.50000    -0.1150000   -0.5850000   1.181668e-03  1.529662e-06
    115    109   2   0.50000     0.1150000   -0.5850000   2.450575e-04  1.004915e-07
    115    110   2   0.50000     0.1150000   -0.1150000   2.431434e-04  1.541678e-07
    107    116   2   0.50000    -0.1150000    0.4350000   2.144502e-06  1.199282e-11
    110    116   2   0.50000    -0.1150000    0.4350000   2.144502e-06  1.199282e-11
    107    117   2   0.50000    -0.1150000    0.1150000   2.431434e-04  1.541678e-07
    109    111   2   0.50000    -0.5850000   -0.1150000   1.181668e-03  1.529662e-06
    109    117   2   0.50000    -0.5850000    0.1150000   2.450575e-04  1.004915e-07
    108    118   2   0.50000     0.1500000    0.1150000   2.431434e-04  1.541678e-07
    117    105   2   0.50000     0.1150000   -0.1150000   2.431434e-04  1.541678e-07
    117    118   2   0.50000     0.1150000    0.1150000   5.042375e-05  1.012808e-08
    104    122   2   0.50000     0.0550000   -0.1150000   1.091018e-03  2.092768e-06
    104    129   2   0.50000     0.0550000   -0.1200000   1.015252e-03  1.866303e-06
    104    130   2   0.50000     0.0550000    0.0600000   2.494471e-04  1.671101e-07
    119    122   2   0.50000     0.0600000   -0.1150000   2.680627e-04  1.873879e-07
    119    129   2   0.50000     0.0600000   -0.1200000   2.494471e-04  1.671101e-07
    119    130   2   0.50000     0.0600000    0.0600000   6.128906e-05  1.496315e-08
    120    122   2   0.50000     0.0600000   -0.1150000   2.680627e-04  1.873879e-07
    120    129   2   0.50000     0.0600000   -0.1200000   2.494471e-04  1.671101e-07
    120    130   2   0.50000     0.0600000    0.0600000   6.128906e-05  1.496315e-08
    112    123   2   0.50000    -0.1200000   -0.1150000   1.091018e-03  2.092768e-06
    112    128   2   0.50000    -0.1200000   -0.1150000   1.091018e-03  2.092768e-06
    129    123   2   0.50000    -0.1200000   -0.1150000   1.091018e-03  2.092768e-06
    129    128   2   0.50000    -0.1200000   -0.1150000   1.091018e-03  2.092768e-06
    130    123   2   0.50000     0.0600000   -0.1150000   2.680627e-04  1.873879e-07
    130    128   2   0.50000     0.0600000   -0.1150000   2.680627e-04  1.873879e-07
    112    136   2   0.50000    -0.1200000    0.0600000   2.494471e-04  1.671101e-07
    112    137   2   0.50000    -0.1200000    0.0600000   2.494471e-04  1.671101e-07
    112    138   2   0.50000    -0.1200000    0.0550000   1.015252e-03  1.866303e-06
    122    136   2   0.50000    -0.1150000    0.0600000   2.680627e-04  1.873879e-07
    122    137   2   0.50000    -0.1150000    0.0600000   2.680627e-04  1.873879e-07
    122    138   2   0.50000    -0.1150000    0.0550000   1.091018e-03  2.092768e-06
    130    136   2   0.50000     0.0600000    0.0600000   6.128906e-05  1.496315e-08
    130    137   2   0.50000     0.0600000    0.0600000   6.128906e-05  1.496315e-08
    130    138   2   0.50000     0.0600000    0.0550000   2.494471e-04  1.671101e-07
    121    124   2   0.50000     0.0550000   -0.1150000   1.091018e-03  2.092768e-06
    121    131   2   0.50000     0.0550000    0.1150000   2.262583e-04  1.374848e-07
    128    124   2   0.50000    -0.1150000   -0.1150000   1.172438e-03  2.346713e-06
    128    131   2   0.50000    -0.1150000    0.1150000   2.431434e-04  1.541678e-07
    121    127   2   0.50000     0.0550000   -0.1150000   1.091018e-03  2.092768e-06
    121    135   2   0.50000     0.0550000    0.1150000   2.262583e-04  1.374848e-07
    123    127   2   0.50000    -0.1150000   -0.1150000   1.172438e-03  2.346713e-06
    123    135   2   0.50000    -0.1150000    0.1150000   2.431434e-04  1.541678e-07
    122    125   2   0.50000    -0.1150000    0.1500000   1.172438e-03  2.346713e-06
    122    132   2   0.50000    -0.1150000    0.1150000   2.431434e-04  1.541678e-07
    131    125   2   0.50000     0.1150000    0.1500000   2.431434e-04  1.541678e-07
    131    132   2   0.50000     0.1150000    0.1150000   5.042375e-05  1.012808e-08
    123    126   2   0.50000    -0.1150000   -0.5850000   1.181668e-03  1.529662e-06
    132    126   2   0.50000     0.1150000   -0.5850000   2.450575e-04  1.004915e-07
    132    127   2   0.50000     0.1150000   -0.1150000   2.431434e-04  1.541678e-07
    124    133   2   0.50000    -0.1150000    0.4350000   2.144502e-06  1.199282e-11
    127    133   2   0.50000    -0.1150000    0.4350000   2.144502e-06  1.199282e-11
    124    134   2   0.50000    -0.1150000    0.1150000   2.431434e-04  1.541678e-07
    126    128   2   0.50000    -0.5850000   -0.1150000   1.181668e-03  1.529662e-06
    126    134   2   0.50000    -0.5850000    0.1150000   2.450575e-04  1.004915e-07
    125    135   2   0.50000     0.1500000    0.1150000   2.431434e-04  1.541678e-07
    134    122   2   0.50000     0.1150000   -0.1150000   2.431434e-04  1.541678e-07
    134    135   2   0.50000     0.1150000    0.1150000   5.042375e-05  1.012808e-08
    121    139   2   0.50000     0.0550000   -0.1150000   1.091018e-03  2.092768e-06
    121    146   2   0.50000     0.0550000   -0.1200000   1.015252e-03  1.866303e-06
    121    147   2   0.50000     0.0550000    0.0600000   2.494471e-04  1.671101e-07
    136    139   2   0.50000     0.0600000   -0.1150000   2.680627e-04  1.873879e-07
    136    146   2   0.50000     0.0600000   -0.1200000   2.494471e-04  1.671101e-07
    136    147   2   0.50000     0.0600000    0.0600000   6.128906e-05  1.496315e-08
    137    139   2   0.50000     0.0600000   -0.1150000   2.680627e-04  1.873879e-07
    137    146   2   0.50000     0.0600000   -0.1200000   2.494471e-04  1.671101e-07
    137    147   2   0.50000     0.0600000    0.0600000   6.128906e-05  1.496315e-08
    129    140   2   0.50000    -0.1200000   -0.1150000   1.091018e-03  2.092768e-06
    129    145   2   0.50000    -0.1200000   -0.1150000   1.091018e-03  2.092768e-06
    146    140   2   0.50000    -0.1200000   -0.1150000   1.091018e-03  2.092768e-06
    146    145   2   0.50000    -0.1200000   -0.1150000   1.091018e-03  2.092768e-06
    147    140   2   0.50000     0.0600000   -0.1150000   2.680627e-04  1.873879e-07
    147    145   2   0.50000     0.0600000   -0.1150000   2.680627e-04  1.873879e-07
    129    153   2   0.50000    -0.1200000    0.0600000   2.494471e-04  1.671101e-07
    129    154   2   0.50000    -0.1200000    0.0600000   2.494471e-04  1.671101e-07
    129    155   2   0.50000    -0.1200000    0.0550000   1.015252e-03  1.866303e-06
    139    153   2   0.50000    -0.1150000    0.0600000   2.680627e-04  1.873879e-07
    139    154   2   0.50000    -0.1150000    0.0600000   2.680627e-04  1.873879e-07
    139    155   2   0.50000    -0.1150000    0.0550000   1.091018e-03  2.092768e-06
    147    153   2   0.50000     0.0600000    0.0600000   6.128906e-05  1.496315e-08
    147    154   2   0.50000     0.0600000    0.0600000   6.128906e-05  1.496315e-08
    147    155   2   0.50000     0.0600000    0.0550000   2.494471e-04  1.671101e-07
    138    141   2   0.50000     0.0550000   -0.1150000   1.091018e-03  2.092768e-06
    138    148   2   0.50000     0.0550000    0.1150000   2.262583e-04  1.374848e-07
    145    141   2   0.50000    -0.1150000   -0.1150000   1.172438e-03  2.346713e-06
    145    148   2   0.50000    -0.1150000    0.1150000   2.431434e-04  1.541678e-07
    138    144   2   0.50000     0.0550000   -0.1150000   1.091018e-03  2.092768e-06
    138    152   2   0.50000     0.0550000    0.1150000   2.262583e-04  1.374848e-07
    140    144   2   0.50000    -0.1150000   -0.1150000   1.172438e-03  2.346713e-06
    140    152   2   0.50000    -0.1150000    0.1150000   2.431434e-04  1.541678e-07
    139    142   2   0.50000    -0.1150000    0.1500000   1.172438e-03  2.346713e-06
    139    149   2   0.50000    -0.1150000    0.1150000   2.431434e-04  1.541678e-07
    148    142   2   0.50000     0.1150000    0.1500000   2.431434e-04  1.541678e-07
    148    149   2   0.50000     0.1150000    0.1150000   5.042375e-05  1.012808e-08
    140    143   2   0.50000    -0.1150000   -0.5850000   1.181668e-03  1.529662e-06
    149    143   2   0.50000     0.1150000   -0.5850000   2.450575e-04  1.004915e-07
    149    144   2   0.50000     0.1150000   -0.1150000   2.431434e-04  1.541678e-07
    141    150   2   0.50000    -0.1150000    0.4350000   2.144502e-06  1.199282e-11
    144    150   2   0.50000    -0.1150000    0.4350000   2.144502e-06  1.199282e-11
    141    151   2   0.50000    -0.1150000    0.1150000   2.431434e-04  1.541678e-07
    143    145   2   0.50000    -0.5850000   -0.1150000   1.181668e-03  1.529662e-06
    143    151   2   0.50000    -0.5850000    0.1150000   2.450575e-04  1.004915e-07
    142    152   2   0.50000     0.1500000    0.1150000   2.431434e-04  1.541678e-07
    151    139   2   0.50000     0.1150000   -0.1150000   2.431434e-04  1.541678e-07
    151    152   2   0.50000     0.1150000    0.1150000   5.042375e-05  1.012808e-08
    138    156   2   0.50000     0.0550000   -0.1150000   1.091018e-03  2.092768e-06
    138    163   2   0.50000     0.0550000   -0.1200000   1.015252e-03  1.866303e-06
    138    164   2   0.50000     0.0550000    0.0600000   2.494471e-04  1.671101e-07
    153    156   2   0.50000     0.0600000   -0.1150000   2.680627e-04  1.873879e-07
    153    163   2   0.50000     0.0600000   -0.1200000   2.494471e-04  1.671101e-07
    153    164   2   0.50000     0.0600000    0.0600000   6.128906e-05  1.496315e-08
    154    156   2   0.50000     0.0600000   -0.1150000   2.680627e-04  1.873879e-07
    154    163   2   0.50000     0.0600000   -0.1200000   2.494471e-04  1.671101e-07
    154    164   2   0.50000     0.0600000    0.0600000   6.128906e-05  1.496315e-08
    146    157   2   0.50000    -0.1200000   -0.1150000   1.091018e-03  2.092768e-06
    146    162   2   0.50000    -0.1200000   -0.1150000   1.091018e-03  2.092768e-06
    163    157   2   0.50000    -0.1200000   -0.1150000   1.091018e-03  2.092768e-06
    163    162   2   0.50000    -0.1200000   -0.1150000   1.091018e-03  2.092768e-06
    164    157   2   0.50000     0.0600000   -0.1150000   2.680627e-04  1.873879e-07
    164    162   2   0.50000     0.0600000   -0.1150000   2.680627e-04  1.873879e-07
    146    170   2   0.50000    -0.1200000    0.0600000   2.494471e-04  1.671101e-07
    146    171   2   0.50000    -0.1200000    0.0600000   2.494471e-04  1.671101e-07
    146    172   2   0.50000    -0.1200000    0.0550000   1.015252e-03  1.866303e-06
    156    170   2   0.50000    -0.1150000    0.0600000   2.680627e-04  1.873879e-07
    156    171   2   0.50000    -0.1150000    0.0600000   2.680627e-04  1.873879e-07
    156    172   2   0.50000    -0.1150000    0.0550000   1.091018e-03  2.092768e-06
    164    170   2   0.50000     0.0600000    0.0600000   6.128906e-05  1.496315e-08
    164    171   2   0.50000     0.0600000    0.0600000   6.128906e-05  1.496315e-08
    164    172   2   0.50000     0.0600000    0.0550000   2.494471e-04  1.671101e-07
    155    158   2   0.50000     0.0550000   -0.1150000   1.091018e-03  2.092768e-06
    155    165   2   0.50000     0.0550000    0.1150000   2.262583e-04  1.374848e-07
    162    158   2   0.50000    -0.1150000   -0.1150000   1.172438e-03  2.346713e-06
    162    165   2   0.50000    -0.1150000    0.1150000   2.431434e-04  1.541678e-07
    155    161   2   0.50000     0.0550000   -0.1150000   1.091018e-03  2.092768e-06
    155    169   2   0.50000     0.0550000    0.1150000   2.262583e-04  1.374848e-07
    157    161   2   0.50000    -0.1150000   -0.1150000   1.172438e-03  2.346713e-06
    157    169   2   0.50000    -0.1150000    0.1150000   2.431434e-04  1.541678e-07
    156    159   2   0.50000    -0.1150000    0.1500000   1.172438e-03  2.346713e-06
    156    166   2   0.50000    -0.1150000    0.1150000   2.431434e-04  1.541678e-07
    165    159   2   0.50000     0.1150000    0.1500000   2.431434e-04  1.541678e-07
    165    166   2   0.50000     0.1150000    0.1150000   5.042375e-05  1.012808e-08
    157    160   2   0.50000    -0.1150000   -0.5850000   1.181668e-03  1.529662e-06
    166    160   2   0.50000     0.1150000   -0.5850000   2.450575e-04  1.004915e-07
    166    161   2   0.50000     0.1150000   -0.1150000   2.431434e-04  1.541678e-07
    158    167   2   0.50000    -0.1150000    0.4350000   2.144502e-06  1.199282e-11
    161    167   2   0.50000    -0.1150000    0.4350000   2.144502e-06  1.199282e-11
    158    168   2   0.50000    -0.1150000    0.1150000   2.431434e-04  1.541678e-07
    160    162   2   0.50000    -0.5850000   -0.1150000   1.181668e-03  1.529662e-06
    160    168   2   0.50000    -0.5850000    0.1150000   2.450575e-04  1.004915e-07
    159    169   2   0.50000     0.1500000    0.1150000   2.431434e-04  1.541678e-07
    168    156   2   0.50000     0.1150000   -0.1150000   2.431434e-04  1.541678e-07
    168    169   2   0.50000     0.1150000    0.1150000   5.042375e-05  1.012808e-08
    155    173   2   0.50000     0.0550000   -0.1150000   1.091018e-03  2.092768e-06
    155    180   2   0.50000     0.0550000   -0.1200000   1.015252e-03  1.866303e-06
    155    181   2   0.50000     0.0550000    0.0600000   2.494471e-04  1.671101e-07
    170    173   2   0.50000     0.0600000   -0.1150000   2.680627e-04  1.873879e-07
    170    180   2   0.50000     0.0600000   -0.1200000   2.494471e-04  1.671101e-07
    170    181   2   0.50000     0.0600000    0.0600000   6.128906e-05  1.496315e-08
    171    173   2   0.50000     0.0600000   -0.1150000   2.680627e-04  1.873879e-07
    171    180   2   0.50000     0.0600000   -0.1200000   2.494471e-04  1.671101e-07
    171    181   2   0.50000     0.0600000    0.0600000   6.128906e-05  1.496315e-08
    163    174   2   0.50000    -0.1200000   -0.1150000   1.091018e-03  2.092768e-06
    163    179   2   0.50000    -0.1200000   -0.1150000   1.091018e-03  2.092768e-06
    180    174   2   0.50000    -0.1200000   -0.1150000   1.091018e-03  2.092768e-06
    180    179   2   0.50000    -0.1200000   -0.1150000   1.091018e-03  2.092768e-06
    181    174   2   0.50000     0.0600000   -0.1150000   2.680627e-04  1.873879e-07
    181    179   2   0.50000     0.0600000   -0.1150000   2.680627e-04  1.873879e-07
    163    187   2   0.50000    -0.1200000    0.0600000   2.494471e-04  1.671101e-07
    163    188   2   0.50000    -0.1200000    0.0600000   2.494471e-04  1.671101e-07
    163    189   2   0.50000    -0.1200000    0.0550000   1.015252e-03  1.866303e-06
    173    187   2   0.50000    -0.1150000    0.0600000   2.680627e-04  1.873879e-07
    173    188   2   0.50000    -0.1150000    0.0600000   2.680627e-04  1.873879e-07
    173    189   2   0.50000    -0.1150000    0.0550000   1.091018e-03  2.092768e-06
    181    187   2   0.50000     0.0600000    0.0600000   6.128906e-05  1.496315e-08
    181    188   2   0.50000     0.0600000    0.0600000   6.128906e-05  1.496315e-08
    181    189   2   0.50000     0.0600000    0.0550000   2.494471e-04  1.671101e-07
    172    175   2   0.50000     0.0550000   -0.1150000   1.091018e-03  2.092768e-06
    172    182   2   0.50000     0.0550000    0.1150000   2.262583e-04  1.374848e-07
    179    175   2   0.50000    -0.1150000   -0.1150000   1.172438e-03  2.346713e-06
    179    182   2   0.50000    -0.1150000    0.1150000   2.431434e-04  1.541678e-07
    172    178   2   0.50000     0.0550000   -0.1150000   1.091018e-03  2.092768e-06
    172    186   2   0.50000     0.0550000    0.1150000   2.262583e-04  1.374848e-07
    174    178   2   0.50000    -0.1150000   -0.1150000   1.172438e-03  2.346713e-06
    174    186   2   0.50000    -0.1150000    0.1150000   2.431434e-04  1.541678e-07
    173    176   2   0.50000    -0.1150000    0.1500000   1.172438e-03  2.346713e-06
    173    183   2   0.50000    -0.1150000    0.1150000   2.431434e-04  1.541678e-07
    182    176   2   0.50000     0.1150000    0.1500000   2.431434e-04  1.541678e-07
    182    183   2   0.50000     0.1150000    0.1150000   5.042375e-05  1.012808e-08
    174    177   2   0.50000    -0.1150000   -0.5850000   1.181668e-03  1.529662e-06
    183    177   2   0.50000     0.1150000   -0.5850000   2.450575e-04  1.004915e-07
    183    178   2   0.50000     0.1150000   -0.1150000   2.431434e-04  1.541678e-07
    175    184   2   0.50000    -0.1150000    0.4350000   2.144502e-06  1.199282e-11
    178    184   2   0.50000    -0.1150000    0.4350000   2.144502e-06  1.199282e-11
    175    185   2   0.50000    -0.1150000    0.1150000   2.431434e-04  1.541678e-07
    177    179   2   0.50000    -0.5850000   -0.1150000   1.181668e-03  1.529662e-06
    177    185   2   0.50000    -0.5850000    0.1150000   2.450575e-04  1.004915e-07
    176    186   2   0.50000     0.1500000    0.1150000   2.431434e-04  1.541678e-07
    185    173   2   0.50000     0.1150000   -0.1150000   2.431434e-04  1.541678e-07
    185    186   2   0.50000     0.1150000    0.1150000   5.042375e-05  1.012808e-08
    172    190   2   0.50000     0.0550000   -0.1150000   1.091018e-03  2.092768e-06
    172    197   2   0.50000     0.0550000   -0.1200000   1.015252e-03  1.866303e-06
    172    198   2   0.50000     0.0550000    0.0600000   2.494471e-04  1.671101e-07
    187    190   2   0.50000     0.0600000   -0.1150000   2.680627e-04  1.873879e-07
    187    197   2   0.50000     0.0600000   -0.1200000   2.494471e-04  1.671101e-07
    187    198   2   0.50000     0.0600000    0.0600000   6.128906e-05  1.496315e-08
    188    190   2   0.50000     0.0600000   -0.1150000   2.680627e-04  1.873879e-07
    188    197   2   0.50000     0.0600000   -0.1200000   2.494471e-04  1.671101e-07
    188    198   2   0.50000     0.0600000    0.0600000   6.128906e-05  1.496315e-08
    180    191   2   0.50000    -0.1200000   -0.1150000   1.091018e-03  2.092768e-06
    180    196   2   0.50000    -0.1200000   -0.1150000   1.091018e-03  2.092768e-06
    197    191   2   0.50000    -0.1200000   -0.1150000   1.091018e-03  2.092768e-06
    197    196   2   0.50000    -0.1200000   -0.1150000   1.091018e-03  2.092768e-06
    198    191   2   0.50000     0.0600000   -0.1150000   2.680627e-04  1.873879e-07
    198    196   2   0.50000     0.0600000   -0.1150000   2.680627e-04  1.873879e-07
    180    204   2   0.50000    -0.1200000    0.0600000   2.494471e-04  1.671101e-07
    180    205   2   0.50000    -0.1200000    0.0600000   2.494471e-04  1.671101e-07
    180    206   2   0.50000    -0.1200000    0.0550000   1.015252e-03  1.866303e-06
    190    204   2   0.50000    -0.1150000    0.0600000   2.680627e-04  1.873879e-07
    190    205   2   0.50000    -0.1150000    0.0600000   2.680627e-04  1.873879e-07
    190    206   2   0.50000    -0.1150000    0.0550000   1.091018e-03  2.092768e-06
    198    204   2   0.50000     0.0600000    0.0600000   6.128906e-05  1.496315e-08
    198    205   2   0.50000     0.0600000    0.0600000   6.128906e-05  1.496315e-08
    198    206   2   0.50000     0.0600000    0.0550000   2.494471e-04  1.671101e-07
    189    192   2   0.50000     0.0550000   -0.1150000   1.091018e-03  2.092768e-06
    189    199   2   0.50000     0.0550000    0.1150000   2.262583e-04  1.374848e-07
    196    192   2   0.50000    -0.1150000   -0.1150000   1.172438e-03  2.346713e-06
    196    199   2   0.50000    -0.1150000    0.1150000   2.431434e-04  1.541678e-07
    189    195   2   0.50000     0.0550000   -0.1150000   1.091018e-03  2.092768e-06
    189    203   2   0.50000     0.0550000    0.1150000   2.262583e-04  1.374848e-07
    191    195   2   0.50000    -0.1150000   -0.1150000   1.172438e-03  2.346713e-06
    191    203   2   0.50000    -0.1150000    0.1150000   2.431434e-04  1.541678e-07
    190    193   2   0.50000    -0.1150000    0.1500000   1.172438e-03  2.346713e-06
    190    200   2   0.50000    -0.1150000    0.1150000   2.431434e-04  1.541678e-07
    199    193   2   0.50000     0.1150000    0.1500000   2.431434e-04  1.541678e-07
    199    200   2   0.50000     0.1150000    0.1150000   5.042375e-05  1.012808e-08
    191    194   2   0.50000    -0.1150000   -0.5850000   1.181668e-03  1.529662e-06
    200    194   2   0.50000     0.1150000   -0.5850000   2.450575e-04  1.004915e-07
    200    195   2   0.50000     0.1150000   -0.1150000   2.431434e-04  1.541678e-07
    192    201   2   0.50000    -0.1150000    0.4350000   2.144502e-06  1.199282e-11
    195    201   2   0.50000    -0.1150000    0.4350000   2.144502e-06  1.199282e-11
    192    202   2   0.50000    -0.1150000    0.1150000   2.431434e-04  1.541678e-07
    194    196   2   0.50000    -0.5850000   -0.1150000   1.181668e-03  1.529662e-06
    194    202   2   0.50000    -0.5850000    0.1150000   2.450575e-04  1.004915e-07
    193    203   2   0.50000     0.1500000    0.1150000   2.431434e-04  1.541678e-07
    202    190   2   0.50000     0.1150000   -0.1150000   2.431434e-04  1.541678e-07
    202    203   2   0.50000     0.1150000    0.1150000   5.042375e-05  1.012808e-08
    189    207   2   0.50000     0.0550000   -0.1150000   1.091018e-03  2.092768e-06
    189    214   2   0.50000     0.0550000   -0.1200000   1.015252e-03  1.866303e-06
    189    215   2   0.50000     0.0550000    0.0600000   2.494471e-04  1.671101e-07
    204    207   2   0.50000     0.0600000   -0.1150000   2.680627e-04  1.873879e-07
    204    214   2   0.50000     0.0600000   -0.1200000   2.494471e-04  1.671101e-07
    204    215   2   0.50000     0.0600000    0.0600000   6.128906e-05  1.496315e-08
    205    207   2   0.50000     0.0600000   -0.1150000   2.680627e-04  1.873879e-07
    205    214   2   0.50000     0.0600000   -0.1200000   2.494471e-04  1.671101e-07
    205    215   2   0.50000     0.0600000    0.0600000   6.128906e-05  1.496315e-08
    197    208   2   0.50000    -0.1200000   -0.1150000   1.091018e-03  2.092768e-06
    197    213   2   0.50000    -0.1200000   -0.1150000   1.091018e-03  2.092768e-06
    214    208   2   0.50000    -0.1200000   -0.1150000   1.091018e-03  2.092768e-06
    214    213   2   0.50000    -0.1200000   -0.1150000   1.091018e-03  2.092768e-06
    215    208   2   0.50000     0.0600000   -0.1150000   2.680627e-04  1.873879e-07
    215    213   2   0.50000     0.0600000   -0.1150000   2.680627e-04  1.873879e-07
    197    221   2   0.50000    -0.1200000    0.0600000   2.494471e-04  1.671101e-07
    197    222   2   0.50000    -0.1200000    0.0600000   2.494471e-04  1.671101e-07
    197    223   2   0.50000    -0.1200000    0.0550000   1.015252e-03  1.866303e-06
    207    221   2   0.50000    -0.1150000    0.0600000   2.680627e-04  1.873879e-07
    207    222   2   0.50000    -0.1150000    0.0600000   2.680627e-04  1.873879e-07
    207    223   2   0.50000    -0.1150000    0.0550000   1.091018e-03  2.092768e-06
    215    221   2   0.50000     0.0600000    0.0600000   6.128906e-05  1.496315e-08
    215    222   2   0.50000     0.0600000    0.0600000   6.128906e-05  1.496315e-08
    215    223   2   0.50000     0.0600000    0.0550000   2.494471e-04  1.671101e-07
    206    209   2   0.50000     0.0550000   -0.1150000   1.091018e-03  2.092768e-06
    206    216   2   0.50000     0.0550000    0.1150000   2.262583e-04  1.374848e-07
    213    209   2   0.50000    -0.1150000   -0.1150000   1.172438e-03  2.346713e-06
    213    216   2   0.50000    -0.1150000    0.1150000   2.431434e-04  1.541678e-07
    206    212   2   0.50000     0.0550000   -0.1150000   1.091018e-03  2.092768e-06
    206    220   2   0.50000     0.0550000    0.1150000   2.262583e-04  1.374848e-07
    208    212   2   0.50000    -0.1150000   -0.1150000   1.172438e-03  2.346713e-06
    208    220   2   0.50000    -0.1150000    0.1150000   2.431434e-04  1.541678e-07
    207    210   2   0.50000    -0.1150000    0.1500000   1.172438e-03  2.346713e-06
    207    217   2   0.50000    -0.1150000    0.1150000   2.431434e-04  1.541678e-07
    216    210   2   0.50000     0.1150000    0.1500000   2.431434e-04  1.541678e-07
    216    217   2   0.50000     0.1150000    0.1150000   5.042375e-05  1.012808e-08
    208    211   2   0.50000    -0.1150000   -0.5850000   1.181668e-03  1.529662e-06
    217    211   2   0.50000     0.1150000   -0.5850000   2.450575e-04  1.004915e-07
    217    212   2   0.50000     0.1150000   -0.1150000   2.431434e-04  1.541678e-07
    209    218   2   0.50000    -0.1150000    0.4350000   2.144502e-06  1.199282e-11
    212    218   2   0.50000    -0.1150000    0.4350000   2.144502e-06  1.199282e-11
    209    219   2   0.50000    -0.1150000    0.1150000   2.431434e-04  1.541678e-07
    211    213   2   0.50000    -0.5850000   -0.1150000   1.181668e-03  1.529662e-06
    211    219   2   0.50000    -0.5850000    0.1150000   2.450575e-04  1.004915e-07
    210    220   2   0.50000     0.1500000    0.1150000   2.431434e-04  1.541678e-07
    219    207   2   0.50000     0.1150000   -0.1150000   2.431434e-04  1.541678e-07
    219    220   2   0.50000     0.1150000    0.1150000   5.042375e-05  1.012808e-08
    206    224   2   0.50000     0.0550000   -0.1150000   1.091018e-03  2.092768e-06
    206    231   2   0.50000     0.0550000   -0.1200000   1.015252e-03  1.866303e-06
    206    232   2   0.50000     0.0550000    0.0600000   2.494471e-04  1.671101e-07
    221    224   2   0.50000     0.0600000   -0.1150000   2.680627e-04  1.873879e-07
    221    231   2   0.50000     0.0600000   -0.1200000   2.494471e-04  1.671101e-07
    221    232   2   0.50000     0.0600000    0.0600000   6.128906e-05  1.496315e-08
    222    224   2   0.50000     0.0600000   -0.1150000   2.680627e-04  1.873879e-07
    222    231   2   0.50000     0.0600000   -0.1200000   2.494471e-04  1.671101e-07
    222    232   2   0.50000     0.0600000    0.0600000   6.128906e-05  1.496315e-08
    214    225   2   0.50000    -0.1200000   -0.1150000   1.091018e-03  2.092768e-06
    214    230   2   0.50000    -0.1200000   -0.1150000   1.091018e-03  2.092768e-06
    231    225   2   0.50000    -0.1200000   -0.1150000   1.091018e-03  2.092768e-06
    231    230   2   0.50000    -0.1200000   -0.1150000   1.091018e-03  2.092768e-06
    232    225   2   0.50000     0.0600000   -0.1150000   2.680627e-04  1.873879e-07
    232    230   2   0.50000     0.0600000   -0.1150000   2.680627e-04  1.873879e-07
    214    238   2   0.50000    -0.1200000    0.0600000   2.494471e-04  1.671101e-07
    214    239   2   0.50000    -0.1200000    0.0600000   2.494471e-04  1.671101e-07
    214    240   2   0.50000    -0.1200000    0.0550000   1.015252e-03  1.866303e-06
    224    238   2   0.50000    -0.1150000    0.0600000   2.680627e-04  1.873879e-07
    224    239   2   0.50000    -0.1150000    0.0600000   2.680627e-04  1.873879e-07
    224    240   2   0.50000    -0.1150000    0.0550000   1.091018e-03  2.092768e-06
    232    238   2   0.50000     0.0600000    0.0600000   6.128906e-05  1.496315e-08
    232    239   2   0.50000     0.0600000    0.0600000   6.128906e-05  1.496315e-08
    232    240   2   0.50000     0.0600000    0.0550000   2.494471e-04  1.671101e-07
    223    226   2   0.50000     0.0550000   -0.1150000   1.091018e-03  2.092768e-06
    223    233   2   0.50000     0.0550000    0.1150000   2.262583e-04  1.374848e-07
    230    226   2   0.50000    -0.1150000   -0.1150000   1.172438e-03  2.346713e-06
    230    233   2   0.50000    -0.1150000    0.1150000   2.431434e-04  1.541678e-07
    223    229   2   0.50000     0.0550000   -0.1150000   1.091018e-03  2.092768e-06
    223    237   2   0.50000     0.0550000    0.1150000   2.262583e-04  1.374848e-07
    225    229   2   0.50000    -0.1150000   -0.1150000   1.172438e-03  2.346713e-06
    225    237   2   0.50000    -0.1150000    0.1150000   2.431434e-04  1.541678e-07
    224    227   2   0.50000    -0.1150000    0.1500000   1.172438e-03  2.346713e-06
    224    234   2   0.50000    -0.1150000    0.1150000   2.431434e-04  1.541678e-07
    233    227   2   0.50000     0.1150000    0.1500000   2.431434e-04  1.541678e-07
    233    234   2   0.50000     0.1150000    0.1150000   5.042375e-05  1.012808e-08
    225    228   2   0.50000    -0.1150000   -0.5850000   1.181668e-03  1.529662e-06
    234    228   2   0.50000     0.1150000   -0.5850000   2.450575e-04  1.004915e-07
    234    229   2   0.50000     0.1150000   -0.1150000   2.431434e-04  1.541678e-07
    226    235   2   0.50000    -0.1150000    0.4350000   2.144502e-06  1.199282e-11
    229    235   2   0.50000    -0.1150000    0.4350000   2.144502e-06  1.199282e-11
    226    236   2   0.50000    -0.1150000    0.1150000   2.431434e-04  1.541678e-07
    228    230   2   0.50000    -0.5850000   -0.1150000   1.181668e-03  1.529662e-06
    228    236   2   0.50000    -0.5850000    0.1150000   2.450575e-04  1.004915e-07
    227    237   2   0.50000     0.1500000    0.1150000   2.431434e-04  1.541678e-07
    236    224   2   0.50000     0.1150000   -0.1150000   2.431434e-04  1.541678e-07
    236    237   2   0.50000     0.1150000    0.1150000   5.042375e-05  1.012808e-08
    223    241   2   0.50000     0.0550000   -0.1150000   1.091018e-03  2.092768e-06
    223    248   2   0.50000     0.0550000   -0.1200000   1.015252e-03  1.866303e-06
    223    249   2   0.50000     0.0550000    0.0600000   2.494471e-04  1.671101e-07
    238    241   2   0.50000     0.0600000   -0.1150000   2.680627e-04  1.873879e-07
    238    248   2   0.50000     0.0600000   -0.1200000   2.494471e-04  1.671101e-07
    238    249   2   0.50000     0.0600000    0.0600000   6.128906e-05  1.496315e-08
    239    241   2   0.50000     0.0600000   -0.1150000   2.680627e-04  1.873879e-07
    239    248   2   0.50000     0.0600000   -0.1200000   2.494471e-04  1.671101e-07
    239    249   2   0.50000     0.0600000    0.0600000   6.128906e-05  1.496315e-08
    231    242   2   0.50000    -0.1200000   -0.1150000   1.091018e-03  2.092768e-06
    231    247   2   0.50000    -0.1200000   -0.1150000   1.091018e-03  2.092768e-06
    248    242   2   0.50000    -0.1200000   -0.1150000   1.091018e-03  2.092768e-06
    248    247   2   0.50000    -0.1200000   -0.1150000   1.091018e-03  2.092768e-06
    249    242   2   0.50000     0.0600000   -0.1150000   2.680627e-04  1.873879e-07
    249    247   2   0.50000     0.0600000   -0.1150000   2.680627e-04  1.873879e-07
    231    255   2   0.50000    -0.1200000    0.0600000   2.494471e-04  1.671101e-07
    231    256   2   0.50000    -0.1200000    0.0600000   2.494471e-04  1.671101e-07
    231    257   2   0.50000    -0.1200000    0.0550000   1.015252e-03  1.866303e-06
    241    255   2   0.50000    -0.1150000    0.0600000   2.680627e-04  1.873879e-07
    241    256   2   0.50000    -0.1150000    0.0600000   2.680627e-04  1.873879e-07
    241    257   2   0.50000    -0.1150000    0.0550000   1.091018e-03  2.092768e-06
    249    255   2   0.50000     0.0600000    0.0600000   6.128906e-05  1.496315e-08
    249    256   2   0.50000     0.0600000    0.0600000   6.128906e-05  1.496315e-08
    249    257   2   0.50000     0.0600000    0.0550000   2.494471e-04  1.671101e-07
    240    243   2   0.50000     0.0550000   -0.1150000   1.091018e-03  2.092768e-06
    240    250   2   0.50000     0.0550000    0.1150000   2.262583e-04  1.374848e-07
    247    243   2   0.50000    -0.1150000   -0.1150000   1.172438e-03  2.346713e-06
    247    250   2   0.50000    -0.1150000    0.1150000   2.431434e-04  1.541678e-07
    240    246   2   0.50000     0.0550000   -0.1150000   1.091018e-03  2.092768e-06
    240    254   2   0.50000     0.0550000    0.1150000   2.262583e-04  1.374848e-07
    242    246   2   0.50000    -0.1150000   -0.1150000   1.172438e-03  2.346713e-06
    242    254   2   0.50000    -0.1150000    0.1150000   2.431434e-04  1.541678e-07
    241    244   2   0.50000    -0.1150000    0.1500000   1.172438e-03  2.346713e-06
    241    251   2   0.50000    -0.1150000    0.1150000   2.431434e-04  1.541678e-07
    250    244   2   0.50000     0.1150000    0.1500000   2.431434e-04  1.541678e-07
    250    251   2   0.50000     0.1150000    0.1150000   5.042375e-05  1.012808e-08
    242    245   2   0.50000    -0.1150000   -0.5850000   1.181668e-03  1.529662e-06
    251    245   2   0.50000     0.1150000   -0.5850000   2.450575e-04  1.004915e-07
    251    246   2   0.50000     0.1150000   -0.1150000   2.431434e-04  1.541678e-07
    243    252   2   0.50000    -0.1150000    0.4350000   2.144502e-06  1.199282e-11
    246    252   2   0.50000    -0.1150000    0.4350000   2.144502e-06  1.199282e-11
    243    253   2   0.50000    -0.1150000    0.1150000   2.431434e-04  1.541678e-07
    245    247   2   0.50000    -0.5850000   -0.1150000   1.181668e-03  1.529662e-06
    245    253   2   0.50000    -0.5850000    0.1150000   2.450575e-04  1.004915e-07
    244    254   2   0.50000     0.1500000    0.1150000   2.431434e-04  1.541678e-07
    253    241   2   0.50000     0.1150000   -0.1150000   2.431434e-04  1.541678e-07
    253    254   2   0.50000     0.1150000    0.1150000   5.042375e-05  1.012808e-08
    240    258   2   0.50000     0.0550000   -0.1150000   1.091018e-03  2.092768e-06
    240    265   2   0.50000     0.0550000   -0.1200000   1.015252e-03  1.866303e-06
    240    266   2   0.50000     0.0550000    0.0600000   2.494471e-04  1.671101e-07
    255    258   2   0.50000     0.0600000   -0.1150000   2.680627e-04  1.873879e-07
    255    265   2   0.50000     0.0600000   -0.1200000   2.494471e-04  1.671101e-07
    255    266   2   0.50000     0.0600000    0.0600000   6.128906e-05  1.496315e-08
    256    258   2   0.50000     0.0600000   -0.1150000   2.680627e-04  1.873879e-07
    256    265   2   0.50000     0.0600000   -0.1200000   2.494471e-04  1.671101e-07
    256    266   2   0.50000     0.0600000    0.0600000   6.128906e-05  1.496315e-08
    248    259   2   0.50000    -0.1200000   -0.1150000   1.091018e-03  2.092768e-06
    248    264   2   0.50000    -0.1200000   -0.1150000   1.091018e-03  2.092768e-06
    265    259   2   0.50000    -0.1200000   -0.1150000   1.091018e-03  2.092768e-06
    265    264   2   0.50000    -0.1200000   -0.1150000   1.091018e-03  2.092768e-06
    266    259   2   0.50000     0.0600000   -0.1150000   2.680627e-04  1.873879e-07
    266    264   2   0.50000     0.0600000   -0.1150000   2.680627e-04  1.873879e-07
    248    272   2   0.50000    -0.1200000    0.0600000   2.494471e-04  1.671101e-07
    248    273   2   0.50000    -0.1200000    0.0600000   2.494471e-04  1.671101e-07
    248    274   2   0.50000    -0.1200000    0.0550000   1.015252e-03  1.866303e-06
    258    272   2   0.50000    -0.1150000    0.0600000   2.680627e-04  1.873879e-07
    258    273   2   0.50000    -0.1150000    0.0600000   2.680627e-04  1.873879e-07
    258    274   2   0.50000    -0.1150000    0.0550000   1.091018e-03  2.092768e-06
    266    272   2   0.50000     0.0600000    0.0600000   6.128906e-05  1.496315e-08
    266    273   2   0.50000     0.0600000    0.0600000   6.128906e-05  1.496315e-08
    266    274   2   0.50000     0.0600000    0.0550000   2.494471e-04  1.671101e-07
    257    260   2   0.50000     0.0550000   -0.1150000   1.091018e-03  2.092768e-06
    257    267   2   0.50000     0.0550000    0.1150000   2.262583e-04  1.374848e-07
    264    260   2   0.50000    -0.1150000   -0.1150000   1.172438e-03  2.346713e-06
    264    267   2   0.50000    -0.1150000    0.1150000   2.431434e-04  1.541678e-07
    257    263   2   0.50000     0.0550000   -0.1150000   1.091018e-03  2.092768e-06
    257    271   2   0.50000     0.0550000    0.1150000   2.262583e-04  1.374848e-07
    259    263   2   0.50000    -0.1150000   -0.1150000   1.172438e-03  2.346713e-06
    259    271   2   0.50000    -0.1150000    0.1150000   2.431434e-04  1.541678e-07
    258    261   2   0.50000    -0.1150000    0.1500000   1.172438e-03  2.346713e-06
    258    268   2   0.50000    -0.1150000    0.1150000   2.431434e-04  1.541678e-07
    267    261   2   0.50000     0.1150000    0.1500000   2.431434e-04  1.541678e-07
    267    268   2   0.50000     0.1150000    0.1150000   5.042375e-05  1.012808e-08
    259    262   2   0.50000    -0.1150000   -0.5850000   1.181668e-03  1.529662e-06
    268    262   2   0.50000     0.1150000   -0.5850000   2.450575e-04  1.004915e-07
    268    263   2   0.50000     0.1150000   -0.1150000   2.431434e-04  1.541678e-07
    260    269   2   0.50000    -0.1150000    0.4350000   2.144502e-06  1.199282e-11
    263    269   2   0.50000    -0.1150000    0.4350000   2.144502e-06  1.199282e-11
    260    270   2   0.50000    -0.1150000    0.1150000   2.431434e-04  1.541678e-07
    262    264   2   0.50000    -0.5850000   -0.1150000   1.181668e-03  1.529662e-06
    262    270   2   0.50000    -0.5850000    0.1150000   2.450575e-04  1.004915e-07
    261    271   2   0.50000     0.1500000    0.1150000   2.431434e-04  1.541678e-07
    270    258   2   0.50000     0.1150000   -0.1150000   2.431434e-04  1.541678e-07
    270    271   2   0.50000     0.1150000    0.1150000   5.042375e-05  1.012808e-08
    257    275   2   0.50000     0.0550000   -0.1150000   1.091018e-03  2.092768e-06
    257    282   2   0.50000     0.0550000   -0.1200000   1.015252e-03  1.866303e-06
    257    283   2   0.50000     0.0550000    0.0600000   2.494471e-04  1.671101e-07
    272    275   2   0.50000     0.0600000   -0.1150000   2.680627e-04  1.873879e-07
    272    282   2   0.50000     0.0600000   -0.1200000   2.494471e-04  1.671101e-07
    272    283   2   0.50000     0.0600000    0.0600000   6.128906e-05  1.496315e-08
    273    275   2   0.50000     0.0600000   -0.1150000   2.680627e-04  1.873879e-07
    273    282   2   0.50000     0.0600000   -0.1200000   2.494471e-04  1.671101e-07
    273    283   2   0.50000     0.0600000    0.0600000   6.128906e-05  1.496315e-08
    265    276   2   0.50000    -0.1200000   -0.1150000   1.091018e-03  2.092768e-06
    265    281   2   0.50000    -0.1200000   -0.1150000   1.091018e-03  2.092768e-06
    282    276   2   0.50000    -0.1200000   -0.1150000   1.091018e-03  2.092768e-06
    282    281   2   0.50000    -0.1200000   -0.1150000   1.091018e-03  2.092768e-06
    283    276   2   0.50000     0.0600000   -0.1150000   2.680627e-04  1.873879e-07
    283    281   2   0.50000     0.0600000   -0.1150000   2.680627e-04  1.873879e-07
    265    289   2   0.50000    -0.1200000    0.0600000   2.494471e-04  1.671101e-07
    265    290   2   0.50000    -0.1200000    0.0600000   2.494471e-04  1.671101e-07
    265    291   2   0.50000    -0.1200000    0.0550000   1.015252e-03  1.866303e-06
    275    289   2   0.50000    -0.1150000    0.0600000   2.680627e-04  1.873879e-07
    275    290   2   0.50000    -0.1150000    0.0600000   2.680627e-04  1.873879e-07
    275    291   2   0.50000    -0.1150000    0.0550000   1.091018e-03  2.092768e-06
    283    289   2   0.50000     0.0600000    0.0600000   6.128906e-05  1.496315e-08
    283    290   2   0.50000     0.0600000    0.0600000   6.128906e-05  1.496315e-08
    283    291   2   0.50000     0.0600000    0.0550000   2.494471e-04  1.671101e-07
    274    277   2   0.50000     0.0550000   -0.1150000   1.091018e-03  2.092768e-06
    274    284   2   0.50000     0.0550000    0.1150000   2.262583e-04  1.374848e-07
    281    277   2   0.50000    -0.1150000   -0.1150000   1.172438e-03  2.346713e-06
    281    284   2   0.50000    -0.1150000    0.1150000   2.431434e-04  1.541678e-07
    274    280   2   0.50000     0.0550000   -0.1150000   1.091018e-03  2.092768e-06
    274    288   2   0.50000     0.0550000    0.1150000   2.262583e-04  1.374848e-07
    276    280   2   0.50000    -0.1150000   -0.1150000   1.172438e-03  2.346713e-06
    276    288   2   0.50000    -0.1150000    0.1150000   2.431434e-04  1.541678e-07
    275    278   2   0.50000    -0.1150000    0.1500000   1.172438e-03  2.346713e-06
    275    285   2   0.50000    -0.1150000    0.1150000   2.431434e-04  1.541678e-07
    284    278   2   0.50000     0.1150000    0.1500000   2.431434e-04  1.541678e-07
    284    285   2   0.50000     0.1150000    0.1150000   5.042375e-05  1.012808e-08
    276    279   2   0.50000    -0.1150000   -0.5850000   1.181668e-03  1.529662e-06
    285    279   2   0.50000     0.1150000   -0.5850000   2.450575e-04  1.004915e-07
    285    280   2   0.50000     0.1150000   -0.1150000   2.431434e-04  1.541678e-07
    277    286   2   0.50000    -0.1150000    0.4350000   2.144502e-06  1.199282e-11
    280    286   2   0.50000    -0.1150000    0.4350000   2.144502e-06  1.199282e-11
    277    287   2   0.50000    -0.1150000    0.1150000   2.431434e-04  1.541678e-07
    279    281   2   0.50000    -0.5850000   -0.1150000   1.181668e-03  1.529662e-06
    279    287   2   0.50000    -0.5850000    0.1150000   2.450575e-04  1.004915e-07
    278    288   2   0.50000     0.1500000    0.1150000   2.431434e-04  1.541678e-07
    287    275   2   0.50000     0.1150000   -0.1150000   2.431434e-04  1.541678e-07
    287    288   2   0.50000     0.1150000    0.1150000   5.042375e-05  1.012808e-08
    274    292   2   0.50000     0.0550000   -0.1150000   1.091018e-03  2.092768e-06
    274    299   2   0.50000     0.0550000   -0.1200000   1.015252e-03  1.866303e-06
    274    300   2   0.50000     0.0550000    0.0600000   2.494471e-04  1.671101e-07
    289    292   2   0.50000     0.0600000   -0.1150000   2.680627e-04  1.873879e-07
    289    299   2   0.50000     0.0600000   -0.1200000   2.494471e-04  1.671101e-07
    289    300   2   0.50000     0.0600000    0.0600000   6.128906e-05  1.496315e-08
    290    292   2   0.50000     0.0600000   -0.1150000   2.680627e-04  1.873879e-07
    290    299   2   0.50000     0.0600000   -0.1200000   2.494471e-04  1.671101e-07
    290    300   2   0.50000     0.0600000    0.0600000   6.128906e-05  1.496315e-08
    282    293   2   0.50000    -0.1200000   -0.1150000   1.091018e-03  2.092768e-06
    282    298   2   0.50000    -0.1200000   -0.1150000   1.091018e-03  2.092768e-06
    299    293   2   0.50000    -0.1200000   -0.1150000   1.091018e-03  2.092768e-06
    299    298   2   0.50000    -0.1200000   -0.1150000   1.091018e-03  2.092768e-06
    300    293   2   0.50000     0.0600000   -0.1150000   2.680627e-04  1.873879e-07
    300    298   2   0.50000     0.0600000   -0.1150000   2.680627e-04  1.873879e-07
    282    306   2   0.50000    -0.1200000    0.0600000   2.494471e-04  1.671101e-07
    282    307   2   0.50000    -0.1200000    0.0600000   2.494471e-04  1.671101e-07
    282    308   2   0.50000    -0.1200000    0.0550000   1.015252e-03  1.866303e-06
    292    306   2   0.50000    -0.1150000    0.0600000   2.680627e-04  1.873879e-07
    292    307   2   0.50000    -0.1150000    0.0600000   2.680627e-04  1.873879e-07
    292    308   2   0.50000    -0.1150000    0.0550000   1.091018e-03  2.092768e-06
    300    306   2   0.50000     0.0600000    0.0600000   6.128906e-05  1.496315e-08
    300    307   2   0.50000     0.0600000    0.0600000   6.128906e-05  1.496315e-08
    300    308   2   0.50000     0.0600000    0.0550000   2.494471e-04  1.671101e-07
    291    294   2   0.50000     0.0550000   -0.1150000   1.091018e-03  2.092768e-06
    291    301   2   0.50000     0.0550000    0.1150000   2.262583e-04  1.374848e-07
    298    294   2   0.50000    -0.1150000   -0.1150000   1.172438e-03  2.346713e-06
    298    301   2   0.50000    -0.1150000    0.1150000   2.431434e-04  1.541678e-07
    291    297   2   0.50000     0.0550000   -0.1150000   1.091018e-03  2.092768e-06
    291    305   2   0.50000     0.0550000    0.1150000   2.262583e-04  1.374848e-07
    293    297   2   0.50000    -0.1150000   -0.1150000   1.172438e-03  2.346713e-06
    293    305   2   0.50000    -0.1150000    0.1150000   2.431434e-04  1.541678e-07
    292    295   2   0.50000    -0.1150000    0.1500000   1.172438e-03  2.346713e-06
    292    302   2   0.50000    -0.1150000    0.1150000   2.431434e-04  1.541678e-07
    301    295   2   0.50000     0.1150000    0.1500000   2.431434e-04  1.541678e-07
    301    302   2   0.50000     0.1150000    0.1150000   5.042375e-05  1.012808e-08
    293    296   2   0.50000    -0.1150000   -0.5850000   1.181668e-03  1.529662e-06
    302    296   2   0.50000     0.1150000   -0.5850000   2.450575e-04  1.004915e-07
    302    297   2   0.50000     0.1150000   -0.1150000   2.431434e-04  1.541678e-07
    294    303   2   0.50000    -0.1150000    0.4350000   2.144502e-06  1.199282e-11
    297    303   2   0.50000    -0.1150000    0.4350000   2.144502e-06  1.199282e-11
    294    304   2   0.50000    -0.1150000    0.1150000   2.431434e-04  1.541678e-07
    296    298   2   0.50000    -0.5850000   -0.1150000   1.181668e-03  1.529662e-06
    296    304   2   0.50000    -0.5850000    0.1150000   2.450575e-04  1.004915e-07
    295    305   2   0.50000     0.1500000    0.1150000   2.431434e-04  1.541678e-07
    304    292   2   0.50000     0.1150000   -0.1150000   2.431434e-04  1.541678e-07
    304    305   2   0.50000     0.1150000    0.1150000   5.042375e-05  1.012808e-08
    291    309   2   0.50000     0.0550000   -0.1150000   1.091018e-03  2.092768e-06
    291    316   2   0.50000     0.0550000   -0.1200000   1.015252e-03  1.866303e-06
    291    317   2   0.50000     0.0550000    0.0600000   2.494471e-04  1.671101e-07
    306    309   2   0.50000     0.0600000   -0.1150000   2.680627e-04  1.873879e-07
    306    316   2   0.50000     0.0600000   -0.1200000   2.494471e-04  1.671101e-07
    306    317   2   0.50000     0.0600000    0.0600000   6.128906e-05  1.496315e-08
    307    309   2   0.50000     0.0600000   -0.1150000   2.680627e-04  1.873879e-07
    307    316   2   0.50000     0.0600000   -0.1200000   2.494471e-04  1.671101e-07
    307    317   2   0.50000     0.0600000    0.0600000   6.128906e-05  1.496315e-08
    299    310   2   0.50000    -0.1200000   -0.1150000   1.091018e-03  2.092768e-06
    299    315   2   0.50000    -0.1200000   -0.1150000   1.091018e-03  2.092768e-06
    316    310   2   0.50000    -0.1200000   -0.1150000   1.091018e-03  2.092768e-06
    316    315   2   0.50000    -0.1200000   -0.1150000   1.091018e-03  2.092768e-06
    317    310   2   0.50000     0.0600000   -0.1150000   2.680627e-04  1.873879e-07
    317    315   2   0.50000     0.0600000   -0.1150000   2.680627e-04  1.873879e-07
    299    323   2   0.50000    -0.1200000    0.0600000   2.494471e-04  1.671101e-07
    299    324   2   0.50000    -0.1200000    0.0600000   2.494471e-04  1.671101e-07
    299    325   2   0.50000    -0.1200000    0.0550000   1.015252e-03  1.866303e-06
    309    323   2   0.50000    -0.1150000    0.0600000   2.680627e-04  1.873879e-07
    309    324   2   0.50000    -0.1150000    0.0600000   2.680627e-04  1.873879e-07
    309    325   2   0.50000    -0.1150000    0.0550000   1.091018e-03  2.092768e-06
    317    323   2   0.50000     0.0600000    0.0600000   6.128906e-05  1.496315e-08
    317    324   2   0.50000     0.0600000    0.0600000   6.128906e-05  1.496315e-08
    317    325   2   0.50000     0.0600000    0.0550000   2.494471e-04  1.671101e-07
    308    311   2   0.50000     0.0550000   -0.1150000   1.091018e-03  2.092768e-06
    308    318   2   0.50000     0.0550000    0.1150000   2.262583e-04  1.374848e-07
    315    311   2   0.50000    -0.1150000   -0.1150000   1.172438e-03  2.346713e-06
    315    318   2   0.50000    -0.1150000    0.1150000   2.431434e-04  1.541678e-07
    308    314   2   0.50000     0.0550000   -0.1150000   1.091018e-03  2.092768e-06
    308    322   2   0.50000     0.0550000    0.1150000   2.262583e-04  1.374848e-07
    310    314   2   0.50000    -0.1150000   -0.1150000   1.172438e-03  2.346713e-06
    310    322   2   0.50000    -0.1150000    0.1150000   2.431434e-04  1.541678e-07
    309    312   2   0.50000    -0.1150000    0.1500000   1.172438e-03  2.346713e-06
    309    319   2   0.50000    -0.1150000    0.1150000   2.431434e-04  1.541678e-07
    318    312   2   0.50000     0.1150000    0.1500000   2.431434e-04  1.541678e-07
    318    319   2   0.50000     0.1150000    0.1150000   5.042375e-05  1.012808e-08
    310    313   2   0.50000    -0.1150000   -0.5850000   1.181668e-03  1.529662e-06
    319    313   2   0.50000     0.1150000   -0.5850000   2.450575e-04  1.004915e-07
    319    314   2   0.50000     0.1150000   -0.1150000   2.431434e-04  1.541678e-07
    311    320   2   0.50000    -0.1150000    0.4350000   2.144502e-06  1.199282e-11
    314    320   2   0.50000    -0.1150000    0.4350000   2.144502e-06  1.199282e-11
    311    321   2   0.50000    -0.1150000    0.1150000   2.431434e-04  1.541678e-07
    313    315   2   0.50000    -0.5850000   -0.1150000   1.181668e-03  1.529662e-06
    313    321   2   0.50000    -0.5850000    0.1150000   2.450575e-04  1.004915e-07
    312    322   2   0.50000     0.1500000    0.1150000   2.431434e-04  1.541678e-07
    321    309   2   0.50000     0.1150000   -0.1150000   2.431434e-04  1.541678e-07
    321    322   2   0.50000     0.1150000    0.1150000   5.042375e-05  1.012808e-08
    308    326   2   0.50000     0.0550000   -0.1150000   1.091018e-03  2.092768e-06
    308    333   2   0.50000     0.0550000   -0.1800000   1.015252e-03  1.866303e-06
    308    334   2   0.50000     0.0550000    0.0600000   2.494471e-04  1.671101e-07
    323    326   2   0.50000     0.0600000   -0.1150000   2.680627e-04  1.873879e-07
    323    333   2   0.50000     0.0600000   -0.1800000   2.494471e-04  1.671101e-07
    323    334   2   0.50000     0.0600000    0.0600000   6.128906e-05  1.496315e-08
    324    326   2   0.50000     0.0600000   -0.1150000   2.680627e-04  1.873879e-07
    324    333   2   0.50000     0.0600000   -0.1800000   2.494471e-04  1.671101e-07
    324    334   2   0.50000     0.0600000    0.0600000   6.128906e-05  1.496315e-08
    316    327   2   0.50000    -0.1200000   -0.1150000   1.091018e-03  2.092768e-06
    316    332   2   0.50000    -0.1200000   -0.1150000   1.091018e-03  2.092768e-06
    333    327   2   0.50000    -0.1800000   -0.1150000   1.091018e-03  2.092768e-06
    333    332   2   0.50000    -0.1800000   -0.1150000   1.091018e-03  2.092768e-06
    334    327   2   0.50000     0.0600000   -0.1150000   2.680627e-04  1.873879e-07
    334    332   2   0.50000     0.0600000   -0.1150000   2.680627e-04  1.873879e-07
    316    340   2   0.50000    -0.1200000    0.0600000   2.494471e-04  1.671101e-07
    316    341   2   0.50000    -0.1200000    0.0600000   2.494471e-04  1.671101e-07
    316    342   2   0.50000    -0.1200000    0.0600000   2.494471e-04  1.671101e-07
    326    340   2   0.50000    -0.1150000    0.0600000   2.680627e-04  1.873879e-07
    326    341   2   0.50000    -0.1150000    0.0600000   2.680627e-04  1.873879e-07
    326    342   2   0.50000    -0.1150000    0.0600000   2.680627e-04  1.873879e-07
    334    340   2   0.50000     0.0600000    0.0600000   6.128906e-05  1.496315e-08
    334    341   2   0.50000     0.0600000    0.0600000   6.128906e-05  1.496315e-08
    334    342   2   0.50000     0.0600000    0.0600000   6.128906e-05  1.496315e-08
    325    328   2   0.50000     0.0550000   -0.1150000   1.091018e-03  2.092768e-06
    325    335   2   0.50000     0.0550000    0.1150000   2.262583e-04  1.374848e-07
    332    328   2   0.50000    -0.1150000   -0.1150000   1.172438e-03  2.346713e-06
    332    335   2   0.50000    -0.1150000    0.1150000   2.431434e-04  1.541678e-07
    325    331   2   0.50000     0.0550000   -0.1150000   1.091018e-03  2.092768e-06
    325    339   2   0.50000     0.0550000    0.1150000   2.262583e-04  1.374848e-07
    327    331   2   0.50000    -0.1150000   -0.1150000   1.172438e-03  2.346713e-06
    327    339   2   0.50000    -0.1150000    0.1150000   2.431434e-04  1.541678e-07
    326    329   2   0.50000    -0.1150000    0.1500000   1.172438e-03  2.346713e-06
    326    336   2   0.50000    -0.1150000    0.1150000   2.431434e-04  1.541678e-07
    335    329   2   0.50000     0.1150000    0.1500000   2.431434e-04  1.541678e-07
    335    336   2   0.50000     0.1150000    0.1150000   5.042375e-05  1.012808e-08
    327    330   2   0.50000    -0.1150000   -0.5850000   1.181668e-03  1.529662e-06
    336    330   2   0.50000     0.1150000   -0.5850000   2.450575e-04  1.004915e-07
    336    331   2   0.50000     0.1150000   -0.1150000   2.431434e-04  1.541678e-07
    328    337   2   0.50000    -0.1150000    0.4350000   2.144502e-06  1.199282e-11
    331    337   2   0.50000    -0.1150000    0.4350000   2.144502e-06  1.199282e-11
    328    338   2   0.50000    -0.1150000    0.1150000   2.431434e-04  1.541678e-07
    330    332   2   0.50000    -0.5850000   -0.1150000   1.181668e-03  1.529662e-06
    330    338   2   0.50000    -0.5850000    0.1150000   2.450575e-04  1.004915e-07
    329    339   2   0.50000     0.1500000    0.1150000   2.431434e-04  1.541678e-07
    338    326   2   0.50000     0.1150000   -0.1150000   2.431434e-04  1.541678e-07
    338    339   2   0.50000     0.1150000    0.1150000   5.042375e-05  1.012808e-08

[ angles ]
; ai  aj  ak
      2      1      9   1    112.1750    585.7600
      2      1     10   1    109.5000    292.8800
      2      1     18   1    109.5000    292.8800
      9      1     10   1    110.7000    313.8000
      9      1     18   1    110.7000    313.8000
     10      1     18   1    107.8000    276.1440
      1      2      3   1    120.0000    585.7600
      1      2      8   1    120.0000    585.7600
      3      2      8   1    120.0000    527.1840
      2      3      4   1    120.0000    527.1840
      2      3     11   1    120.0000    292.8800
      4      3     11   1    120.0000    292.8800
      3      4      5   1    120.0000    527.1840
      3      4     12   1    120.0000    292.8800
      5      4     12   1    120.0000    292.8800
      4      5      6   1    120.0000    585.7600
      4      5      7   1    120.0000    527.1840
      6      5      7   1    120.0000    585.7600
      5      6     13   1    113.0000    292.8800
      5      7      8   1    120.0000    527.1840
      5      7     14   1    120.0000    292.8800
      8      7     14   1    120.0000    292.8800
      2      8      7   1    120.0000    527.1840
      2      8     15   1    120.0000    292.8800
      7      8     15   1    120.0000    292.8800
      1      9     16   1    110.7000    313.8000
      1      9     17   1    110.7000    313.8000
      1      9     19   1    112.7000    488.2728
     16      9     17   1    107.8000    276.1440
     16      9     19   1    110.7000    313.8000
     17      9     19   1    110.7000    313.8000
      9     19     20   1    112.1750    585.7600
      9     19     27   1    112.7000    488.2728
      9     19     28   1    110.7000    313.8000
     20     19     27   1    112.1750    585.7600
     20     19     28   1    109.5000    292.8800
     27     19     28   1    110.7000    313.8000
     19     20     21   1    120.0000    585.7600
     19     20     26   1    120.0000    585.7600
     21     20     26   1    120.0000    527.1840
     20     21     22   1    120.0000    527.1840
     20     21     29   1    120.0000    292.8800
     22     21     29   1    120.0000    292.8800
     21     22     23   1    120.0000    527.1840
     21     22     30   1    120.0000    292.8800
     23     22     30   1    120.0000    292.8800
     22     23     24   1    120.0000    585.7600
     22     23     25   1    120.0000    527.1840
     24     23     25   1    120.0000    585.7600
     23     24     31   1    113.0000    292.8800
     23     25     26   1    120.0000    527.1840
     23     25     32   1    120.0000    292.8800
     26     25     32   1    120.0000    292.8800
     20     26     25   1    120.0000    527.1840
     20     26     33   1    120.0000    292.8800
     25     26     33   1    120.0000    292.8800
     19     27     34   1    110.7000    313.8000
     19     27     35   1    110.7000    313.8000
     19     27     36   1    112.7000    488.2728
     34     27     35   1    107.8000    276.1440
     34     27     36   1    110.7000    313.8000
     35     27     36   1    110.7000    313.8000
     27     36     37   1    112.1750    585.7600
     27     36     44   1    112.7000    488.2728
     27     36     45   1    110.7000    313.8000
     37     36     44   1    112.1750    585.7600
     37     36     45   1    109.5000    292.8800
     44     36     45   1    110.7000    313.8000
     36     37     38   1    120.0000    585.7600
     36     37     43   1    120.0000    585.7600
     38     37     43   1    120.0000    527.1840
     37     38     39   1    120.0000    527.1840
     37     38     46   1    120.0000    292.8800
     39     38     46   1    120.0000    292.8800
     38     39     40   1    120.0000    527.1840
     38     39     47   1    120.0000    292.8800
     40     39     47   1    120.0000    292.8800
     39     40     41   1    120.0000    585.7600
     39     40     42   1    120.0000    527.1840
     41     40     42   1    120.0000    585.7600
     40     41     48   1    113.0000    292.8800
     40     42     43   1    120.0000    527.1840
     40     42     49   1    120.0000    292.8800
     43     42     49   1    120.0000    292.8800
     37     43     42   1    120.0000    527.1840
     37     43     50   1    120.0000    292.8800
     42     43     50   1    120.0000    292.8800
     36     44     51   1    110.7000    313.8000
     36     44     52   1    110.7000    313.8000
     36     44     53   1    112.7000    488.2728
     51     44     52   1    107.8000    276.1440
     51     44     53   1    110.7000    313.8000
     52     44     53   1    110.7000    313.8000
     44     53     54   1    112.1750    585.7600
     44     53     61   1    112.7000    488.2728
     44     53     62   1    110.7000    313.8000
     54     53     61   1    112.1750    585.7600
     54     53     62   1    109.5000    292.8800
     61     53     62   1    110.7000    313.8000
     53     54     55   1    120.0000    585.7600
     53     54     60   1    120.0000    585.7600
     55     54     60   1    120.0000    527.1840
     54     55     56   1    120.0000    527.1840
     54     55     63   1    120.0000    292.8800
     56     55     63   1    120.0000    292.8800
     55     56     57   1    120.0000    527.1840
     55     56     64   1    120.0000    292.8800
     57     56     64   1    120.0000    292.8800
     56     57     58   1    120.0000    585.7600
     56     57     59   1    120.0000    527.1840
     58     57     59   1    120.0000    585.7600
     57     58     65   1    113.0000    292.8800
     57     59     60   1    120.0000    527.1840
     57     59     66   1    120.0000    292.8800
     60     59     66   1    120.0000    292.8800
     54     60     59   1    120.0000    527.1840
     54     60     67   1    120.0000    292.8800
     59     60     67   1    120.0000    292.8800
     53     61     68   1    110.7000    313.8000
     53     61     69   1    110.7000    313.8000
     53     61     70   1    112.7000    488.2728
     68     61     69   1    107.8000    276.1440
     68     61     70   1    110.7000    313.8000
     69     61     70   1    110.7000    313.8000
     61     70     71   1    112.1750    585.7600
     61     70     78   1    112.7000    488.2728
     61     70     79   1    110.7000    313.8000
     71     70     78   1    112.1750    585.7600
     71     70     79   1    109.5000    292.8800
     78     70     79   1    110.7000    313.8000
     70     71     72   1    120.0000    585.7600
     70     71     77   1    120.0000    585.7600
     72     71     77   1    120.0000    527.1840
     71     72     73   1    120.0000    527.1840
     71     72     80   1    120.0000    292.8800
     73     72     80   1    120.0000    292.8800
     72     73     74   1    120.0000    527.1840
     72     73     81   1    120.0000    292.8800
     74     73     81   1    120.0000    292.8800
     73     74     75   1    120.0000    585.7600
     73     74     76   1    120.0000    527.1840
     75     74     76   1    120.0000    585.7600
     74     75     82   1    113.0000    292.8800
     74     76     77   1    120.0000    527.1840
     74     76     83   1    120.0000    292.8800
     77     76     83   1    120.0000    292.8800
     71     77     76   1    120.0000    527.1840
     71     77     84   1    120.0000    292.8800
     76     77     84   1    120.0000    292.8800
     70     78     85   1    110.7000    313.8000
     70     78     86   1    110.7000    313.8000
     70     78     87   1    112.7000    488.2728
     85     78     86   1    107.8000    276.1440
     85     78     87   1    110.7000    313.8000
     86     78     87   1    110.7000    313.8000
     78     87     88   1    112.1750    585.7600
     78     87     95   1    112.7000    488.2728
     78     87     96   1    110.7000    313.8000
     88     87     95   1    112.1750    585.7600
     88     87     96   1    109.5000    292.8800
     95     87     96   1    110.7000    313.8000
     87     88     89   1    120.0000    585.7600
     87     88     94   1    120.0000    585.7600
     89     88     94   1    120.0000    527.1840
     88     89     90   1    120.0000    527.1840
     88     89     97   1    120.0000    292.8800
     90     89     97   1    120.0000    292.8800
     89     90     91   1    120.0000    527.1840
     89     90     98   1    120.0000    292.8800
     91     90     98   1    120.0000    292.8800
     90     91     92   1    120.0000    585.7600
     90     91     93   1    120.0000    527.1840
     92     91     93   1    120.0000    585.7600
     91     92     99   1    113.0000    292.8800
     91     93     94   1    120.0000    527.1840
     91     93    100   1    120.0000    292.8800
     94     93    100   1    120.0000    292.8800
     88     94     93   1    120.0000    527.1840
     88     94    101   1    120.0000    292.8800
     93     94    101   1    120.0000    292.8800
     87     95    102   1    110.7000    313.8000
     87     95    103   1    110.7000    313.8000
     87     95    104   1    112.7000    488.2728
    102     95    103   1    107.8000    276.1440
    102     95    104   1    110.7000    313.8000
    103     95    104   1    110.7000    313.8000
     95    104    105   1    112.1750    585.7600
     95    104    112   1    112.7000    488.2728
     95    104    113   1    110.7000    313.8000
    105    104    112   1    112.1750    585.7600
    105    104    113   1    109.5000    292.8800
    112    104    113   1    110.7000    313.8000
    104    105    106   1    120.0000    585.7600
    104    105    111   1    120.0000    585.7600
    106    105    111   1    120.0000    527.1840
    105    106    107   1    120.0000    527.1840
    105    106    114   1    120.0000    292.8800
    107    106    114   1    120.0000    292.8800
    106    107    108   1    120.0000    527.1840
    106    107    115   1    120.0000    292.8800
    108    107    115   1    120.0000    292.8800
    107    108    109   1    120.0000    585.7600
    107    108    110   1    120.0000    527.1840
    109    108    110   1    120.0000    585.7600
    108    109    116   1    113.0000    292.8800
    108    110    111   1    120.0000    527.1840
    108    110    117   1    120.0000    292.8800
    111    110    117   1    120.0000    292.8800
    105    111    110   1    120.0000    527.1840
    105    111    118   1    120.0000    292.8800
    110    111    118   1    120.0000    292.8800
    104    112    119   1    110.7000    313.8000
    104    112    120   1    110.7000    313.8000
    104    112    121   1    112.7000    488.2728
    119    112    120   1    107.8000    276.1440
    119    112    121   1    110.7000    313.8000
    120    112    121   1    110.7000    313.8000
    112    121    122   1    112.1750    585.7600
    112    121    129   1    112.7000    488.2728
    112    121    130   1    110.7000    313.8000
    122    121    129   1    112.1750    585.7600
    122    121    130   1    109.5000    292.8800
    129    121    130   1    110.7000    313.8000
    121    122    123   1    120.0000    585.7600
    121    122    128   1    120.0000    585.7600
    123    122    128   1    120.0000    527.1840
    122    123    124   1    120.0000    527.1840
    122    123    131   1    120.0000    292.8800
    124    123    131   1    120.0000    292.8800
    123    124    125   1    120.0000    527.1840
    123    124    132   1    120.0000    292.8800
    125    124    132   1    120.0000    292.8800
    124    125    126   1    120.0000    585.7600
    124    125    127   1    120.0000    527.1840
    126    125    127   1    120.0000    585.7600
    125    126    133   1    113.0000    292.8800
    125    127    128   1    120.0000    527.1840
    125    127    134   1    120.0000    292.8800
    128    127    134   1    120.0000    292.8800
    122    128    127   1    120.0000    527.1840
    122    128    135   1    120.0000    292.8800
    127    128    135   1    120.0000    292.8800
    121    129    136   1    110.7000    313.8000
    121    129    137   1    110.7000    313.8000
    121    129    138   1    112.7000    488.2728
    136    129    137   1    107.8000    276.1440
    136    129    138   1    110.7000    313.8000
    137    129    138   1    110.7000    313.8000
    129    138    139   1    112.1750    585.7600
    129    138    146   1    112.7000    488.2728
    129    138    147   1    110.7000    313.8000
    139    138    146   1    112.1750    585.7600
    139    138    147   1    109.5000    292.8800
    146    138    147   1    110.7000    313.8000
    138    139    140   1    120.0000    585.7600
    138    139    145   1    120.0000    585.7600
    140    139    145   1    120.0000    527.1840
    139    140    141   1    120.0000    527.1840
    139    140    148   1    120.0000    292.8800
    141    140    148   1    120.0000    292.8800
    140    141    142   1    120.0000    527.1840
    140    141    149   1    120.0000    292.8800
    142    141    149   1    120.0000    292.8800
    141    142    143   1    120.0000    585.7600
    141    142    144   1    120.0000    527.1840
    143    142    144   1    120.0000    585.7600
    142    143    150   1    113.0000    292.8800
    142    144    145   1    120.0000    527.1840
    142    144    151   1    120.0000    292.8800
    145    144    151   1    120.0000    292.8800
    139    145    144   1    120.0000    527.1840
    139    145    152   1    120.0000    292.8800
    144    145    152   1    120.0000    292.8800
    138    146    153   1    110.7000    313.8000
    138    146    154   1    110.7000    313.8000
    138    146    155   1    112.7000    488.2728
    153    146    154   1    107.8000    276.1440
    153    146    155   1    110.7000    313.8000
    154    146    155   1    110.7000    313.8000
    146    155    156   1    112.1750    585.7600
    146    155    163   1    112.7000    488.2728
    146    155    164   1    110.7000    313.8000
    156    155    163   1    112.1750    585.7600
    156    155    164   1    109.5000    292.8800
    163    155    164   1    110.7000    313.8000
    155    156    157   1    120.0000    585.7600
    155    156    162   1    120.0000    585.7600
    157    156    162   1    120.0000    527.1840
    156    157    158   1    120.0000    527.1840
    156    157    165   1    120.0000    292.8800
    158    157    165   1    120.0000    292.8800
    157    158    159   1    120.0000    527.1840
    157    158    166   1    120.0000    292.8800
    159    158    166   1    120.0000    292.8800
    158    159    160   1    120.0000    585.7600
    158    159    161   1    120.0000    527.1840
    160    159    161   1    120.0000    585.7600
    159    160    167   1    113.0000    292.8800
    159    161    162   1    120.0000    527.1840
    159    161    168   1    120.0000    292.8800
    162    161    168   1    120.0000    292.8800
    156    162    161   1    120.0000    527.1840
    156    162    169   1    120.0000    292.8800
    161    162    169   1    120.0000    292.8800
    155    163    170   1    110.7000    313.8000
    155    163    171   1    110.7000    313.8000
    155    163    172   1    112.7000    488.2728
    170    163    171   1    107.8000    276.1440
    170    163    172   1    110.7000    313.8000
    171    163    172   1    110.7000    313.8000
    163    172    173   1    112.1750    585.7600
    163    172    180   1    112.7000    488.2728
    163    172    181   1    110.7000    313.8000
    173    172    180   1    112.1750    585.7600
    173    172    181   1    109.5000    292.8800
    180    172    181   1    110.7000    313.8000
    172    173    174   1    120.0000    585.7600
    172    173    179   1    120.0000    585.7600
    174    173    179   1    120.0000    527.1840
    173    174    175   1    120.0000    527.1840
    173    174    182   1    120.0000    292.8800
    175    174    182   1    120.0000    292.8800
    174    175    176   1    120.0000    527.1840
    174    175    183   1    120.0000    292.8800
    176    175    183   1    120.0000    292.8800
    175    176    177   1    120.0000    585.7600
    175    176    178   1    120.0000    527.1840
    177    176    178   1    120.0000    585.7600
    176    177    184   1    113.0000    292.8800
    176    178    179   1    120.0000    527.1840
    176    178    185   1    120.0000    292.8800
    179    178    185   1    120.0000    292.8800
    173    179    178   1    120.0000    527.1840
    173    179    186   1    120.0000    292.8800
    178    179    186   1    120.0000    292.8800
    172    180    187   1    110.7000    313.8000
    172    180    188   1    110.7000    313.8000
    172    180    189   1    112.7000    488.2728
    187    180    188   1    107.8000    276.1440
    187    180    189   1    110.7000    313.8000
    188    180    189   1    110.7000    313.8000
    180    189    190   1    112.1750    585.7600
    180    189    197   1    112.7000    488.2728
    180    189    198   1    110.7000    313.8000
    190    189    197   1    112.1750    585.7600
    190    189    198   1    109.5000    292.8800
    197    189    198   1    110.7000    313.8000
    189    190    191   1    120.0000    585.7600
    189    190    196   1    120.0000    585.7600
    191    190    196   1    120.0000    527.1840
    190    191    192   1    120.0000    527.1840
    190    191    199   1    120.0000    292.8800
    192    191    199   1    120.0000    292.8800
    191    192    193   1    120.0000    527.1840
    191    192    200   1    120.0000    292.8800
    193    192    200   1    120.0000    292.8800
    192    193    194   1    120.0000    585.7600
    192    193    195   1    120.0000    527.1840
    194    193    195   1    120.0000    585.7600
    193    194    201   1    113.0000    292.8800
    193    195    196   1    120.0000    527.1840
    193    195    202   1    120.0000    292.8800
    196    195    202   1    120.0000    292.8800
    190    196    195   1    120.0000    527.1840
    190    196    203   1    120.0000    292.8800
    195    196    203   1    120.0000    292.8800
    189    197    204   1    110.7000    313.8000
    189    197    205   1    110.7000    313.8000
    189    197    206   1    112.7000    488.2728
    204    197    205   1    107.8000    276.1440
    204    197    206   1    110.7000    313.8000
    205    197    206   1    110.7000    313.8000
    197    206    207   1    112.1750    585.7600
    197    206    214   1    112.7000    488.2728
    197    206    215   1    110.7000    313.8000
    207    206    214   1    112.1750    585.7600
    207    206    215   1    109.5000    292.8800
    214    206    215   1    110.7000    313.8000
    206    207    208   1    120.0000    585.7600
    206    207    213   1    120.0000    585.7600
    208    207    213   1    120.0000    527.1840
    207    208    209   1    120.0000    527.1840
    207    208    216   1    120.0000    292.8800
    209    208    216   1    120.0000    292.8800
    208    209    210   1    120.0000    527.1840
    208    209    217   1    120.0000    292.8800
    210    209    217   1    120.0000    292.8800
    209    210    211   1    120.0000    585.7600
    209    210    212   1    120.0000    527.1840
    211    210    212   1    120.0000    585.7600
    210    211    218   1    113.0000    292.8800
    210    212    213   1    120.0000    527.1840
    210    212    219   1    120.0000    292.8800
    213    212    219   1    120.0000    292.8800
    207    213    212   1    120.0000    527.1840
    207    213    220   1    120.0000    292.8800
    212    213    220   1    120.0000    292.8800
    206    214    221   1    110.7000    313.8000
    206    214    222   1    110.7000    313.8000
    206    214    223   1    112.7000    488.2728
    221    214    222   1    107.8000    276.1440
    221    214    223   1    110.7000    313.8000
    222    214    223   1    110.7000    313.8000
    214    223    224   1    112.1750    585.7600
    214    223    231   1    112.7000    488.2728
    214    223    232   1    110.7000    313.8000
    224    223    231   1    112.1750    585.7600
    224    223    232   1    109.5000    292.8800
    231    223    232   1    110.7000    313.8000
    223    224    225   1    120.0000    585.7600
    223    224    230   1    120.0000    585.7600
    225    224    230   1    120.0000    527.1840
    224    225    226   1    120.0000    527.1840
    224    225    233   1    120.0000    292.8800
    226    225    233   1    120.0000    292.8800
    225    226    227   1    120.0000    527.1840
    225    226    234   1    120.0000    292.8800
    227    226    234   1    120.0000    292.8800
    226    227    228   1    120.0000    585.7600
    226    227    229   1    120.0000    527.1840
    228    227    229   1    120.0000    585.7600
    227    228    235   1    113.0000    292.8800
    227    229    230   1    120.0000    527.1840
    227    229    236   1    120.0000    292.8800
    230    229    236   1    120.0000    292.8800
    224    230    229   1    120.0000    527.1840
    224    230    237   1    120.0000    292.8800
    229    230    237   1    120.0000    292.8800
    223    231    238   1    110.7000    313.8000
    223    231    239   1    110.7000    313.8000
    223    231    240   1    112.7000    488.2728
    238    231    239   1    107.8000    276.1440
    238    231    240   1    110.7000    313.8000
    239    231    240   1    110.7000    313.8000
    231    240    241   1    112.1750    585.7600
    231    240    248   1    112.7000    488.2728
    231    240    249   1    110.7000    313.8000
    241    240    248   1    112.1750    585.7600
    241    240    249   1    109.5000    292.8800
    248    240    249   1    110.7000    313.8000
    240    241    242   1    120.0000    585.7600
    240    241    247   1    120.0000    585.7600
    242    241    247   1    120.0000    527.1840
    241    242    243   1    120.0000    527.1840
    241    242    250   1    120.0000    292.8800
    243    242    250   1    120.0000    292.8800
    242    243    244   1    120.0000    527.1840
    242    243    251   1    120.0000    292.8800
    244    243    251   1    120.0000    292.8800
    243    244    245   1    120.0000    585.7600
    243    244    246   1    120.0000    527.1840
    245    244    246   1    120.0000    585.7600
    244    245    252   1    113.0000    292.8800
    244    246    247   1    120.0000    527.1840
    244    246    253   1    120.0000    292.8800
    247    246    253   1    120.0000    292.8800
    241    247    246   1    120.0000    527.1840
    241    247    254   1    120.0000    292.8800
    246    247    254   1    120.0000    292.8800
    240    248    255   1    110.7000    313.8000
    240    248    256   1    110.7000    313.8000
    240    248    257   1    112.7000    488.2728
    255    248    256   1    107.8000    276.1440
    255    248    257   1    110.7000    313.8000
    256    248    257   1    110.7000    313.8000
    248    257    258   1    112.1750    585.7600
    248    257    265   1    112.7000    488.2728
    248    257    266   1    110.7000    313.8000
    258    257    265   1    112.1750    585.7600
    258    257    266   1    109.5000    292.8800
    265    257    266   1    110.7000    313.8000
    257    258    259   1    120.0000    585.7600
    257    258    264   1    120.0000    585.7600
    259    258    264   1    120.0000    527.1840
    258    259    260   1    120.0000    527.1840
    258    259    267   1    120.0000    292.8800
    260    259    267   1    120.0000    292.8800
    259    260    261   1    120.0000    527.1840
    259    260    268   1    120.0000    292.8800
    261    260    268   1    120.0000    292.8800
    260    261    262   1    120.0000    585.7600
    260    261    263   1    120.0000    527.1840
    262    261    263   1    120.0000    585.7600
    261    262    269   1    113.0000    292.8800
    261    263    264   1    120.0000    527.1840
    261    263    270   1    120.0000    292.8800
    264    263    270   1    120.0000    292.8800
    258    264    263   1    120.0000    527.1840
    258    264    271   1    120.0000    292.8800
    263    264    271   1    120.0000    292.8800
    257    265    272   1    110.7000    313.8000
    257    265    273   1    110.7000    313.8000
    257    265    274   1    112.7000    488.2728
    272    265    273   1    107.8000    276.1440
    272    265    274   1    110.7000    313.8000
    273    265    274   1    110.7000    313.8000
    265    274    275   1    112.1750    585.7600
    265    274    282   1    112.7000    488.2728
    265    274    283   1    110.7000    313.8000
    275    274    282   1    112.1750    585.7600
    275    274    283   1    109.5000    292.8800
    282    274    283   1    110.7000    313.8000
    274    275    276   1    120.0000    585.7600
    274    275    281   1    120.0000    585.7600
    276    275    281   1    120.0000    527.1840
    275    276    277   1    120.0000    527.1840
    275    276    284   1    120.0000    292.8800
    277    276    284   1    120.0000    292.8800
    276    277    278   1    120.0000    527.1840
    276    277    285   1    120.0000    292.8800
    278    277    285   1    120.0000    292.8800
    277    278    279   1    120.0000    585.7600
    277    278    280   1    120.0000    527.1840
    279    278    280   1    120.0000    585.7600
    278    279    286   1    113.0000    292.8800
    278    280    281   1    120.0000    527.1840
    278    280    287   1    120.0000    292.8800
    281    280    287   1    120.0000    292.8800
    275    281    280   1    120.0000    527.1840
    275    281    288   1    120.0000    292.8800
    280    281    288   1    120.0000    292.8800
    274    282    289   1    110.7000    313.8000
    274    282    290   1    110.7000    313.8000
    274    282    291   1    112.7000    488.2728
    289    282    290   1    107.8000    276.1440
    289    282    291   1    110.7000    313.8000
    290    282    291   1    110.7000    313.8000
    282    291    292   1    112.1750    585.7600
    282    291    299   1    112.7000    488.2728
    282    291    300   1    110.7000    313.8000
    292    291    299   1    112.1750    585.7600
    292    291    300   1    109.5000    292.8800
    299    291    300   1    110.7000    313.8000
    291    292    293   1    120.0000    585.7600
    291    292    298   1    120.0000    585.7600
    293    292    298   1    120.0000    527.1840
    292    293    294   1    120.0000    527.1840
    292    293    301   1    120.0000    292.8800
    294    293    301   1    120.0000    292.8800
    293    294    295   1    120.0000    527.1840
    293    294    302   1    120.0000    292.8800
    295    294    302   1    120.0000    292.8800
    294    295    296   1    120.0000    585.7600
    294    295    297   1    120.0000    527.1840
    296    295    297   1    120.0000    585.7600
    295    296    303   1    113.0000    292.8800
    295    297    298   1    120.0000    527.1840
    295    297    304   1    120.0000    292.8800
    298    297    304   1    120.0000    292.8800
    292    298    297   1    120.0000    527.1840
    292    298    305   1    120.0000    292.8800
    297    298    305   1    120.0000    292.8800
    291    299    306   1    110.7000    313.8000
    291    299    307   1    110.7000    313.8000
    291    299    308   1    112.7000    488.2728
    306    299    307   1    107.8000    276.1440
    306    299    308   1    110.7000    313.8000
    307    299    308   1    110.7000    313.8000
    299    308    309   1    112.1750    585.7600
    299    308    316   1    112.7000    488.2728
    299    308    317   1    110.7000    313.8000
    309    308    316   1    112.1750    585.7600
    309    308    317   1    109.5000    292.8800
    316    308    317   1    110.7000    313.8000
    308    309    310   1    120.0000    585.7600
    308    309    315   1    120.0000    585.7600
    310    309    315   1    120.0000    527.1840
    309    310    311   1    120.0000    527.1840
    309    310    318   1    120.0000    292.8800
    311    310    318   1    120.0000    292.8800
    310    311    312   1    120.0000    527.1840
    310    311    319   1    120.0000    292.8800
    312    311    319   1    120.0000    292.8800
    311    312    313   1    120.0000    585.7600
    311    312    314   1    120.0000    527.1840
    313    312    314   1    120.0000    585.7600
    312    313    320   1    113.0000    292.8800
    312    314    315   1    120.0000    527.1840
    312    314    321   1    120.0000    292.8800
    315    314    321   1    120.0000    292.8800
    309    315    314   1    120.0000    527.1840
    309    315    322   1    120.0000    292.8800
    314    315    322   1    120.0000    292.8800
    308    316    323   1    110.7000    313.8000
    308    316    324   1    110.7000    313.8000
    308    316    325   1    112.7000    488.2728
    323    316    324   1    107.8000    276.1440
    323    316    325   1    110.7000    313.8000
    324    316    325   1    110.7000    313.8000
    316    325    326   1    112.1750    585.7600
    316    325    333   1    112.7000    488.2728
    316    325    334   1    110.7000    313.8000
    326    325    333   1    112.1750    585.7600
    326    325    334   1    109.5000    292.8800
    333    325    334   1    110.7000    313.8000
    325    326    327   1    120.0000    585.7600
    325    326    332   1    120.0000    585.7600
    327    326    332   1    120.0000    527.1840
    326    327    328   1    120.0000    527.1840
    326    327    335   1    120.0000    292.8800
    328    327    335   1    120.0000    292.8800
    327    328    329   1    120.0000    527.1840
    327    328    336   1    120.0000    292.8800
    329    328    336   1    120.0000    292.8800
    328    329    330   1    120.0000    585.7600
    328    329    331   1    120.0000    527.1840
    330    329    331   1    120.0000    585.7600
    329    330    337   1    113.0000    292.8800
    329    331    332   1    120.0000    527.1840
    329    331    338   1    120.0000    292.8800
    332    331    338   1    120.0000    292.8800
    326    332    331   1    120.0000    527.1840
    326    332    339   1    120.0000    292.8800
    331    332    339   1    120.0000    292.8800
    325    333    340   1    110.7000    313.8000
    325    333    341   1    110.7000    313.8000
    325    333    342   1    110.7000    313.8000
    340    333    341   1    107.8000    276.1440
    340    333    342   1    107.8000    276.1440
    341    333    342   1    107.8000    276.1440

[ dihedrals ]
; Proper dihedrals
      9      1      2      3   5     0.00000     0.34727     0.00000  0.0
      9      1      2      8   5     0.00000     0.34727     0.00000  0.0
     10      1      2      3   5     0.00000     0.00000     0.00000  0.0
     10      1      2      8   5     0.00000     0.00000     0.00000  0.0
     18      1      2      3   5     0.00000     0.00000     0.00000  0.0
     18      1      2      8   5     0.00000     0.00000     0.00000  0.0
      2      1      9     16   5     0.00000     0.00000     3.61498  0.0
      2      1      9     17   5     0.00000     0.00000     3.61498  0.0
      2      1      9     19   5    -0.30962     3.11290    -3.95806  0.0
     10      1      9     16   5     0.00000     0.00000     1.25520  0.0
     10      1      9     17   5     0.00000     0.00000     1.25520  0.0
     10      1      9     19   5     0.00000     0.00000     1.25520  0.0
     18      1      9     16   5     0.00000     0.00000     1.25520  0.0
     18      1      9     17   5     0.00000     0.00000     1.25520  0.0
     18      1      9     19   5     0.00000     0.00000     1.25520  0.0
      1      2      3      4   5     0.00000    30.33400     0.00000  0.0
      1      2      3     11   5     0.00000    30.33400     0.00000  0.0
      8      2      3      4   5     0.00000    30.33400     0.00000  0.0
      8      2      3     11   5     0.00000    30.33400     0.00000  0.0
      1      2      8      7   5     0.00000    30.33400     0.00000  0.0
      1      2      8     15   5     0.00000    30.33400     0.00000  0.0
      3      2      8      7   5     0.00000    30.33400     0.00000  0.0
      3      2      8     15   5     0.00000    30.33400     0.00000  0.0
      2      3      4      5   5     0.00000    30.33400     0.00000  0.0
      2      3      4     12   5     0.00000    30.33400     0.00000  0.0
     11      3      4      5   5     0.00000    30.33400     0.00000  0.0
     11      3      4     12   5     0.00000    30.33400     0.00000  0.0
      3      4      5      6   5     0.00000    30.33400     0.00000  0.0
      3      4      5      7   5     0.00000    30.33400     0.00000  0.0
     12      4      5      6   5     0.00000    30.33400     0.00000  0.0
     12      4      5      7   5     0.00000    30.33400     0.00000  0.0
      4      5      6     13   5     0.00000     7.03749     0.00000  0.0
      7      5      6     13   5     0.00000     7.03749     0.00000  0.0
      4      5      7      8   5     0.00000    30.33400     0.00000  0.0
      4      5      7     14   5     0.00000    30.33400     0.00000  0.0
      6      5      7      8   5     0.00000    30.33400     0.00000  0.0
      6      5      7     14   5     0.00000    30.33400     0.00000  0.0
      5      7      8      2   5     0.00000    30.33400     0.00000  0.0
      5      7      8     15   5     0.00000    30.33400     0.00000  0.0
     14      7      8      2   5     0.00000    30.33400     0.00000  0.0
     14      7      8     15   5     0.00000    30.33400     0.00000  0.0
      1      9     19     20   5    -0.30962     3.11290    -3.95806  0.0
      1      9     19     27   5     4.74884    -0.63178     1.67360  0.0
      1      9     19     28   5     0.00000     0.00000     1.25520  0.0
     16      9     19     20   5     0.00000     0.00000     3.61498  0.0
     16      9     19     27   5     0.00000     0.00000     1.25520  0.0
     16      9     19     28   5     0.00000     0.00000     1.25520  0.0
     17      9     19     20   5     0.00000     0.00000     3.61498  0.0
     17      9     19     27   5     0.00000     0.00000     1.25520  0.0
     17      9     19     28   5     0.00000     0.00000     1.25520  0.0
      9     19     20     21   5     0.00000     0.34727     0.00000  0.0
      9     19     20     26   5     0.00000     0.34727     0.00000  0.0
     27     19     20     21   5     0.00000     0.34727     0.00000  0.0
     27     19     20     26   5     0.00000     0.34727     0.00000  0.0
     28     19     20     21   5     0.00000     0.00000     0.00000  0.0
     28     19     20     26   5     0.00000     0.00000     0.00000  0.0
      9     19     27     34   5     0.00000     0.00000     1.25520  0.0
      9     19     27     35   5     0.00000     0.00000     1.25520  0.0
      9     19     27     36   5     4.74884    -0.63178     1.67360  0.0
     20     19     27     34   5     0.00000     0.00000     3.61498  0.0
     20     19     27     35   5     0.00000     0.00000     3.61498  0.0
     20     19     27     36   5    -0.30962     3.11290    -3.95806  0.0
     28     19     27     34   5     0.00000     0.00000     1.25520  0.0
     28     19     27     35   5     0.00000     0.00000     1.25520  0.0
     28     19     27     36   5     0.00000     0.00000     1.25520  0.0
     19     20     21     22   5     0.00000    30.33400     0.00000  0.0
     19     20     21     29   5     0.00000    30.33400     0.00000  0.0
     26     20     21     22   5     0.00000    30.33400     0.00000  0.0
     26     20     21     29   5     0.00000    30.33400     0.00000  0.0
     19     20     26     25   5     0.00000    30.33400     0.00000  0.0
     19     20     26     33   5     0.00000    30.33400     0.00000  0.0
     21     20     26     25   5     0.00000    30.33400     0.00000  0.0
     21     20     26     33   5     0.00000    30.33400     0.00000  0.0
     20     21     22     23   5     0.00000    30.33400     0.00000  0.0
     20     21     22     30   5     0.00000    30.33400     0.00000  0.0
     29     21     22     23   5     0.00000    30.33400     0.00000  0.0
     29     21     22     30   5     0.00000    30.33400     0.00000  0.0
     21     22     23     24   5     0.00000    30.33400     0.00000  0.0
     21     22     23     25   5     0.00000    30.33400     0.00000  0.0
     30     22     23     24   5     0.00000    30.33400     0.00000  0.0
     30     22     23     25   5     0.00000    30.33400     0.00000  0.0
     22     23     24     31   5     0.00000     7.03749     0.00000  0.0
     25     23     24     31   5     0.00000     7.03749     0.00000  0.0
     22     23     25     26   5     0.00000    30.33400     0.00000  0.0
     22     23     25     32   5     0.00000    30.33400     0.00000  0.0
     24     23     25     26   5     0.00000    30.33400     0.00000  0.0
     24     23     25     32   5     0.00000    30.33400     0.00000  0.0
     23     25     26     20   5     0.00000    30.33400     0.00000  0.0
     23     25     26     33   5     0.00000    30.33400     0.00000  0.0
     32     25     26     20   5     0.00000    30.33400     0.00000  0.0
     32     25     26     33   5     0.00000    30.33400     0.00000  0.0
     19     27     36     37   5    -0.30962     3.11290    -3.95806  0.0
     19     27     36     44   5     4.74884    -0.63178     1.67360  0.0
     19     27     36     45   5     0.00000     0.00000     1.25520  0.0
     34     27     36     37   5     0.00000     0.00000     3.61498  0.0
     34     27     36     44   5     0.00000     0.00000     1.25520  0.0
     34     27     36     45   5     0.00000     0.00000     1.25520  0.0
     35     27     36     37   5     0.00000     0.00000     3.61498  0.0
     35     27     36     44   5     0.00000     0.00000     1.25520  0.0
     35     27     36     45   5     0.00000     0.00000     1.25520  0.0
     27     36     37     38   5     0.00000     0.34727     0.00000  0.0
     27     36     37     43   5     0.00000     0.34727     0.00000  0.0
     44     36     37     38   5     0.00000     0.34727     0.00000  0.0
     44     36     37     43   5     0.00000     0.34727     0.00000  0.0
     45     36     37     38   5     0.00000     0.00000     0.00000  0.0
     45     36     37     43   5     0.00000     0.00000     0.00000  0.0
     27     36     44     51   5     0.00000     0.00000     1.25520  0.0
     27     36     44     52   5     0.00000     0.00000     1.25520  0.0
     27     36     44     53   5     4.74884    -0.63178     1.67360  0.0
     37     36     44     51   5     0.00000     0.00000     3.61498  0.0
     37     36     44     52   5     0.00000     0.00000     3.61498  0.0
     37     36     44     53   5    -0.30962     3.11290    -3.95806  0.0
     45     36     44     51   5     0.00000     0.00000     1.25520  0.0
     45     36     44     52   5     0.00000     0.00000     1.25520  0.0
     45     36     44     53   5     0.00000     0.00000     1.25520  0.0
     36     37     38     39   5     0.00000    30.33400     0.00000  0.0
     36     37     38     46   5     0.00000    30.33400     0.00000  0.0
     43     37     38     39   5     0.00000    30.33400     0.00000  0.0
     43     37     38     46   5     0.00000    30.33400     0.00000  0.0
     36     37     43     42   5     0.00000    30.33400     0.00000  0.0
     36     37     43     50   5     0.00000    30.33400     0.00000  0.0
     38     37     43     42   5     0.00000    30.33400     0.00000  0.0
     38     37     43     50   5     0.00000    30.33400     0.00000  0.0
     37     38     39     40   5     0.00000    30.33400     0.00000  0.0
     37     38     39     47   5     0.00000    30.33400     0.00000  0.0
     46     38     39     40   5     0.00000    30.33400     0.00000  0.0
     46     38     39     47   5     0.00000    30.33400     0.00000  0.0
     38     39     40     41   5     0.00000    30.33400     0.00000  0.0
     38     39     40     42   5     0.00000    30.33400     0.00000  0.0
     47     39     40     41   5     0.00000    30.33400     0.00000  0.0
     47     39     40     42   5     0.00000    30.33400     0.00000  0.0
     39     40     41     48   5     0.00000     7.03749     0.00000  0.0
     42     40     41     48   5     0.00000     7.03749     0.00000  0.0
     39     40     42     43   5     0.00000    30.33400     0.00000  0.0
     39     40     42     49   5     0.00000    30.33400     0.00000  0.0
     41     40     42     43   5     0.00000    30.33400     0.00000  0.0
     41     40     42     49   5     0.00000    30.33400     0.00000  0.0
     40     42     43     37   5     0.00000    30.33400     0.00000  0.0
     40     42     43     50   5     0.00000    30.33400     0.00000  0.0
     49     42     43     37   5     0.00000    30.33400     0.00000  0.0
     49     42     43     50   5     0.00000    30.33400     0.00000  0.0
     36     44     53     54   5    -0.30962     3.11290    -3.95806  0.0
     36     44     53     61   5     4.74884    -0.63178     1.67360  0.0
     36     44     53     62   5     0.00000     0.00000     1.25520  0.0
     51     44     53     54   5     0.00000     0.00000     3.61498  0.0
     51     44     53     61   5     0.00000     0.00000     1.25520  0.0
     51     44     53     62   5     0.00000     0.00000     1.25520  0.0
     52     44     53     54   5     0.00000     0.00000     3.61498  0.0
     52     44     53     61   5     0.00000     0.00000     1.25520  0.0
     52     44     53     62   5     0.00000     0.00000     1.25520  0.0
     44     53     54     55   5     0.00000     0.34727     0.00000  0.0
     44     53     54     60   5     0.00000     0.34727     0.00000  0.0
     61     53     54     55   5     0.00000     0.34727     0.00000  0.0
     61     53     54     60   5     0.00000     0.34727     0.00000  0.0
     62     53     54     55   5     0.00000     0.00000     0.00000  0.0
     62     53     54     60   5     0.00000     0.00000     0.00000  0.0
     44     53     61     68   5     0.00000     0.00000     1.25520  0.0
     44     53     61     69   5     0.00000     0.00000     1.25520  0.0
     44     53     61     70   5     4.74884    -0.63178     1.67360  0.0
     54     53     61     68   5     0.00000     0.00000     3.61498  0.0
     54     53     61     69   5     0.00000     0.00000     3.61498  0.0
     54     53     61     70   5    -0.30962     3.11290    -3.95806  0.0
     62     53     61     68   5     0.00000     0.00000     1.25520  0.0
     62     53     61     69   5     0.00000     0.00000     1.25520  0.0
     62     53     61     70   5     0.00000     0.00000     1.25520  0.0
     53     54     55     56   5     0.00000    30.33400     0.00000  0.0
     53     54     55     63   5     0.00000    30.33400     0.00000  0.0
     60     54     55     56   5     0.00000    30.33400     0.00000  0.0
     60     54     55     63   5     0.00000    30.33400     0.00000  0.0
     53     54     60     59   5     0.00000    30.33400     0.00000  0.0
     53     54     60     67   5     0.00000    30.33400     0.00000  0.0
     55     54     60     59   5     0.00000    30.33400     0.00000  0.0
     55     54     60     67   5     0.00000    30.33400     0.00000  0.0
     54     55     56     57   5     0.00000    30.33400     0.00000  0.0
     54     55     56     64   5     0.00000    30.33400     0.00000  0.0
     63     55     56     57   5     0.00000    30.33400     0.00000  0.0
     63     55     56     64   5     0.00000    30.33400     0.00000  0.0
     55     56     57     58   5     0.00000    30.33400     0.00000  0.0
     55     56     57     59   5     0.00000    30.33400     0.00000  0.0
     64     56     57     58   5     0.00000    30.33400     0.00000  0.0
     64     56     57     59   5     0.00000    30.33400     0.00000  0.0
     56     57     58     65   5     0.00000     7.03749     0.00000  0.0
     59     57     58     65   5     0.00000     7.03749     0.00000  0.0
     56     57     59     60   5     0.00000    30.33400     0.00000  0.0
     56     57     59     66   5     0.00000    30.33400     0.00000  0.0
     58     57     59     60   5     0.00000    30.33400     0.00000  0.0
     58     57     59     66   5     0.00000    30.33400     0.00000  0.0
     57     59     60     54   5     0.00000    30.33400     0.00000  0.0
     57     59     60     67   5     0.00000    30.33400     0.00000  0.0
     66     59     60     54   5     0.00000    30.33400     0.00000  0.0
     66     59     60     67   5     0.00000    30.33400     0.00000  0.0
     53     61     70     71   5    -0.30962     3.11290    -3.95806  0.0
     53     61     70     78   5     4.74884    -0.63178     1.67360  0.0
     53     61     70     79   5     0.00000     0.00000     1.25520  0.0
     68     61     70     71   5     0.00000     0.00000     3.61498  0.0
     68     61     70     78   5     0.00000     0.00000     1.25520  0.0
     68     61     70     79   5     0.00000     0.00000     1.25520  0.0
     69     61     70     71   5     0.00000     0.00000     3.61498  0.0
     69     61     70     78   5     0.00000     0.00000     1.25520  0.0
     69     61     70     79   5     0.00000     0.00000     1.25520  0.0
     61     70     71     72   5     0.00000     0.34727     0.00000  0.0
     61     70     71     77   5     0.00000     0.34727     0.00000  0.0
     78     70     71     72   5     0.00000     0.34727     0.00000  0.0
     78     70     71     77   5     0.00000     0.34727     0.00000  0.0
     79     70     71     72   5     0.00000     0.00000     0.00000  0.0
     79     70     71     77   5     0.00000     0.00000     0.00000  0.0
     61     70     78     85   5     0.00000     0.00000     1.25520  0.0
     61     70     78     86   5     0.00000     0.00000     1.25520  0.0
     61     70     78     87   5     4.74884    -0.63178     1.67360  0.0
     71     70     78     85   5     0.00000     0.00000     3.61498  0.0
     71     70     78     86   5     0.00000     0.00000     3.61498  0.0
     71     70     78     87   5    -0.30962     3.11290    -3.95806  0.0
     79     70     78     85   5     0.00000     0.00000     1.25520  0.0
     79     70     78     86   5     0.00000     0.00000     1.25520  0.0
     79     70     78     87   5     0.00000     0.00000     1.25520  0.0
     70     71     72     73   5     0.00000    30.33400     0.00000  0.0
     70     71     72     80   5     0.00000    30.33400     0.00000  0.0
     77     71     72     73   5     0.00000    30.33400     0.00000  0.0
     77     71     72     80   5     0.00000    30.33400     0.00000  0.0
     70     71     77     76   5     0.00000    30.33400     0.00000  0.0
     70     71     77     84   5     0.00000    30.33400     0.00000  0.0
     72     71     77     76   5     0.00000    30.33400     0.00000  0.0
     72     71     77     84   5     0.00000    30.33400     0.00000  0.0
     71     72     73     74   5     0.00000    30.33400     0.00000  0.0
     71     72     73     81   5     0.00000    30.33400     0.00000  0.0
     80     72     73     74   5     0.00000    30.33400     0.00000  0.0
     80     72     73     81   5     0.00000    30.33400     0.00000  0.0
     72     73     74     75   5     0.00000    30.33400     0.00000  0.0
     72     73     74     76   5     0.00000    30.33400     0.00000  0.0
     81     73     74     75   5     0.00000    30.33400     0.00000  0.0
     81     73     74     76   5     0.00000    30.33400     0.00000  0.0
     73     74     75     82   5     0.00000     7.03749     0.00000  0.0
     76     74     75     82   5     0.00000     7.03749     0.00000  0.0
     73     74     76     77   5     0.00000    30.33400     0.00000  0.0
     73     74     76     83   5     0.00000    30.33400     0.00000  0.0
     75     74     76     77   5     0.00000    30.33400     0.00000  0.0
     75     74     76     83   5     0.00000    30.33400     0.00000  0.0
     74     76     77     71   5     0.00000    30.33400     0.00000  0.0
     74     76     77     84   5     0.00000    30.33400     0.00000  0.0
     83     76     77     71   5     0.00000    30.33400     0.00000  0.0
     83     76     77     84   5     0.00000    30.33400     0.00000  0.0
     70     78     87     88   5    -0.30962     3.11290    -3.95806  0.0
     70     78     87     95   5     4.74884    -0.63178     1.67360  0.0
     70     78     87     96   5     0.00000     0.00000     1.25520  0.0
     85     78     87     88   5     0.00000     0.00000     3.61498  0.0
     85     78     87     95   5     0.00000     0.00000     1.25520  0.0
     85     78     87     96   5     0.00000     0.00000     1.25520  0.0
     86     78     87     88   5     0.00000     0.00000     3.61498  0.0
     86     78     87     95   5     0.00000     0.00000     1.25520  0.0
     86     78     87     96   5     0.00000     0.00000     1.25520  0.0
     78     87     88     89   5     0.00000     0.34727     0.00000  0.0
     78     87     88     94   5     0.00000     0.34727     0.00000  0.0
     95     87     88     89   5     0.00000     0.34727     0.00000  0.0
     95     87     88     94   5     0.00000     0.34727     0.00000  0.0
     96     87     88     89   5     0.00000     0.00000     0.00000  0.0
     96     87     88     94   5     0.00000     0.00000     0.00000  0.0
     78     87     95    102   5     0.00000     0.00000     1.25520  0.0
     78     87     95    103   5     0.00000     0.00000     1.25520  0.0
     78     87     95    104   5     4.74884    -0.63178     1.67360  0.0
     88     87     95    102   5     0.00000     0.00000     3.61498  0.0
     88     87     95    103   5     0.00000     0.00000     3.61498  0.0
     88     87     95    104   5    -0.30962     3.11290    -3.95806  0.0
     96     87     95    102   5     0.00000     0.00000     1.25520  0.0
     96     87     95    103   5     0.00000     0.00000     1.25520  0.0
     96     87     95    104   5     0.00000     0.00000     1.25520  0.0
     87     88     89     90   5     0.00000    30.33400     0.00000  0.0
     87     88     89     97   5     0.00000    30.33400     0.00000  0.0
     94     88     89     90   5     0.00000    30.33400     0.00000  0.0
     94     88     89     97   5     0.00000    30.33400     0.00000  0.0
     87     88     94     93   5     0.00000    30.33400     0.00000  0.0
     87     88     94    101   5     0.00000    30.33400     0.00000  0.0
     89     88     94     93   5     0.00000    30.33400     0.00000  0.0
     89     88     94    101   5     0.00000    30.33400     0.00000  0.0
     88     89     90     91   5     0.00000    30.33400     0.00000  0.0
     88     89     90     98   5     0.00000    30.33400     0.00000  0.0
     97     89     90     91   5     0.00000    30.33400     0.00000  0.0
     97     89     90     98   5     0.00000    30.33400     0.00000  0.0
     89     90     91     92   5     0.00000    30.33400     0.00000  0.0
     89     90     91     93   5     0.00000    30.33400     0.00000  0.0
     98     90     91     92   5     0.00000    30.33400     0.00000  0.0
     98     90     91     93   5     0.00000    30.33400     0.00000  0.0
     90     91     92     99   5     0.00000     7.03749     0.00000  0.0
     93     91     92     99   5     0.00000     7.03749     0.00000  0.0
     90     91     93     94   5     0.00000    30.33400     0.00000  0.0
     90     91     93    100   5     0.00000    30.33400     0.00000  0.0
     92     91     93     94   5     0.00000    30.33400     0.00000  0.0
     92     91     93    100   5     0.00000    30.33400     0.00000  0.0
     91     93     94     88   5     0.00000    30.33400     0.00000  0.0
     91     93     94    101   5     0.00000    30.33400     0.00000  0.0
    100     93     94     88   5     0.00000    30.33400     0.00000  0.0
    100     93     94    101   5     0.00000    30.33400     0.00000  0.0
     87     95    104    105   5    -0.30962     3.11290    -3.95806  0.0
     87     95    104    112   5     4.74884    -0.63178     1.67360  0.0
     87     95    104    113   5     0.00000     0.00000     1.25520  0.0
    102     95    104    105   5     0.00000     0.00000     3.61498  0.0
    102     95    104    112   5     0.00000     0.00000     1.25520  0.0
    102     95    104    113   5     0.00000     0.00000     1.25520  0.0
    103     95    104    105   5     0.00000     0.00000     3.61498  0.0
    103     95    104    112   5     0.00000     0.00000     1.25520  0.0
    103     95    104    113   5     0.00000     0.00000     1.25520  0.0
     95    104    105    106   5     0.00000     0.34727     0.00000  0.0
     95    104    105    111   5     0.00000     0.34727     0.00000  0.0
    112    104    105    106   5     0.00000     0.34727     0.00000  0.0
    112    104    105    111   5     0.00000     0.34727     0.00000  0.0
    113    104    105    106   5     0.00000     0.00000     0.00000  0.0
    113    104    105    111   5     0.00000     0.00000     0.00000  0.0
     95    104    112    119   5     0.00000     0.00000     1.25520  0.0
     95    104    112    120   5     0.00000     0.00000     1.25520  0.0
     95    104    112    121   5     4.74884    -0.63178     1.67360  0.0
    105    104    112    119   5     0.00000     0.00000     3.61498  0.0
    105    104    112    120   5     0.00000     0.00000     3.61498  0.0
    105    104    112    121   5    -0.30962     3.11290    -3.95806  0.0
    113    104    112    119   5     0.00000     0.00000     1.25520  0.0
    113    104    112    120   5     0.00000     0.00000     1.25520  0.0
    113    104    112    121   5     0.00000     0.00000     1.25520  0.0
    104    105    106    107   5     0.00000    30.33400     0.00000  0.0
    104    105    106    114   5     0.00000    30.33400     0.00000  0.0
    111    105    106    107   5     0.00000    30.33400     0.00000  0.0
    111    105    106    114   5     0.00000    30.33400     0.00000  0.0
    104    105    111    110   5     0.00000    30.33400     0.00000  0.0
    104    105    111    118   5     0.00000    30.33400     0.00000  0.0
    106    105    111    110   5     0.00000    30.33400     0.00000  0.0
    106    105    111    118   5     0.00000    30.33400     0.00000  0.0
    105    106    107    108   5     0.00000    30.33400     0.00000  0.0
    105    106    107    115   5     0.00000    30.33400     0.00000  0.0
    114    106    107    108   5     0.00000    30.33400     0.00000  0.0
    114    106    107    115   5     0.00000    30.33400     0.00000  0.0
    106    107    108    109   5     0.00000    30.33400     0.00000  0.0
    106    107    108    110   5     0.00000    30.33400     0.00000  0.0
    115    107    108    109   5     0.00000    30.33400     0.00000  0.0
    115    107    108    110   5     0.00000    30.33400     0.00000  0.0
    107    108    109    116   5     0.00000     7.03749     0.00000  0.0
    110    108    109    116   5     0.00000     7.03749     0.00000  0.0
    107    108    110    111   5     0.00000    30.33400     0.00000  0.0
    107    108    110    117   5     0.00000    30.33400     0.00000  0.0
    109    108    110    111   5     0.00000    30.33400     0.00000  0.0
    109    108    110    117   5     0.00000    30.33400     0.00000  0.0
    108    110    111    105   5     0.00000    30.33400     0.00000  0.0
    108    110    111    118   5     0.00000    30.33400     0.00000  0.0
    117    110    111    105   5     0.00000    30.33400     0.00000  0.0
    117    110    111    118   5     0.00000    30.33400     0.00000  0.0
    104    112    121    122   5    -0.30962     3.11290    -3.95806  0.0
    104    112    121    129   5     4.74884    -0.63178     1.67360  0.0
    104    112    121    130   5     0.00000     0.00000     1.25520  0.0
    119    112    121    122   5     0.00000     0.00000     3.61498  0.0
    119    112    121    129   5     0.00000     0.00000     1.25520  0.0
    119    112    121    130   5     0.00000     0.00000     1.25520  0.0
    120    112    121    122   5     0.00000     0.00000     3.61498  0.0
    120    112    121    129   5     0.00000     0.00000     1.25520  0.0
    120    112    121    130   5     0.00000     0.00000     1.25520  0.0
    112    121    122    123   5     0.00000     0.34727     0.00000  0.0
    112    121    122    128   5     0.00000     0.34727     0.00000  0.0
    129    121    122    123   5     0.00000     0.34727     0.00000  0.0
    129    121    122    128   5     0.00000     0.34727     0.00000  0.0
    130    121    122    123   5     0.00000     0.00000     0.00000  0.0
    130    121    122    128   5     0.00000     0.00000     0.00000  0.0
    112    121    129    136   5     0.00000     0.00000     1.25520  0.0
    112    121    129    137   5     0.00000     0.00000     1.25520  0.0
    112    121    129    138   5     4.74884    -0.63178     1.67360  0.0
    122    121    129    136   5     0.00000     0.00000     3.61498  0.0
    122    121    129    137   5     0.00000     0.00000     3.61498  0.0
    122    121    129    138   5    -0.30962     3.11290    -3.95806  0.0
    130    121    129    136   5     0.00000     0.00000     1.25520  0.0
    130    121    129    137   5     0.00000     0.00000     1.25520  0.0
    130    121    129    138   5     0.00000     0.00000     1.25520  0.0
    121    122    123    124   5     0.00000    30.33400     0.00000  0.0
    121    122    123    131   5     0.00000    30.33400     0.00000  0.0
    128    122    123    124   5     0.00000    30.33400     0.00000  0.0
    128    122    123    131   5     0.00000    30.33400     0.00000  0.0
    121    122    128    127   5     0.00000    30.33400     0.00000  0.0
    121    122    128    135   5     0.00000    30.33400     0.00000  0.0
    123    122    128    127   5     0.00000    30.33400     0.00000  0.0
    123    122    128    135   5     0.00000    30.33400     0.00000  0.0
    122    123    124    125   5     0.00000    30.33400     0.00000  0.0
    122    123    124    132   5     0.00000    30.33400     0.00000  0.0
    131    123    124    125   5     0.00000    30.33400     0.00000  0.0
    131    123    124    132   5     0.00000    30.33400     0.00000  0.0
    123    124    125    126   5     0.00000    30.33400     0.00000  0.0
    123    124    125    127   5     0.00000    30.33400     0.00000  0.0
    132    124    125    126   5     0.00000    30.33400     0.00000  0.0
    132    124    125    127   5     0.00000    30.33400     0.00000  0.0
    124    125    126    133   5     0.00000     7.03749     0.00000  0.0
    127    125    126    133   5     0.00000     7.03749     0.00000  0.0
    124    125    127    128   5     0.00000    30.33400     0.00000  0.0
    124    125    127    134   5     0.00000    30.33400     0.00000  0.0
    126    125    127    128   5     0.00000    30.33400     0.00000  0.0
    126    125    127    134   5     0.00000    30.33400     0.00000  0.0
    125    127    128    122   5     0.00000    30.33400     0.00000  0.0
    125    127    128    135   5     0.00000    30.33400     0.00000  0.0
    134    127    128    122   5     0.00000    30.33400     0.00000  0.0
    134    127    128    135   5     0.00000    30.33400     0.00000  0.0
    121    129    138    139   5    -0.30962     3.11290    -3.95806  0.0
    121    129    138    146   5     4.74884    -0.63178     1.67360  0.0
    121    129    138    147   5     0.00000     0.00000     1.25520  0.0
    136    129    138    139   5     0.00000     0.00000     3.61498  0.0
    136    129    138    146   5     0.00000     0.00000     1.25520  0.0
    136    129    138    147   5     0.00000     0.00000     1.25520  0.0
    137    129    138    139   5     0.00000     0.00000     3.61498  0.0
    137    129    138    146   5     0.00000     0.00000     1.25520  0.0
    137    129    138    147   5     0.00000     0.00000     1.25520  0.0
    129    138    139    140   5     0.00000     0.34727     0.00000  0.0
    129    138    139    145   5     0.00000     0.34727     0.00000  0.0
    146    138    139    140   5     0.00000     0.34727     0.00000  0.0
    146    138    139    145   5     0.00000     0.34727     0.00000  0.0
    147    138    139    140   5     0.00000     0.00000     0.00000  0.0
    147    138    139    145   5     0.00000     0.00000     0.00000  0.0
    129    138    146    153   5     0.00000     0.00000     1.25520  0.0
    129    138    146    154   5     0.00000     0.00000     1.25520  0.0
    129    138    146    155   5     4.74884    -0.63178     1.67360  0.0
    139    138    146    153   5     0.00000     0.00000     3.61498  0.0
    139    138    146    154   5     0.00000     0.00000     3.61498  0.0
    139    138    146    155   5    -0.30962     3.11290    -3.95806  0.0
    147    138    146    153   5     0.00000     0.00000     1.25520  0.0
    147    138    146    154   5     0.00000     0.00000     1.25520  0.0
    147    138    146    155   5     0.00000     0.00000     1.25520  0.0
    138    139    140    141   5     0.00000    30.33400     0.00000  0.0
    138    139    140    148   5     0.00000    30.33400     0.00000  0.0
    145    139    140    141   5     0.00000    30.33400     0.00000  0.0
    145    139    140    148   5     0.00000    30.33400     0.00000  0.0
    138    139    145    144   5     0.00000    30.33400     0.00000  0.0
    138    139    145    152   5     0.00000    30.33400     0.00000  0.0
    140    139    145    144   5     0.00000    30.33400     0.00000  0.0
    140    139    145    152   5     0.00000    30.33400     0.00000  0.0
    139    140    141    142   5     0.00000    30.33400     0.00000  0.0
    139    140    141    149   5     0.00000    30.33400     0.00000  0.0
    148    140    141    142   5     0.00000    30.33400     0.00000  0.0
    148    140    141    149   5     0.00000    30.33400     0.00000  0.0
    140    141    142    143   5     0.00000    30.33400     0.00000  0.0
    140    141    142    144   5     0.00000    30.33400     0.00000  0.0
    149    141    142    143   5     0.00000    30.33400     0.00000  0.0
    149    141    142    144   5     0.00000    30.33400     0.00000  0.0
    141    142    143    150   5     0.00000     7.03749     0.00000  0.0
    144    142    143    150   5     0.00000     7.03749     0.00000  0.0
    141    142    144    145   5     0.00000    30.33400     0.00000  0.0
    141    142    144    151   5     0.00000    30.33400     0.00000  0.0
    143    142    144    145   5     0.00000    30.33400     0.00000  0.0
    143    142    144    151   5     0.00000    30.33400     0.00000  0.0
    142    144    145    139   5     0.00000    30.33400     0.00000  0.0
    142    144    145    152   5     0.00000    30.33400     0.00000  0.0
    151    144    145    139   5     0.00000    30.33400     0.00000  0.0
    151    144    145    152   5     0.00000    30.33400     0.00000  0.0
    138    146    155    156   5    -0.30962     3.11290    -3.95806  0.0
    138    146    155    163   5     4.74884    -0.63178     1.67360  0.0
    138    146    155    164   5     0.00000     0.00000     1.25520  0.0
    153    146    155    156   5     0.00000     0.00000     3.61498  0.0
    153    146    155    163   5     0.00000     0.00000     1.25520  0.0
    153    146    155    164   5     0.00000     0.00000     1.25520  0.0
    154    146    155    156   5     0.00000     0.00000     3.61498  0.0
    154    146    155    163   5     0.00000     0.00000     1.25520  0.0
    154    146    155    164   5     0.00000     0.00000     1.25520  0.0
    146    155    156    157   5     0.00000     0.34727     0.00000  0.0
    146    155    156    162   5     0.00000     0.34727     0.00000  0.0
    163    155    156    157   5     0.00000     0.34727     0.00000  0.0
    163    155    156    162   5     0.00000     0.34727     0.00000  0.0
    164    155    156    157   5     0.00000     0.00000     0.00000  0.0
    164    155    156    162   5     0.00000     0.00000     0.00000  0.0
    146    155    163    170   5     0.00000     0.00000     1.25520  0.0
    146    155    163    171   5     0.00000     0.00000     1.25520  0.0
    146    155    163    172   5     4.74884    -0.63178     1.67360  0.0
    156    155    163    170   5     0.00000     0.00000     3.61498  0.0
    156    155    163    171   5     0.00000     0.00000     3.61498  0.0
    156    155    163    172   5    -0.30962     3.11290    -3.95806  0.0
    164    155    163    170   5     0.00000     0.00000     1.25520  0.0
    164    155    163    171   5     0.00000     0.00000     1.25520  0.0
    164    155    163    172   5     0.00000     0.00000     1.25520  0.0
    155    156    157    158   5     0.00000    30.33400     0.00000  0.0
    155    156    157    165   5     0.00000    30.33400     0.00000  0.0
    162    156    157    158   5     0.00000    30.33400     0.00000  0.0
    162    156    157    165   5     0.00000    30.33400     0.00000  0.0
    155    156    162    161   5     0.00000    30.33400     0.00000  0.0
    155    156    162    169   5     0.00000    30.33400     0.00000  0.0
    157    156    162    161   5     0.00000    30.33400     0.00000  0.0
    157    156    162    169   5     0.00000    30.33400     0.00000  0.0
    156    157    158    159   5     0.00000    30.33400     0.00000  0.0
    156    157    158    166   5     0.00000    30.33400     0.00000  0.0
    165    157    158    159   5     0.00000    30.33400     0.00000  0.0
    165    157    158    166   5     0.00000    30.33400     0.00000  0.0
    157    158    159    160   5     0.00000    30.33400     0.00000  0.0
    157    158    159    161   5     0.00000    30.33400     0.00000  0.0
    166    158    159    160   5     0.00000    30.33400     0.00000  0.0
    166    158    159    161   5     0.00000    30.33400     0.00000  0.0
    158    159    160    167   5     0.00000     7.03749     0.00000  0.0
    161    159    160    167   5     0.00000     7.03749     0.00000  0.0
    158    159    161    162   5     0.00000    30.33400     0.00000  0.0
    158    159    161    168   5     0.00000    30.33400     0.00000  0.0
    160    159    161    162   5     0.00000    30.33400     0.00000  0.0
    160    159    161    168   5     0.00000    30.33400     0.00000  0.0
    159    161    162    156   5     0.00000    30.33400     0.00000  0.0
    159    161    162    169   5     0.00000    30.33400     0.00000  0.0
    168    161    162    156   5     0.00000    30.33400     0.00000  0.0
    168    161    162    169   5     0.00000    30.33400     0.00000  0.0
    155    163    172    173   5    -0.30962     3.11290    -3.95806  0.0
    155    163    172    180   5     4.74884    -0.63178     1.67360  0.0
    155    163    172    181   5     0.00000     0.00000     1.25520  0.0
    170    163    172    173   5     0.00000     0.00000     3.61498  0.0
    170    163    172    180   5     0.00000     0.00000     1.25520  0.0
    170    163    172    181   5     0.00000     0.00000     1.25520  0.0
    171    163    172    173   5     0.00000     0.00000     3.61498  0.0
    171    163    172    180   5     0.00000     0.00000     1.25520  0.0
    171    163    172    181   5     0.00000     0.00000     1.25520  0.0
    163    172    173    174   5     0.00000     0.34727     0.00000  0.0
    163    172    173    179   5     0.00000     0.34727     0.00000  0.0
    180    172    173    174   5     0.00000     0.34727     0.00000  0.0
    180    172    173    179   5     0.00000     0.34727     0.00000  0.0
    181    172    173    174   5     0.00000     0.00000     0.00000  0.0
    181    172    173    179   5     0.00000     0.00000     0.00000  0.0
    163    172    180    187   5     0.00000     0.00000     1.25520  0.0
    163    172    180    188   5     0.00000     0.00000     1.25520  0.0
    163    172    180    189   5     4.74884    -0.63178     1.67360  0.0
    173    172    180    187   5     0.00000     0.00000     3.61498  0.0
    173    172    180    188   5     0.00000     0.00000     3.61498  0.0
    173    172    180    189   5    -0.30962     3.11290    -3.95806  0.0
    181    172    180    187   5     0.00000     0.00000     1.25520  0.0
    181    172    180    188   5     0.00000     0.00000     1.25520  0.0
    181    172    180    189   5     0.00000     0.00000     1.25520  0.0
    172    173    174    175   5     0.00000    30.33400     0.00000  0.0
    172    173    174    182   5     0.00000    30.33400     0.00000  0.0
    179    173    174    175   5     0.00000    30.33400     0.00000  0.0
    179    173    174    182   5     0.00000    30.33400     0.00000  0.0
    172    173    179    178   5     0.00000    30.33400     0.00000  0.0
    172    173    179    186   5     0.00000    30.33400     0.00000  0.0
    174    173    179    178   5     0.00000    30.33400     0.00000  0.0
    174    173    179    186   5     0.00000    30.33400     0.00000  0.0
    173    174    175    176   5     0.00000    30.33400     0.00000  0.0
    173    174    175    183   5     0.00000    30.33400     0.00000  0.0
    182    174    175    176   5     0.00000    30.33400     0.00000  0.0
    182    174    175    183   5     0.00000    30.33400     0.00000  0.0
    174    175    176    177   5     0.00000    30.33400     0.00000  0.0
    174    175    176    178   5     0.00000    30.33400     0.00000  0.0
    183    175    176    177   5     0.00000    30.33400     0.00000  0.0
    183    175    176    178   5     0.00000    30.33400     0.00000  0.0
    175    176    177    184   5     0.00000     7.03749     0.00000  0.0
    178    176    177    184   5     0.00000     7.03749     0.00000  0.0
    175    176    178    179   5     0.00000    30.33400     0.00000  0.0
    175    176    178    185   5     0.00000    30.33400     0.00000  0.0
    177    176    178    179   5     0.00000    30.33400     0.00000  0.0
    177    176    178    185   5     0.00000    30.33400     0.00000  0.0
    176    178    179    173   5     0.00000    30.33400     0.00000  0.0
    176    178    179    186   5     0.00000    30.33400     0.00000  0.0
    185    178    179    173   5     0.00000    30.33400     0.00000  0.0
    185    178    179    186   5     0.00000    30.33400     0.00000  0.0
    172    180    189    190   5    -0.30962     3.11290    -3.95806  0.0
    172    180    189    197   5     4.74884    -0.63178     1.67360  0.0
    172    180    189    198   5     0.00000     0.00000     1.25520  0.0
    187    180    189    190   5     0.00000     0.00000     3.61498  0.0
    187    180    189    197   5     0.00000     0.00000     1.25520  0.0
    187    180    189    198   5     0.00000     0.00000     1.25520  0.0
    188    180    189    190   5     0.00000     0.00000     3.61498  0.0
    188    180    189    197   5     0.00000     0.00000     1.25520  0.0
    188    180    189    198   5     0.00000     0.00000     1.25520  0.0
    180    189    190    191   5     0.00000     0.34727     0.00000  0.0
    180    189    190    196   5     0.00000     0.34727     0.00000  0.0
    197    189    190    191   5     0.00000     0.34727     0.00000  0.0
    197    189    190    196   5     0.00000     0.34727     0.00000  0.0
    198    189    190    191   5     0.00000     0.00000     0.00000  0.0
    198    189    190    196   5     0.00000     0.00000     0.00000  0.0
    180    189    197    204   5     0.00000     0.00000     1.25520  0.0
    180    189    197    205   5     0.00000     0.00000     1.25520  0.0
    180    189    197    206   5     4.74884    -0.63178     1.67360  0.0
    190    189    197    204   5     0.00000     0.00000     3.61498  0.0
    190    189    197    205   5     0.00000     0.00000     3.61498  0.0
    190    189    197    206   5    -0.30962     3.11290    -3.95806  0.0
    198    189    197    204   5     0.00000     0.00000     1.25520  0.0
    198    189    197    205   5     0.00000     0.00000     1.25520  0.0
    198    189    197    206   5     0.00000     0.00000     1.25520  0.0
    189    190    191    192   5     0.00000    30.33400     0.00000  0.0
    189    190    191    199   5     0.00000    30.33400     0.00000  0.0
    196    190    191    192   5     0.00000    30.33400     0.00000  0.0
    196    190    191    199   5     0.00000    30.33400     0.00000  0.0
    189    190    196    195   5     0.00000    30.33400     0.00000  0.0
    189    190    196    203   5     0.00000    30.33400     0.00000  0.0
    191    190    196    195   5     0.00000    30.33400     0.00000  0.0
    191    190    196    203   5     0.00000    30.33400     0.00000  0.0
    190    191    192    193   5     0.00000    30.33400     0.00000  0.0
    190    191    192    200   5     0.00000    30.33400     0.00000  0.0
    199    191    192    193   5     0.00000    30.33400     0.00000  0.0
    199    191    192    200   5     0.00000    30.33400     0.00000  0.0
    191    192    193    194   5     0.00000    30.33400     0.00000  0.0
    191    192    193    195   5     0.00000    30.33400     0.00000  0.0
    200    192    193    194   5     0.00000    30.33400     0.00000  0.0
    200    192    193    195   5     0.00000    30.33400     0.00000  0.0
    192    193    194    201   5     0.00000     7.03749     0.00000  0.0
    195    193    194    201   5     0.00000     7.03749     0.00000  0.0
    192    193    195    196   5     0.00000    30.33400     0.00000  0.0
    192    193    195    202   5     0.00000    30.33400     0.00000  0.0
    194    193    195    196   5     0.00000    30.33400     0.00000  0.0
    194    193    195    202   5     0.00000    30.33400     0.00000  0.0
    193    195    196    190   5     0.00000    30.33400     0.00000  0.0
    193    195    196    203   5     0.00000    30.33400     0.00000  0.0
    202    195    196    190   5     0.00000    30.33400     0.00000  0.0
    202    195    196    203   5     0.00000    30.33400     0.00000  0.0
    189    197    206    207   5    -0.30962     3.11290    -3.95806  0.0
    189    197    206    214   5     4.74884    -0.63178     1.67360  0.0
    189    197    206    215   5     0.00000     0.00000     1.25520  0.0
    204    197    206    207   5     0.00000     0.00000     3.61498  0.0
    204    197    206    214   5     0.00000     0.00000     1.25520  0.0
    204    197    206    215   5     0.00000     0.00000     1.25520  0.0
    205    197    206    207   5     0.00000     0.00000     3.61498  0.0
    205    197    206    214   5     0.00000     0.00000     1.25520  0.0
    205    197    206    215   5     0.00000     0.00000     1.25520  0.0
    197    206    207    208   5     0.00000     0.34727     0.00000  0.0
    197    206    207    213   5     0.00000     0.34727     0.00000  0.0
    214    206    207    208   5     0.00000     0.34727     0.00000  0.0
    214    206    207    213   5     0.00000     0.34727     0.00000  0.0
    215    206    207    208   5     0.00000     0.00000     0.00000  0.0
    215    206    207    213   5     0.00000     0.00000     0.00000  0.0
    197    206    214    221   5     0.00000     0.00000     1.25520  0.0
    197    206    214    222   5     0.00000     0.00000     1.25520  0.0
    197    206    214    223   5     4.74884    -0.63178     1.67360  0.0
    207    206    214    221   5     0.00000     0.00000     3.61498  0.0
    207    206    214    222   5     0.00000     0.00000     3.61498  0.0
    207    206    214    223   5    -0.30962     3.11290    -3.95806  0.0
    215    206    214    221   5     0.00000     0.00000     1.25520  0.0
    215    206    214    222   5     0.00000     0.00000     1.25520  0.0
    215    206    214    223   5     0.00000     0.00000     1.25520  0.0
    206    207    208    209   5     0.00000    30.33400     0.00000  0.0
    206    207    208    216   5     0.00000    30.33400     0.00000  0.0
    213    207    208    209   5     0.00000    30.33400     0.00000  0.0
    213    207    208    216   5     0.00000    30.33400     0.00000  0.0
    206    207    213    212   5     0.00000    30.33400     0.00000  0.0
    206    207    213    220   5     0.00000    30.33400     0.00000  0.0
    208    207    213    212   5     0.00000    30.33400     0.00000  0.0
    208    207    213    220   5     0.00000    30.33400     0.00000  0.0
    207    208    209    210   5     0.00000    30.33400     0.00000  0.0
    207    208    209    217   5     0.00000    30.33400     0.00000  0.0
    216    208    209    210   5     0.00000    30.33400     0.00000  0.0
    216    208    209    217   5     0.00000    30.33400     0.00000  0.0
    208    209    210    211   5     0.00000    30.33400     0.00000  0.0
    208    209    210    212   5     0.00000    30.33400     0.00000  0.0
    217    209    210    211   5     0.00000    30.33400     0.00000  0.0
    217    209    210    212   5     0.00000    30.33400     0.00000  0.0
    209    210    211    218   5     0.00000     7.03749     0.00000  0.0
    212    210    211    218   5     0.00000     7.03749     0.00000  0.0
    209    210    212    213   5     0.00000    30.33400     0.00000  0.0
    209    210    212    219   5     0.00000    30.33400     0.00000  0.0
    211    210    212    213   5     0.00000    30.33400     0.00000  0.0
    211    210    212    219   5     0.00000    30.33400     0.00000  0.0
    210    212    213    207   5     0.00000    30.33400     0.00000  0.0
    210    212    213    220   5     0.00000    30.33400     0.00000  0.0
    219    212    213    207   5     0.00000    30.33400     0.00000  0.0
    219    212    213    220   5     0.00000    30.33400     0.00000  0.0
    206    214    223    224   5    -0.30962     3.11290    -3.95806  0.0
    206    214    223    231   5     4.74884    -0.63178     1.67360  0.0
    206    214    223    232   5     0.00000     0.00000     1.25520  0.0
    221    214    223    224   5     0.00000     0.00000     3.61498  0.0
    221    214    223    231   5     0.00000     0.00000     1.25520  0.0
    221    214    223    232   5     0.00000     0.00000     1.25520  0.0
    222    214    223    224   5     0.00000     0.00000     3.61498  0.0
    222    214    223    231   5     0.00000     0.00000     1.25520  0.0
    222    214    223    232   5     0.00000     0.00000     1.25520  0.0
    214    223    224    225   5     0.00000     0.34727     0.00000  0.0
    214    223    224    230   5     0.00000     0.34727     0.00000  0.0
    231    223    224    225   5     0.00000     0.34727     0.00000  0.0
    231    223    224    230   5     0.00000     0.34727     0.00000  0.0
    232    223    224    225   5     0.00000     0.00000     0.00000  0.0
    232    223    224    230   5     0.00000     0.00000     0.00000  0.0
    214    223    231    238   5     0.00000     0.00000     1.25520  0.0
    214    223    231    239   5     0.00000     0.00000     1.25520  0.0
    214    223    231    240   5     4.74884    -0.63178     1.67360  0.0
    224    223    231    238   5     0.00000     0.00000     3.61498  0.0
    224    223    231    239   5     0.00000     0.00000     3.61498  0.0
    224    223    231    240   5    -0.30962     3.11290    -3.95806  0.0
    232    223    231    238   5     0.00000     0.00000     1.25520  0.0
    232    223    231    239   5     0.00000     0.00000     1.25520  0.0
    232    223    231    240   5     0.00000     0.00000     1.25520  0.0
    223    224    225    226   5     0.00000    30.33400     0.00000  0.0
    223    224    225    233   5     0.00000    30.33400     0.00000  0.0
    230    224    225    226   5     0.00000    30.33400     0.00000  0.0
    230    224    225    233   5     0.00000    30.33400     0.00000  0.0
    223    224    230    229   5     0.00000    30.33400     0.00000  0.0
    223    224    230    237   5     0.00000    30.33400     0.00000  0.0
    225    224    230    229   5     0.00000    30.33400     0.00000  0.0
    225    224    230    237   5     0.00000    30.33400     0.00000  0.0
    224    225    226    227   5     0.00000    30.33400     0.00000  0.0
    224    225    226    234   5     0.00000    30.33400     0.00000  0.0
    233    225    226    227   5     0.00000    30.33400     0.00000  0.0
    233    225    226    234   5     0.00000    30.33400     0.00000  0.0
    225    226    227    228   5     0.00000    30.33400     0.00000  0.0
    225    226    227    229   5     0.00000    30.33400     0.00000  0.0
    234    226    227    228   5     0.00000    30.33400     0.00000  0.0
    234    226    227    229   5     0.00000    30.33400     0.00000  0.0
    226    227    228    235   5     0.00000     7.03749     0.00000  0.0
    229    227    228    235   5     0.00000     7.03749     0.00000  0.0
    226    227    229    230   5     0.00000    30.33400     0.00000  0.0
    226    227    229    236   5     0.00000    30.33400     0.00000  0.0
    228    227    229    230   5     0.00000    30.33400     0.00000  0.0
    228    227    229    236   5     0.00000    30.33400     0.00000  0.0
    227    229    230    224   5     0.00000    30.33400     0.00000  0.0
    227    229    230    237   5     0.00000    30.33400     0.00000  0.0
    236    229    230    224   5     0.00000    30.33400     0.00000  0.0
    236    229    230    237   5     0.00000    30.33400     0.00000  0.0
    223    231    240    241   5    -0.30962     3.11290    -3.95806  0.0
    223    231    240    248   5     4.74884    -0.63178     1.67360  0.0
    223    231    240    249   5     0.00000     0.00000     1.25520  0.0
    238    231    240    241   5     0.00000     0.00000     3.61498  0.0
    238    231    240    248   5     0.00000     0.00000     1.25520  0.0
    238    231    240    249   5     0.00000     0.00000     1.25520  0.0
    239    231    240    241   5     0.00000     0.00000     3.61498  0.0
    239    231    240    248   5     0.00000     0.00000     1.25520  0.0
    239    231    240    249   5     0.00000     0.00000     1.25520  0.0
    231    240    241    242   5     0.00000     0.34727     0.00000  0.0
    231    240    241    247   5     0.00000     0.34727     0.00000  0.0
    248    240    241    242   5     0.00000     0.34727     0.00000  0.0
    248    240    241    247   5     0.00000     0.34727     0.00000  0.0
    249    240    241    242   5     0.00000     0.00000     0.00000  0.0
    249    240    241    247   5     0.00000     0.00000     0.00000  0.0
    231    240    248    255   5     0.00000     0.00000     1.25520  0.0
    231    240    248    256   5     0.00000     0.00000     1.25520  0.0
    231    240    248    257   5     4.74884    -0.63178     1.67360  0.0
    241    240    248    255   5     0.00000     0.00000     3.61498  0.0
    241    240    248    256   5     0.00000     0.00000     3.61498  0.0
    241    240    248    257   5    -0.30962     3.11290    -3.95806  0.0
    249    240    248    255   5     0.00000     0.00000     1.25520  0.0
    249    240    248    256   5     0.00000     0.00000     1.25520  0.0
    249    240    248    257   5     0.00000     0.00000     1.25520  0.0
    240    241    242    243   5     0.00000    30.33400     0.00000  0.0
    240    241    242    250   5     0.00000    30.33400     0.00000  0.0
    247    241    242    243   5     0.00000    30.33400     0.00000  0.0
    247    241    242    250   5     0.00000    30.33400     0.00000  0.0
    240    241    247    246   5     0.00000    30.33400     0.00000  0.0
    240    241    247    254   5     0.00000    30.33400     0.00000  0.0
    242    241    247    246   5     0.00000    30.33400     0.00000  0.0
    242    241    247    254   5     0.00000    30.33400     0.00000  0.0
    241    242    243    244   5     0.00000    30.33400     0.00000  0.0
    241    242    243    251   5     0.00000    30.33400     0.00000  0.0
    250    242    243    244   5     0.00000    30.33400     0.00000  0.0
    250    242    243    251   5     0.00000    30.33400     0.00000  0.0
    242    243    244    245   5     0.00000    30.33400     0.00000  0.0
    242    243    244    246   5     0.00000    30.33400     0.00000  0.0
    251    243    244    245   5     0.00000    30.33400     0.00000  0.0
    251    243    244    246   5     0.00000    30.33400     0.00000  0.0
    243    244    245    252   5     0.00000     7.03749     0.00000  0.0
    246    244    245    252   5     0.00000     7.03749     0.00000  0.0
    243    244    246    247   5     0.00000    30.33400     0.00000  0.0
    243    244    246    253   5     0.00000    30.33400     0.00000  0.0
    245    244    246    247   5     0.00000    30.33400     0.00000  0.0
    245    244    246    253   5     0.00000    30.33400     0.00000  0.0
    244    246    247    241   5     0.00000    30.33400     0.00000  0.0
    244    246    247    254   5     0.00000    30.33400     0.00000  0.0
    253    246    247    241   5     0.00000    30.33400     0.00000  0.0
    253    246    247    254   5     0.00000    30.33400     0.00000  0.0
    240    248    257    258   5    -0.30962     3.11290    -3.95806  0.0
    240    248    257    265   5     4.74884    -0.63178     1.67360  0.0
    240    248    257    266   5     0.00000     0.00000     1.25520  0.0
    255    248    257    258   5     0.00000     0.00000     3.61498  0.0
    255    248    257    265   5     0.00000     0.00000     1.25520  0.0
    255    248    257    266   5     0.00000     0.00000     1.25520  0.0
    256    248    257    258   5     0.00000     0.00000     3.61498  0.0
    256    248    257    265   5     0.00000     0.00000     1.25520  0.0
    256    248    257    266   5     0.00000     0.00000     1.25520  0.0
    248    257    258    259   5     0.00000     0.34727     0.00000  0.0
    248    257    258    264   5     0.00000     0.34727     0.00000  0.0
    265    257    258    259   5     0.00000     0.34727     0.00000  0.0
    265    257    258    264   5     0.00000     0.34727     0.00000  0.0
    266    257    258    259   5     0.00000     0.00000     0.00000  0.0
    266    257    258    264   5     0.00000     0.00000     0.00000  0.0
    248    257    265    272   5     0.00000     0.00000     1.25520  0.0
    248    257    265    273   5     0.00000     0.00000     1.25520  0.0
    248    257    265    274   5     4.74884    -0.63178     1.67360  0.0
    258    257    265    272   5     0.00000     0.00000     3.61498  0.0
    258    257    265    273   5     0.00000     0.00000     3.61498  0.0
    258    257    265    274   5    -0.30962     3.11290    -3.95806  0.0
    266    257    265    272   5     0.00000     0.00000     1.25520  0.0
    266    257    265    273   5     0.00000     0.00000     1.25520  0.0
    266    257    265    274   5     0.00000     0.00000     1.25520  0.0
    257    258    259    260   5     0.00000    30.33400     0.00000  0.0
    257    258    259    267   5     0.00000    30.33400     0.00000  0.0
    264    258    259    260   5     0.00000    30.33400     0.00000  0.0
    264    258    259    267   5     0.00000    30.33400     0.00000  0.0
    257    258    264    263   5     0.00000    30.33400     0.00000  0.0
    257    258    264    271   5     0.00000    30.33400     0.00000  0.0
    259    258    264    263   5     0.00000    30.33400     0.00000  0.0
    259    258    264    271   5     0.00000    30.33400     0.00000  0.0
    258    259    260    261   5     0.00000    30.33400     0.00000  0.0
    258    259    260    268   5     0.00000    30.33400     0.00000  0.0
    267    259    260    261   5     0.00000    30.33400     0.00000  0.0
    267    259    260    268   5     0.00000    30.33400     0.00000  0.0
    259    260    261    262   5     0.00000    30.33400     0.00000  0.0
    259    260    261    263   5     0.00000    30.33400     0.00000  0.0
    268    260    261    262   5     0.00000    30.33400     0.00000  0.0
    268    260    261    263   5     0.00000    30.33400     0.00000  0.0
    260    261    262    269   5     0.00000     7.03749     0.00000  0.0
    263    261    262    269   5     0.00000     7.03749     0.00000  0.0
    260    261    263    264   5     0.00000    30.33400     0.00000  0.0
    260    261    263    270   5     0.00000    30.33400     0.00000  0.0
    262    261    263    264   5     0.00000    30.33400     0.00000  0.0
    262    261    263    270   5     0.00000    30.33400     0.00000  0.0
    261    263    264    258   5     0.00000    30.33400     0.00000  0.0
    261    263    264    271   5     0.00000    30.33400     0.00000  0.0
    270    263    264    258   5     0.00000    30.33400     0.00000  0.0
    270    263    264    271   5     0.00000    30.33400     0.00000  0.0
    257    265    274    275   5    -0.30962     3.11290    -3.95806  0.0
    257    265    274    282   5     4.74884    -0.63178     1.67360  0.0
    257    265    274    283   5     0.00000     0.00000     1.25520  0.0
    272    265    274    275   5     0.00000     0.00000     3.61498  0.0
    272    265    274    282   5     0.00000     0.00000     1.25520  0.0
    272    265    274    283   5     0.00000     0.00000     1.25520  0.0
    273    265    274    275   5     0.00000     0.00000     3.61498  0.0
    273    265    274    282   5     0.00000     0.00000     1.25520  0.0
    273    265    274    283   5     0.00000     0.00000     1.25520  0.0
    265    274    275    276   5     0.00000     0.34727     0.00000  0.0
    265    274    275    281   5     0.00000     0.34727     0.00000  0.0
    282    274    275    276   5     0.00000     0.34727     0.00000  0.0
    282    274    275    281   5     0.00000     0.34727     0.00000  0.0
    283    274    275    276   5     0.00000     0.00000     0.00000  0.0
    283    274    275    281   5     0.00000     0.00000     0.00000  0.0
    265    274    282    289   5     0.00000     0.00000     1.25520  0.0
    265    274    282    290   5     0.00000     0.00000     1.25520  0.0
    265    274    282    291   5     4.74884    -0.63178     1.67360  0.0
    275    274    282    289   5     0.00000     0.00000     3.61498  0.0
    275    274    282    290   5     0.00000     0.00000     3.61498  0.0
    275    274    282    291   5    -0.30962     3.11290    -3.95806  0.0
    283    274    282    289   5     0.00000     0.00000     1.25520  0.0
    283    274    282    290   5     0.00000     0.00000     1.25520  0.0
    283    274    282    291   5     0.00000     0.00000     1.25520  0.0
    274    275    276    277   5     0.00000    30.33400     0.00000  0.0
    274    275    276    284   5     0.00000    30.33400     0.00000  0.0
    281    275    276    277   5     0.00000    30.33400     0.00000  0.0
    281    275    276    284   5     0.00000    30.33400     0.00000  0.0
    274    275    281    280   5     0.00000    30.33400     0.00000  0.0
    274    275    281    288   5     0.00000    30.33400     0.00000  0.0
    276    275    281    280   5     0.00000    30.33400     0.00000  0.0
    276    275    281    288   5     0.00000    30.33400     0.00000  0.0
    275    276    277    278   5     0.00000    30.33400     0.00000  0.0
    275    276    277    285   5     0.00000    30.33400     0.00000  0.0
    284    276    277    278   5     0.00000    30.33400     0.00000  0.0
    284    276    277    285   5     0.00000    30.33400     0.00000  0.0
    276    277    278    279   5     0.00000    30.33400     0.00000  0.0
    276    277    278    280   5     0.00000    30.33400     0.00000  0.0
    285    277    278    279   5     0.00000    30.33400     0.00000  0.0
    285    277    278    280   5     0.00000    30.33400     0.00000  0.0
    277    278    279    286   5     0.00000     7.03749     0.00000  0.0
    280    278    279    286   5     0.00000     7.03749     0.00000  0.0
    277    278    280    281   5     0.00000    30.33400     0.00000  0.0
    277    278    280    287   5     0.00000    30.33400     0.00000  0.0
    279    278    280    281   5     0.00000    30.33400     0.00000  0.0
    279    278    280    287   5     0.00000    30.33400     0.00000  0.0
    278    280    281    275   5     0.00000    30.33400     0.00000  0.0
    278    280    281    288   5     0.00000    30.33400     0.00000  0.0
    287    280    281    275   5     0.00000    30.33400     0.00000  0.0
    287    280    281    288   5     0.00000    30.33400     0.00000  0.0
    274    282    291    292   5    -0.30962     3.11290    -3.95806  0.0
    274    282    291    299   5     4.74884    -0.63178     1.67360  0.0
    274    282    291    300   5     0.00000     0.00000     1.25520  0.0
    289    282    291    292   5     0.00000     0.00000     3.61498  0.0
    289    282    291    299   5     0.00000     0.00000     1.25520  0.0
    289    282    291    300   5     0.00000     0.00000     1.25520  0.0
    290    282    291    292   5     0.00000     0.00000     3.61498  0.0
    290    282    291    299   5     0.00000     0.00000     1.25520  0.0
    290    282    291    300   5     0.00000     0.00000     1.25520  0.0
    282    291    292    293   5     0.00000     0.34727     0.00000  0.0
    282    291    292    298   5     0.00000     0.34727     0.00000  0.0
    299    291    292    293   5     0.00000     0.34727     0.00000  0.0
    299    291    292    298   5     0.00000     0.34727     0.00000  0.0
    300    291    292    293   5     0.00000     0.00000     0.00000  0.0
    300    291    292    298   5     0.00000     0.00000     0.00000  0.0
    282    291    299    306   5     0.00000     0.00000     1.25520  0.0
    282    291    299    307   5     0.00000     0.00000     1.25520  0.0
    282    291    299    308   5     4.74884    -0.63178     1.67360  0.0
    292    291    299    306   5     0.00000     0.00000     3.61498  0.0
    292    291    299    307   5     0.00000     0.00000     3.61498  0.0
    292    291    299    308   5    -0.30962     3.11290    -3.95806  0.0
    300    291    299    306   5     0.00000     0.00000     1.25520  0.0
    300    291    299    307   5     0.00000     0.00000     1.25520  0.0
    300    291    299    308   5     0.00000     0.00000     1.25520  0.0
    291    292    293    294   5     0.00000    30.33400     0.00000  0.0
    291    292    293    301   5     0.00000    30.33400     0.00000  0.0
    298    292    293    294   5     0.00000    30.33400     0.00000  0.0
    298    292    293    301   5     0.00000    30.33400     0.00000  0.0
    291    292    298    297   5     0.00000    30.33400     0.00000  0.0
    291    292    298    305   5     0.00000    30.33400     0.00000  0.0
    293    292    298    297   5     0.00000    30.33400     0.00000  0.0
    293    292    298    305   5     0.00000    30.33400     0.00000  0.0
    292    293    294    295   5     0.00000    30.33400     0.00000  0.0
    292    293    294    302   5     0.00000    30.33400     0.00000  0.0
    301    293    294    295   5     0.00000    30.33400     0.00000  0.0
    301    293    294    302   5     0.00000    30.33400     0.00000  0.0
    293    294    295    296   5     0.00000    30.33400     0.00000  0.0
    293    294    295    297   5     0.00000    30.33400     0.00000  0.0
    302    294    295    296   5     0.00000    30.33400     0.00000  0.0
    302    294    295    297   5     0.00000    30.33400     0.00000  0.0
    294    295    296    303   5     0.00000     7.03749     0.00000  0.0
    297    295    296    303   5     0.00000     7.03749     0.00000  0.0
    294    295    297    298   5     0.00000    30.33400     0.00000  0.0
    294    295    297    304   5     0.00000    30.33400     0.00000  0.0
    296    295    297    298   5     0.00000    30.33400     0.00000  0.0
    296    295    297    304   5     0.00000    30.33400     0.00000  0.0
    295    297    298    292   5     0.00000    30.33400     0.00000  0.0
    295    297    298    305   5     0.00000    30.33400     0.00000  0.0
    304    297    298    292   5     0.00000    30.33400     0.00000  0.0
    304    297    298    305   5     0.00000    30.33400     0.00000  0.0
    291    299    308    309   5    -0.30962     3.11290    -3.95806  0.0
    291    299    308    316   5     4.74884    -0.63178     1.67360  0.0
    291    299    308    317   5     0.00000     0.00000     1.25520  0.0
    306    299    308    309   5     0.00000     0.00000     3.61498  0.0
    306    299    308    316   5     0.00000     0.00000     1.25520  0.0
    306    299    308    317   5     0.00000     0.00000     1.25520  0.0
    307    299    308    309   5     0.00000     0.00000     3.61498  0.0
    307    299    308    316   5     0.00000     0.00000     1.25520  0.0
    307    299    308    317   5     0.00000     0.00000     1.25520  0.0
    299    308    309    310   5     0.00000     0.34727     0.00000  0.0
    299    308    309    315   5     0.00000     0.34727     0.00000  0.0
    316    308    309    310   5     0.00000     0.34727     0.00000  0.0
    316    308    309    315   5     0.00000     0.34727     0.00000  0.0
    317    308    309    310   5     0.00000     0.00000     0.00000  0.0
    317    308    309    315   5     0.00000     0.00000     0.00000  0.0
    299    308    316    323   5     0.00000     0.00000     1.25520  0.0
    299    308    316    324   5     0.00000     0.00000     1.25520  0.0
    299    308    316    325   5     4.74884    -0.63178     1.67360  0.0
    309    308    316    323   5     0.00000     0.00000     3.61498  0.0
    309    308    316    324   5     0.00000     0.00000     3.61498  0.0
    309    308    316    325   5    -0.30962     3.11290    -3.95806  0.0
    317    308    316    323   5     0.00000     0.00000     1.25520  0.0
    317    308    316    324   5     0.00000     0.00000     1.25520  0.0
    317    308    316    325   5     0.00000     0.00000     1.25520  0.0
    308    309    310    311   5     0.00000    30.33400     0.00000  0.0
    308    309    310    318   5     0.00000    30.33400     0.00000  0.0
    315    309    310    311   5     0.00000    30.33400     0.00000  0.0
    315    309    310    318   5     0.00000    30.33400     0.00000  0.0
    308    309    315    314   5     0.00000    30.33400     0.00000  0.0
    308    309    315    322   5     0.00000    30.33400     0.00000  0.0
    310    309    315    314   5     0.00000    30.33400     0.00000  0.0
    310    309    315    322   5     0.00000    30.33400     0.00000  0.0
    309    310    311    312   5     0.00000    30.33400     0.00000  0.0
    309    310    311    319   5     0.00000    30.33400     0.00000  0.0
    318    310    311    312   5     0.00000    30.33400     0.00000  0.0
    318    310    311    319   5     0.00000    30.33400     0.00000  0.0
    310    311    312    313   5     0.00000    30.33400     0.00000  0.0
    310    311    312    314   5     0.00000    30.33400     0.00000  0.0
    319    311    312    313   5     0.00000    30.33400     0.00000  0.0
    319    311    312    314   5     0.00000    30.33400     0.00000  0.0
    311    312    313    320   5     0.00000     7.03749     0.00000  0.0
    314    312    313    320   5     0.00000     7.03749     0.00000  0.0
    311    312    314    315   5     0.00000    30.33400     0.00000  0.0
    311    312    314    321   5     0.00000    30.33400     0.00000  0.0
    313    312    314    315   5     0.00000    30.33400     0.00000  0.0
    313    312    314    321   5     0.00000    30.33400     0.00000  0.0
    312    314    315    309   5     0.00000    30.33400     0.00000  0.0
    312    314    315    322   5     0.00000    30.33400     0.00000  0.0
    321    314    315    309   5     0.00000    30.33400     0.00000  0.0
    321    314    315    322   5     0.00000    30.33400     0.00000  0.0
    308    316    325    326   5    -0.30962     3.11290    -3.95806  0.0
    308    316    325    333   5     4.74884    -0.63178     1.67360  0.0
    308    316    325    334   5     0.00000     0.00000     1.25520  0.0
    323    316    325    326   5     0.00000     0.00000     3.61498  0.0
    323    316    325    333   5     0.00000     0.00000     1.25520  0.0
    323    316    325    334   5     0.00000     0.00000     1.25520  0.0
    324    316    325    326   5     0.00000     0.00000     3.61498  0.0
    324    316    325    333   5     0.00000     0.00000     1.25520  0.0
    324    316    325    334   5     0.00000     0.00000     1.25520  0.0
    316    325    326    327   5     0.00000     0.34727     0.00000  0.0
    316    325    326    332   5     0.00000     0.34727     0.00000  0.0
    333    325    326    327   5     0.00000     0.34727     0.00000  0.0
    333    325    326    332   5     0.00000     0.34727     0.00000  0.0
    334    325    326    327   5     0.00000     0.00000     0.00000  0.0
    334    325    326    332   5     0.00000     0.00000     0.00000  0.0
    316    325    333    340   5     0.00000     0.00000     1.25520  0.0
    316    325    333    341   5     0.00000     0.00000     1.25520  0.0
    316    325    333    342   5     0.00000     0.00000     1.25520  0.0
    326    325    333    340   5     0.00000     0.00000     3.61498  0.0
    326    325    333    341   5     0.00000     0.00000     3.61498  0.0
    326    325    333    342   5     0.00000     0.00000     3.61498  0.0
    334    325    333    340   5     0.00000     0.00000     1.25520  0.0
    334    325    333    341   5     0.00000     0.00000     1.25520  0.0
    334    325    333    342   5     0.00000     0.00000     1.25520  0.0
    325    326    327    328   5     0.00000    30.33400     0.00000  0.0
    325    326    327    335   5     0.00000    30.33400     0.00000  0.0
    332    326    327    328   5     0.00000    30.33400     0.00000  0.0
    332    326    327    335   5     0.00000    30.33400     0.00000  0.0
    325    326    332    331   5     0.00000    30.33400     0.00000  0.0
    325    326    332    339   5     0.00000    30.33400     0.00000  0.0
    327    326    332    331   5     0.00000    30.33400     0.00000  0.0
    327    326    332    339   5     0.00000    30.33400     0.00000  0.0
    326    327    328    329   5     0.00000    30.33400     0.00000  0.0
    326    327    328    336   5     0.00000    30.33400     0.00000  0.0
    335    327    328    329   5     0.00000    30.33400     0.00000  0.0
    335    327    328    336   5     0.00000    30.33400     0.00000  0.0
    327    328    329    330   5     0.00000    30.33400     0.00000  0.0
    327    328    329    331   5     0.00000    30.33400     0.00000  0.0
    336    328    329    330   5     0.00000    30.33400     0.00000  0.0
    336    328    329    331   5     0.00000    30.33400     0.00000  0.0
    328    329    330    337   5     0.00000     7.03749     0.00000  0.0
    331    329    330    337   5     0.00000     7.03749     0.00000  0.0
    328    329    331    332   5     0.00000    30.33400     0.00000  0.0
    328    329    331    338   5     0.00000    30.33400     0.00000  0.0
    330    329    331    332   5     0.00000    30.33400     0.00000  0.0
    330    329    331    338   5     0.00000    30.33400     0.00000  0.0
    329    331    332    326   5     0.00000    30.33400     0.00000  0.0
    329    331    332    339   5     0.00000    30.33400     0.00000  0.0
    338    331    332    326   5     0.00000    30.33400     0.00000  0.0
    338    331    332    339   5     0.00000    30.33400     0.00000  0.0

[ dihedrals ]
; Improper dihedrals
; h   i   j   k   funct
      1      3      2      8   5     0.00000    33.47200     0.00000  0.0
      2      4      3     11   5     0.00000     9.20480     0.00000  0.0
      3      5      4     12   5     0.00000     9.20480     0.00000  0.0
      4      6      5      7   5     0.00000    33.47200     0.00000  0.0
      5      8      7     14   5     0.00000     9.20480     0.00000  0.0
      2      7      8     15   5     0.00000     9.20480     0.00000  0.0
     19     21     20     26   5     0.00000    33.47200     0.00000  0.0
     20     22     21     29   5     0.00000     9.20480     0.00000  0.0
     21     23     22     30   5     0.00000     9.20480     0.00000  0.0
     22     24     23     25   5     0.00000    33.47200     0.00000  0.0
     23     26     25     32   5     0.00000     9.20480     0.00000  0.0
     20     25     26     33   5     0.00000     9.20480     0.00000  0.0
     36     38     37     43   5     0.00000    33.47200     0.00000  0.0
     37     39     38     46   5     0.00000     9.20480     0.00000  0.0
     38     40     39     47   5     0.00000     9.20480     0.00000  0.0
     39     41     40     42   5     0.00000    33.47200     0.00000  0.0
     40     43     42     49   5     0.00000     9.20480     0.00000  0.0
     37     42     43     50   5     0.00000     9.20480     0.00000  0.0
     53     55     54     60   5     0.00000    33.47200     0.00000  0.0
     54     56     55     63   5     0.00000     9.20480     0.00000  0.0
     55     57     56     64   5     0.00000     9.20480     0.00000  0.0
     56     58     57     59   5     0.00000    33.47200     0.00000  0.0
     57     60     59     66   5     0.00000     9.20480     0.00000  0.0
     54     59     60     67   5     0.00000     9.20480     0.00000  0.0
     70     72     71     77   5     0.00000    33.47200     0.00000  0.0
     71     73     72     80   5     0.00000     9.20480     0.00000  0.0
     72     74     73     81   5     0.00000     9.20480     0.00000  0.0
     73     75     74     76   5     0.00000    33.47200     0.00000  0.0
     74     77     76     83   5     0.00000     9.20480     0.00000  0.0
     71     76     77     84   5     0.00000     9.20480     0.00000  0.0
     87     89     88     94   5     0.00000    33.47200     0.00000  0.0
     88     90     89     97   5     0.00000     9.20480     0.00000  0.0
     89     91     90     98   5     0.00000     9.20480     0.00000  0.0
     90     92     91     93   5     0.00000    33.47200     0.00000  0.0
     91     94     93    100   5     0.00000     9.20480     0.00000  0.0
     88     93     94    101   5     0.00000     9.20480     0.00000  0.0
    104    106    105    111   5     0.00000    33.47200     0.00000  0.0
    105    107    106    114   5     0.00000     9.20480     0.00000  0.0
    106    108    107    115   5     0.00000     9.20480     0.00000  0.0
    107    109    108    110   5     0.00000    33.47200     0.00000  0.0
    108    111    110    117   5     0.00000     9.20480     0.00000  0.0
    105    110    111    118   5     0.00000     9.20480     0.00000  0.0
    121    123    122    128   5     0.00000    33.47200     0.00000  0.0
    122    124    123    131   5     0.00000     9.20480     0.00000  0.0
    123    125    124    132   5     0.00000     9.20480     0.00000  0.0
    124    126    125    127   5     0.00000    33.47200     0.00000  0.0
    125    128    127    134   5     0.00000     9.20480     0.00000  0.0
    122    127    128    135   5     0.00000     9.20480     0.00000  0.0
    138    140    139    145   5     0.00000    33.47200     0.00000  0.0
    139    141    140    148   5     0.00000     9.20480     0.00000  0.0
    140    142    141    149   5     0.00000     9.20480     0.00000  0.0
    141    143    142    144   5     0.00000    33.47200     0.00000  0.0
    142    145    144    151   5     0.00000     9.20480     0.00000  0.0
    139    144    145    152   5     0.00000     9.20480     0.00000  0.0
    155    157    156    162   5     0.00000    33.47200     0.00000  0.0
    156    158    157    165   5     0.00000     9.20480     0.00000  0.0
    157    159    158    166   5     0.00000     9.20480     0.00000  0.0
    158    160    159    161   5     0.00000    33.47200     0.00000  0.0
    159    162    161    168   5     0.00000     9.20480     0.00000  0.0
    156    161    162    169   5     0.00000     9.20480     0.00000  0.0
    172    174    173    179   5     0.00000    33.47200     0.00000  0.0
    173    175    174    182   5     0.00000     9.20480     0.00000  0.0
    174    176    175    183   5     0.00000     9.20480     0.00000  0.0
    175    177    176    178   5     0.00000    33.47200     0.00000  0.0
    176    179    178    185   5     0.00000     9.20480     0.00000  0.0
    173    178    179    186   5     0.00000     9.20480     0.00000  0.0
    189    191    190    196   5     0.00000    33.47200     0.00000  0.0
    190    192    191    199   5     0.00000     9.20480     0.00000  0.0
    191    193    192    200   5     0.00000     9.20480     0.00000  0.0
    192    194    193    195   5     0.00000    33.47200     0.00000  0.0
    193    196    195    202   5     0.00000     9.20480     0.00000  0.0
    190    195    196    203   5     0.00000     9.20480     0.00000  0.0
    206    208    207    213   5     0.00000    33.47200     0.00000  0.0
    207    209    208    216   5     0.00000     9.20480     0.00000  0.0
    208    210    209    217   5     0.00000     9.20480     0.00000  0.0
    209    211    210    212   5     0.00000    33.47200     0.00000  0.0
    210    213    212    219   5     0.00000     9.20480     0.00000  0.0
    207    212    213    220   5     0.00000     9.20480     0.00000  0.0
    223    225    224    230   5     0.00000    33.47200     0.00000  0.0
    224    226    225    233   5     0.00000     9.20480     0.00000  0.0
    225    227    226    234   5     0.00000     9.20480     0.00000  0.0
    226    228    227    229   5     0.00000    33.47200     0.00000  0.0
    227    230    229    236   5     0.00000     9.20480     0.00000  0.0
    224    229    230    237   5     0.00000     9.20480     0.00000  0.0
    240    242    241    247   5     0.00000    33.47200     0.00000  0.0
    241    243    242    250   5     0.00000     9.20480     0.00000  0.0
    242    244    243    251   5     0.00000     9.20480     0.00000  0.0
    243    245    244    246   5     0.00000    33.47200     0.00000  0.0
    244    247    246    253   5     0.00000     9.20480     0.00000  0.0
    241    246    247    254   5     0.00000     9.20480     0.00000  0.0
    257    259    258    264   5     0.00000    33.47200     0.00000  0.0
    258    260    259    267   5     0.00000     9.20480     0.00000  0.0
    259    261    260    268   5     0.00000     9.20480     0.00000  0.0
    260    262    261    263   5     0.00000    33.47200     0.00000  0.0
    261    264    263    270   5     0.00000     9.20480     0.00000  0.0
    258    263    264    271   5     0.00000     9.20480     0.00000  0.0
    274    276    275    281   5     0.00000    33.47200     0.00000  0.0
    275    277    276    284   5     0.00000     9.20480     0.00000  0.0
    276    278    277    285   5     0.00000     9.20480     0.00000  0.0
    277    279    278    280   5     0.00000    33.47200     0.00000  0.0
    278    281    280    287   5     0.00000     9.20480     0.00000  0.0
    275    280    281    288   5     0.00000     9.20480     0.00000  0.0
    291    293    292    298   5     0.00000    33.47200     0.00000  0.0
    292    294    293    301   5     0.00000     9.20480     0.00000  0.0
    293    295    294    302   5     0.00000     9.20480     0.00000  0.0
    294    296    295    297   5     0.00000    33.47200     0.00000  0.0
    295    298    297    304   5     0.00000     9.20480     0.00000  0.0
    292    297    298    305   5     0.00000     9.20480     0.00000  0.0
    308    310    309    315   5     0.00000    33.47200     0.00000  0.0
    309    311    310    318   5     0.00000     9.20480     0.00000  0.0
    310    312    311    319   5     0.00000     9.20480     0.00000  0.0
    311    313    312    314   5     0.00000    33.47200     0.00000  0.0
    312    315    314    321   5     0.00000     9.20480     0.00000  0.0
    309    314    315    322   5     0.00000     9.20480     0.00000  0.0
    325    327    326    332   5     0.00000    33.47200     0.00000  0.0
    326    328    327    335   5     0.00000     9.20480     0.00000  0.0
    327    329    328    336   5     0.00000     9.20480     0.00000  0.0
    328    330    329    331   5     0.00000    33.47200     0.00000  0.0
    329    332    331    338   5     0.00000     9.20480     0.00000  0.0
    326    331    332    339   5     0.00000     9.20480     0.00000  0.0
